<event>
 8    1  0.2516265E-006  0.9118800E+02  0.7816164E-02  0.1184000E+00
        -11   -1    0    0    0    0  0.00000000000E+00  0.00000000000E+00  0.45593999997E+02  0.45594000000E+02  0.51100000000E-03 0. -1.
         11   -1    0    0    0    0 -0.00000000000E+00 -0.00000000000E+00 -0.45593999997E+02  0.45594000000E+02  0.51100000000E-03 0.  1.
         23    2    1    2    0    0 -0.17763568394E-14  0.35527136788E-14 -0.71054273576E-14  0.91188000000E+02  0.91188000000E+02 0.  0.
    9900012    2    3    3    0    0  0.13115177440E+02 -0.19608507348E+02  0.28271504706E+02  0.54367089935E+02  0.40000013124E+02 0.  0.
        -12    1    3    3    0    0 -0.13115177440E+02  0.19608507348E+02 -0.28271504706E+02  0.36820910065E+02  0.00000000000E+00 0.  1.
         11    1    4    4    0    0 -0.35228083483E+01 -0.18637046175E+02  0.88511072939E+01  0.20930641877E+02  0.51100000000E-03 0. -1.
        -11    1    4    4    0    0  0.30718695610E+01 -0.30350221637E+01 -0.42610137281E+01  0.60666284199E+01  0.51100000000E-03 0.  1.
         12    1    4    4    0    0  0.13566116227E+02  0.20635609903E+01  0.23681411140E+02  0.27369819638E+02  0.00000000000E+00 0. -1.
</event>
<event>
 8    1  0.2516265E-006  0.9118800E+02  0.7816164E-02  0.1184000E+00
        -11   -1    0    0    0    0  0.00000000000E+00  0.00000000000E+00  0.45593999997E+02  0.45594000000E+02  0.51100000000E-03 0.  1.
         11   -1    0    0    0    0 -0.00000000000E+00 -0.00000000000E+00 -0.45593999997E+02  0.45594000000E+02  0.51100000000E-03 0. -1.
         23    2    1    2    0    0  0.35527136788E-14  0.35527136788E-14  0.35527136788E-14  0.91188000000E+02  0.91188000000E+02 0.  0.
    9900012    2    3    3    0    0 -0.16840189011E+02 -0.18654366224E+02 -0.26911004234E+02  0.54367088903E+02  0.40000010771E+02 0.  0.
         12    1    3    3    0    0  0.16840189011E+02  0.18654366224E+02  0.26911004234E+02  0.36820911097E+02  0.00000000000E+00 0. -1.
         11    1    4    4    0    0 -0.16950672237E+02 -0.20931828236E+02 -0.23324679721E+02  0.35630147445E+02  0.51100000000E-03 0. -1.
        -11    1    4    4    0    0 -0.25421360474E+01  0.66470841223E+01 -0.88788249560E+01  0.11378915408E+02  0.51100000000E-03 0.  1.
         12    1    4    4    0    0  0.26526192737E+01 -0.43696221107E+01  0.52925004430E+01  0.73580260492E+01  0.00000000000E+00 0. -1.
</event>
<event>
 8    1  0.2516265E-006  0.9118800E+02  0.7816164E-02  0.1184000E+00
        -11   -1    0    0    0    0  0.00000000000E+00  0.00000000000E+00  0.45593999997E+02  0.45594000000E+02  0.51100000000E-03 0.  1.
         11   -1    0    0    0    0 -0.00000000000E+00 -0.00000000000E+00 -0.45593999997E+02  0.45594000000E+02  0.51100000000E-03 0. -1.
         23    2    1    2    0    0  0.00000000000E+00  0.00000000000E+00  0.35527136788E-14  0.91188000000E+02  0.91188000000E+02 0.  0.
    9900012    2    3    3    0    0 -0.22786067084E+02  0.11897118397E+02 -0.26363489917E+02  0.54367083662E+02  0.39999998825E+02 0.  0.
        -12    1    3    3    0    0  0.22786067084E+02 -0.11897118397E+02  0.26363489917E+02  0.36820916338E+02  0.00000000000E+00 0.  1.
         11    1    4    4    0    0 -0.90469928277E+01  0.53967503641E+01 -0.30422709535E+02  0.32194941364E+02  0.51100000000E-03 0. -1.
        -11    1    4    4    0    0 -0.58637117904E+01 -0.12597379007E+01  0.83770542933E+01  0.10302674140E+02  0.51100000000E-03 0.  1.
         12    1    4    4    0    0 -0.78753624661E+01  0.77601059338E+01 -0.43178346757E+01  0.11869468158E+02  0.00000000000E+00 0. -1.
</event>
<event>
 8    1  0.2516265E-006  0.9118800E+02  0.7816164E-02  0.1184000E+00
        -11   -1    0    0    0    0  0.00000000000E+00  0.00000000000E+00  0.45593999997E+02  0.45594000000E+02  0.51100000000E-03 0. -1.
         11   -1    0    0    0    0 -0.00000000000E+00 -0.00000000000E+00 -0.45593999997E+02  0.45594000000E+02  0.51100000000E-03 0.  1.
         23    2    1    2    0    0  0.00000000000E+00  0.00000000000E+00  0.00000000000E+00  0.91188000000E+02  0.91188000000E+02 0.  0.
    9900012    2    3    3    0    0 -0.16724339487E+02 -0.10083817812E+02  0.31215197909E+02  0.54367143228E+02  0.40000134617E+02 0.  0.
        -12    1    3    3    0    0  0.16724339487E+02  0.10083817812E+02 -0.31215197909E+02  0.36820856772E+02  0.00000000000E+00 0.  1.
         11    1    4    4    0    0 -0.65016400266E+01  0.55358862917E+01  0.14288279895E+02  0.16645488960E+02  0.51100000000E-03 0. -1.
        -11    1    4    4    0    0 -0.64356894956E+01  0.53552029557E+01 -0.26495632657E+01  0.87815991562E+01  0.51100000000E-03 0.  1.
         12    1    4    4    0    0 -0.37870099648E+01 -0.20974907060E+02  0.19576481279E+02  0.28940055112E+02  0.00000000000E+00 0. -1.
</event>
<event>
 8    1  0.2516265E-006  0.9118800E+02  0.7816164E-02  0.1184000E+00
        -11   -1    0    0    0    0  0.00000000000E+00  0.00000000000E+00  0.45593999997E+02  0.45594000000E+02  0.51100000000E-03 0. -1.
         11   -1    0    0    0    0 -0.00000000000E+00 -0.00000000000E+00 -0.45593999997E+02  0.45594000000E+02  0.51100000000E-03 0.  1.
         23    2    1    2    0    0  0.00000000000E+00  0.00000000000E+00  0.00000000000E+00  0.91188000000E+02  0.91188000000E+02 0.  0.
    9900012    2    3    3    0    0  0.71453184728E+01 -0.78609683480E+01  0.35255178940E+02  0.54367108627E+02  0.40000055736E+02 0.  0.
        -12    1    3    3    0    0 -0.71453184728E+01  0.78609683480E+01 -0.35255178940E+02  0.36820891373E+02  0.00000000000E+00 0.  1.
         11    1    4    4    0    0  0.68788253892E+01  0.10863530496E+02  0.21960504866E+02  0.25447952919E+02  0.51100000000E-03 0.  1.
        -11    1    4    4    0    0 -0.45352880268E+01 -0.77913628847E+01  0.14333517671E+02  0.16932923615E+02  0.51100000000E-03 0. -1.
        -12    1    4    4    0    0  0.48017811104E+01 -0.10933135959E+02 -0.10388435966E+01  0.11986232092E+02  0.00000000000E+00 0.  1.
</event>
<event>
 8    1  0.2516265E-006  0.9118800E+02  0.7816164E-02  0.1184000E+00
        -11   -1    0    0    0    0  0.00000000000E+00  0.00000000000E+00  0.45593999997E+02  0.45594000000E+02  0.51100000000E-03 0.  1.
         11   -1    0    0    0    0 -0.00000000000E+00 -0.00000000000E+00 -0.45593999997E+02  0.45594000000E+02  0.51100000000E-03 0. -1.
         23    2    1    2    0    0  0.17763568394E-14 -0.66613381478E-15 -0.71054273576E-14  0.91188000000E+02  0.91188000000E+02 0.  0.
    9900012    2    3    3    0    0  0.12064570886E+02  0.15233434133E+01  0.34754915942E+02  0.54367100663E+02  0.40000037581E+02 0.  0.
         12    1    3    3    0    0 -0.12064570886E+02 -0.15233434133E+01 -0.34754915942E+02  0.36820899337E+02  0.00000000000E+00 0. -1.
         11    1    4    4    0    0 -0.35056459327E+01  0.17094852499E+01  0.27327098332E+02  0.27604025009E+02  0.51100000000E-03 0. -1.
        -11    1    4    4    0    0  0.19769047858E+02 -0.92778027183E+00  0.20450754160E+01  0.19896189664E+02  0.51100000000E-03 0.  1.
        -12    1    4    4    0    0 -0.41988310386E+01  0.74163843518E+00  0.53827421945E+01  0.68668859894E+01  0.00000000000E+00 0.  1.
</event>
<event>
 8    1  0.2516265E-006  0.9118800E+02  0.7816164E-02  0.1184000E+00
        -11   -1    0    0    0    0  0.00000000000E+00  0.00000000000E+00  0.45593999997E+02  0.45594000000E+02  0.51100000000E-03 0. -1.
         11   -1    0    0    0    0 -0.00000000000E+00 -0.00000000000E+00 -0.45593999997E+02  0.45594000000E+02  0.51100000000E-03 0.  1.
         23    2    1    2    0    0  0.35527136788E-14  0.71054273576E-14  0.00000000000E+00  0.91188000000E+02  0.91188000000E+02 0.  0.
    9900012    2    3    3    0    0 -0.22814043579E+02 -0.27174097260E+02 -0.98421676198E+01  0.54367076468E+02  0.39999982423E+02 0.  0.
         12    1    3    3    0    0  0.22814043579E+02  0.27174097260E+02  0.98421676198E+01  0.36820923532E+02  0.00000000000E+00 0. -1.
         11    1    4    4    0    0 -0.55616756644E+01 -0.83619042882E+01 -0.21022659260E+01  0.10260272989E+02  0.51100000000E-03 0. -1.
        -11    1    4    4    0    0 -0.74309344521E+01 -0.25367762422E+02 -0.14853734883E+02  0.30321207056E+02  0.51100000000E-03 0.  1.
         12    1    4    4    0    0 -0.98214334627E+01  0.65555694498E+01  0.71138331893E+01  0.13785596422E+02  0.00000000000E+00 0. -1.
</event>
<event>
 8    1  0.2516265E-006  0.9118800E+02  0.7816164E-02  0.1184000E+00
        -11   -1    0    0    0    0  0.00000000000E+00  0.00000000000E+00  0.45593999997E+02  0.45594000000E+02  0.51100000000E-03 0. -1.
         11   -1    0    0    0    0 -0.00000000000E+00 -0.00000000000E+00 -0.45593999997E+02  0.45594000000E+02  0.51100000000E-03 0.  1.
         23    2    1    2    0    0  0.00000000000E+00  0.88817841970E-15  0.00000000000E+00  0.91188000000E+02  0.91188000000E+02 0.  0.
    9900012    2    3    3    0    0 -0.11857331976E+02 -0.41266983487E+01 -0.34614364295E+02  0.54367079637E+02  0.39999989648E+02 0.  0.
         12    1    3    3    0    0  0.11857331976E+02  0.41266983487E+01  0.34614364295E+02  0.36820920363E+02  0.00000000000E+00 0. -1.
         11    1    4    4    0    0  0.29143419228E+01  0.11151562720E+02 -0.16928344585E+02  0.20479736097E+02  0.51100000000E-03 0. -1.
        -11    1    4    4    0    0 -0.10486947059E+02 -0.15855754530E+02 -0.21083790032E+02  0.28388504940E+02  0.51100000000E-03 0.  1.
         12    1    4    4    0    0 -0.42847268397E+01  0.57749346195E+00  0.33977703223E+01  0.54988386003E+01  0.00000000000E+00 0. -1.
</event>
<event>
 8    1  0.2516265E-006  0.9118800E+02  0.7816164E-02  0.1184000E+00
        -11   -1    0    0    0    0  0.00000000000E+00  0.00000000000E+00  0.45593999997E+02  0.45594000000E+02  0.51100000000E-03 0. -1.
         11   -1    0    0    0    0 -0.00000000000E+00 -0.00000000000E+00 -0.45593999997E+02  0.45594000000E+02  0.51100000000E-03 0.  1.
         23    2    1    2    0    0  0.71054273576E-14  0.00000000000E+00  0.88817841970E-15  0.91188000000E+02  0.91188000000E+02 0.  0.
    9900012    2    3    3    0    0  0.33772817746E+02 -0.12668336755E+02  0.73952713671E+01  0.54367081852E+02  0.39999994699E+02 0.  0.
        -12    1    3    3    0    0 -0.33772817746E+02  0.12668336755E+02 -0.73952713671E+01  0.36820918148E+02  0.00000000000E+00 0.  1.
         11    1    4    4    0    0  0.34035180738E+01 -0.47968773369E+01  0.27919241923E+01  0.65106688152E+01  0.51100000000E-03 0. -1.
        -11    1    4    4    0    0  0.17935605865E+02 -0.22267832257E+02  0.20952323899E+01  0.28669361873E+02  0.51100000000E-03 0.  1.
        -12    1    4    4    0    0  0.12433693808E+02  0.14396372839E+02  0.25081147848E+01  0.19187051164E+02  0.00000000000E+00 0.  1.
</event>
<event>
 8    1  0.2516265E-006  0.9118800E+02  0.7816164E-02  0.1184000E+00
        -11   -1    0    0    0    0  0.00000000000E+00  0.00000000000E+00  0.45593999997E+02  0.45594000000E+02  0.51100000000E-03 0. -1.
         11   -1    0    0    0    0 -0.00000000000E+00 -0.00000000000E+00 -0.45593999997E+02  0.45594000000E+02  0.51100000000E-03 0.  1.
         23    2    1    2    0    0  0.00000000000E+00  0.00000000000E+00  0.17763568394E-14  0.91188000000E+02  0.91188000000E+02 0.  0.
    9900012    2    3    3    0    0 -0.11223168074E+02  0.34723615993E+02 -0.49082074280E+01  0.54367088694E+02  0.40000010296E+02 0.  0.
        -12    1    3    3    0    0  0.11223168074E+02 -0.34723615993E+02  0.49082074280E+01  0.36820911306E+02  0.00000000000E+00 0.  1.
         11    1    4    4    0    0 -0.45281486222E+01  0.31022374669E+02 -0.16820344353E+02  0.35578305813E+02  0.51100000000E-03 0. -1.
        -11    1    4    4    0    0 -0.91979725154E+01  0.44165845319E+01  0.12484294222E+02  0.16123477287E+02  0.51100000000E-03 0.  1.
         12    1    4    4    0    0  0.25029530632E+01 -0.71534320860E+00 -0.57215729695E+00  0.26653055951E+01  0.00000000000E+00 0. -1.
</event>
<event>
 8    1  0.2516265E-006  0.9118800E+02  0.7816164E-02  0.1184000E+00
        -11   -1    0    0    0    0  0.00000000000E+00  0.00000000000E+00  0.45593999997E+02  0.45594000000E+02  0.51100000000E-03 0. -1.
         11   -1    0    0    0    0 -0.00000000000E+00 -0.00000000000E+00 -0.45593999997E+02  0.45594000000E+02  0.51100000000E-03 0.  1.
         23    2    1    2    0    0  0.17763568394E-14  0.88817841970E-15  0.00000000000E+00  0.91188000000E+02  0.91188000000E+02 0.  0.
    9900012    2    3    3    0    0  0.91905285676E+01  0.31418240174E+01  0.35516803607E+02  0.54367079154E+02  0.39999988547E+02 0.  0.
        -12    1    3    3    0    0 -0.91905285676E+01 -0.31418240174E+01 -0.35516803607E+02  0.36820920846E+02  0.00000000000E+00 0.  1.
         11    1    4    4    0    0  0.15434317628E+02 -0.16051787316E+01  0.31413412842E+02  0.35037084155E+02  0.51100000000E-03 0. -1.
        -11    1    4    4    0    0 -0.10695148353E+01 -0.45669336796E+01 -0.38223343159E+01  0.60507012073E+01  0.51100000000E-03 0.  1.
         12    1    4    4    0    0 -0.51742742253E+01  0.93139364286E+01  0.79257250803E+01  0.13279293792E+02  0.00000000000E+00 0. -1.
</event>
<event>
 8    1  0.2516265E-006  0.9118800E+02  0.7816164E-02  0.1184000E+00
        -11   -1    0    0    0    0  0.00000000000E+00  0.00000000000E+00  0.45593999997E+02  0.45594000000E+02  0.51100000000E-03 0. -1.
         11   -1    0    0    0    0 -0.00000000000E+00 -0.00000000000E+00 -0.45593999997E+02  0.45594000000E+02  0.51100000000E-03 0.  1.
         23    2    1    2    0    0  0.17763568394E-14 -0.35527136788E-14  0.35527136788E-14  0.91188000000E+02  0.91188000000E+02 0.  0.
    9900012    2    3    3    0    0  0.12225559752E+02 -0.22997337918E+02  0.26027561672E+02  0.54367138669E+02  0.40000124223E+02 0.  0.
        -12    1    3    3    0    0 -0.12225559752E+02  0.22997337918E+02 -0.26027561672E+02  0.36820861331E+02  0.00000000000E+00 0.  1.
         11    1    4    4    0    0  0.94858448776E+01  0.68048932085E+01  0.10166388993E+02  0.15480416340E+02  0.51100000000E-03 0. -1.
        -11    1    4    4    0    0 -0.11986847972E+01 -0.21819708224E+02  0.19483183637E+02  0.29276798956E+02  0.51100000000E-03 0.  1.
         12    1    4    4    0    0  0.39383996719E+01 -0.79825229023E+01 -0.36220109581E+01  0.96099233734E+01  0.00000000000E+00 0. -1.
</event>
<event>
 8    1  0.2516265E-006  0.9118800E+02  0.7816164E-02  0.1184000E+00
        -11   -1    0    0    0    0  0.00000000000E+00  0.00000000000E+00  0.45593999997E+02  0.45594000000E+02  0.51100000000E-03 0. -1.
         11   -1    0    0    0    0 -0.00000000000E+00 -0.00000000000E+00 -0.45593999997E+02  0.45594000000E+02  0.51100000000E-03 0.  1.
         23    2    1    2    0    0  0.00000000000E+00  0.00000000000E+00 -0.17763568394E-14  0.91188000000E+02  0.91188000000E+02 0.  0.
    9900012    2    3    3    0    0 -0.27564686023E+02 -0.22445171407E+02  0.96011790867E+01  0.54367078300E+02  0.39999986599E+02 0.  0.
        -12    1    3    3    0    0  0.27564686023E+02  0.22445171407E+02 -0.96011790867E+01  0.36820921700E+02  0.00000000000E+00 0.  1.
         11    1    4    4    0    0 -0.16226729425E+01 -0.37084264570E+01  0.64814466572E+01  0.76416389143E+01  0.51100000000E-03 0. -1.
        -11    1    4    4    0    0 -0.15841203920E+02 -0.28189309264E+02  0.51511328623E+01  0.32743168271E+02  0.51100000000E-03 0.  1.
        -12    1    4    4    0    0 -0.10100809160E+02  0.94525643137E+01 -0.20314004329E+01  0.13982271114E+02  0.00000000000E+00 0.  1.
</event>
<event>
 8    1  0.2516265E-006  0.9118800E+02  0.7816164E-02  0.1184000E+00
        -11   -1    0    0    0    0  0.00000000000E+00  0.00000000000E+00  0.45593999997E+02  0.45594000000E+02  0.51100000000E-03 0.  1.
         11   -1    0    0    0    0 -0.00000000000E+00 -0.00000000000E+00 -0.45593999997E+02  0.45594000000E+02  0.51100000000E-03 0. -1.
         23    2    1    2    0    0  0.00000000000E+00  0.00000000000E+00  0.35527136788E-14  0.91188000000E+02  0.91188000000E+02 0.  0.
    9900012    2    3    3    0    0 -0.17474375948E+02  0.24656885935E+02  0.21034849188E+02  0.54367072267E+02  0.39999972846E+02 0.  0.
         12    1    3    3    0    0  0.17474375948E+02 -0.24656885935E+02 -0.21034849188E+02  0.36820927733E+02  0.00000000000E+00 0. -1.
         11    1    4    4    0    0 -0.12433221986E+02  0.15218628424E+02  0.22414480667E+02  0.29809404621E+02  0.51100000000E-03 0. -1.
        -11    1    4    4    0    0 -0.11741581830E+02  0.10600072483E+02  0.34831810639E+01  0.16197494593E+02  0.51100000000E-03 0.  1.
         12    1    4    4    0    0  0.67004278679E+01 -0.11618149716E+01 -0.48628125424E+01  0.83601730522E+01  0.00000000000E+00 0. -1.
</event>
<event>
 8    1  0.2516265E-006  0.9118800E+02  0.7816164E-02  0.1184000E+00
        -11   -1    0    0    0    0  0.00000000000E+00  0.00000000000E+00  0.45593999997E+02  0.45594000000E+02  0.51100000000E-03 0.  1.
         11   -1    0    0    0    0 -0.00000000000E+00 -0.00000000000E+00 -0.45593999997E+02  0.45594000000E+02  0.51100000000E-03 0. -1.
         23    2    1    2    0    0  0.00000000000E+00  0.00000000000E+00  0.00000000000E+00  0.91188000000E+02  0.91188000000E+02 0.  0.
    9900012    2    3    3    0    0 -0.24954167297E+02  0.14604328207E+02  0.22798537253E+02  0.54367215533E+02  0.40000299450E+02 0.  0.
         12    1    3    3    0    0  0.24954167297E+02 -0.14604328207E+02 -0.22798537253E+02  0.36820784467E+02  0.00000000000E+00 0. -1.
         11    1    4    4    0    0  0.34786120029E+01 -0.40320303610E+01  0.18340867371E+01  0.56322184545E+01  0.51100000000E-03 0. -1.
        -11    1    4    4    0    0 -0.19881936914E+02  0.24165826096E+02  0.22354273490E+02  0.38457666465E+02  0.51100000000E-03 0.  1.
         12    1    4    4    0    0 -0.85508423859E+01 -0.55294675280E+01 -0.13898229743E+01  0.10277330614E+02  0.00000000000E+00 0. -1.
</event>
<event>
 8    1  0.2516265E-006  0.9118800E+02  0.7816164E-02  0.1184000E+00
        -11   -1    0    0    0    0  0.00000000000E+00  0.00000000000E+00  0.45593999997E+02  0.45594000000E+02  0.51100000000E-03 0.  1.
         11   -1    0    0    0    0 -0.00000000000E+00 -0.00000000000E+00 -0.45593999997E+02  0.45594000000E+02  0.51100000000E-03 0. -1.
         23    2    1    2    0    0  0.71054273576E-14  0.00000000000E+00  0.44408920985E-15  0.91188000000E+02  0.91188000000E+02 0.  0.
    9900012    2    3    3    0    0 -0.36143996190E+02  0.66466120979E+01  0.22834956652E+01  0.54367078428E+02  0.39999986893E+02 0.  0.
         12    1    3    3    0    0  0.36143996190E+02 -0.66466120979E+01 -0.22834956652E+01  0.36820921572E+02  0.00000000000E+00 0. -1.
         11    1    4    4    0    0  0.24767334891E+01 -0.79076644329E+01 -0.24217573669E+01  0.86330918311E+01  0.51100000000E-03 0. -1.
        -11    1    4    4    0    0 -0.60324575266E+01  0.65138429050E+01 -0.57503926440E+01  0.10577698664E+02  0.51100000000E-03 0.  1.
        -12    1    4    4    0    0 -0.32588272152E+02  0.80404336257E+01  0.10455645676E+02  0.35156287933E+02  0.00000000000E+00 0.  1.
</event>
<event>
 8    1  0.2516265E-006  0.9118800E+02  0.7816164E-02  0.1184000E+00
        -11   -1    0    0    0    0  0.00000000000E+00  0.00000000000E+00  0.45593999997E+02  0.45594000000E+02  0.51100000000E-03 0.  1.
         11   -1    0    0    0    0 -0.00000000000E+00 -0.00000000000E+00 -0.45593999997E+02  0.45594000000E+02  0.51100000000E-03 0. -1.
         23    2    1    2    0    0  0.00000000000E+00 -0.35527136788E-14  0.00000000000E+00  0.91188000000E+02  0.91188000000E+02 0.  0.
    9900012    2    3    3    0    0  0.16242284438E+02 -0.25291178954E+02 -0.21267919280E+02  0.54367083021E+02  0.39999997363E+02 0.  0.
        -12    1    3    3    0    0 -0.16242284438E+02  0.25291178954E+02  0.21267919280E+02  0.36820916979E+02  0.00000000000E+00 0.  1.
         11    1    4    4    0    0  0.11917120337E+02 -0.86451949912E+01 -0.14683621150E+02  0.20793409627E+02  0.51100000000E-03 0. -1.
        -11    1    4    4    0    0  0.66770459723E+01  0.66985783475E+01 -0.20078361903E+01  0.96687797173E+01  0.51100000000E-03 0.  1.
        -12    1    4    4    0    0 -0.23518818712E+01 -0.23344562311E+02 -0.45764619402E+01  0.23904893677E+02  0.00000000000E+00 0.  1.
</event>
<event>
 8    1  0.2516265E-006  0.9118800E+02  0.7816164E-02  0.1184000E+00
        -11   -1    0    0    0    0  0.00000000000E+00  0.00000000000E+00  0.45593999997E+02  0.45594000000E+02  0.51100000000E-03 0.  1.
         11   -1    0    0    0    0 -0.00000000000E+00 -0.00000000000E+00 -0.45593999997E+02  0.45594000000E+02  0.51100000000E-03 0. -1.
         23    2    1    2    0    0  0.00000000000E+00  0.00000000000E+00 -0.35527136788E-14  0.91188000000E+02  0.91188000000E+02 0.  0.
    9900012    2    3    3    0    0 -0.71336444506E+01 -0.21844230590E+02  0.28770135918E+02  0.54367081842E+02  0.39999994676E+02 0.  0.
         12    1    3    3    0    0  0.71336444506E+01  0.21844230590E+02 -0.28770135918E+02  0.36820918158E+02  0.00000000000E+00 0. -1.
         11    1    4    4    0    0  0.22934291110E+01  0.85622404417E+01  0.34141034818E+01  0.94988357873E+01  0.51100000000E-03 0. -1.
        -11    1    4    4    0    0 -0.86669820294E+00 -0.32882713278E+01  0.13732352804E+02  0.14147134265E+02  0.51100000000E-03 0.  1.
         12    1    4    4    0    0 -0.85603753586E+01 -0.27118199704E+02  0.11623679632E+02  0.30721111790E+02  0.00000000000E+00 0. -1.
</event>
<event>
 8    1  0.2516265E-006  0.9118800E+02  0.7816164E-02  0.1184000E+00
        -11   -1    0    0    0    0  0.00000000000E+00  0.00000000000E+00  0.45593999997E+02  0.45594000000E+02  0.51100000000E-03 0.  1.
         11   -1    0    0    0    0 -0.00000000000E+00 -0.00000000000E+00 -0.45593999997E+02  0.45594000000E+02  0.51100000000E-03 0. -1.
         23    2    1    2    0    0  0.35527136788E-14  0.35527136788E-14  0.00000000000E+00  0.91188000000E+02  0.91188000000E+02 0.  0.
    9900012    2    3    3    0    0 -0.27076716324E+02 -0.21532713778E+02 -0.12608487771E+02  0.54367078048E+02  0.39999986026E+02 0.  0.
        -12    1    3    3    0    0  0.27076716324E+02  0.21532713778E+02  0.12608487771E+02  0.36820921952E+02  0.00000000000E+00 0.  1.
         11    1    4    4    0    0  0.20737240091E+01 -0.32548297068E+01 -0.18919373711E+02  0.19308986239E+02  0.51100000000E-03 0. -1.
        -11    1    4    4    0    0 -0.25308950982E+02 -0.16600069176E+02  0.50919922885E+01  0.30692567214E+02  0.51100000000E-03 0.  1.
         12    1    4    4    0    0 -0.38414893507E+01 -0.16778148954E+01  0.12188936520E+01  0.43655245950E+01  0.00000000000E+00 0. -1.
</event>
<event>
 8    1  0.2516265E-006  0.9118800E+02  0.7816164E-02  0.1184000E+00
        -11   -1    0    0    0    0  0.00000000000E+00  0.00000000000E+00  0.45593999997E+02  0.45594000000E+02  0.51100000000E-03 0. -1.
         11   -1    0    0    0    0 -0.00000000000E+00 -0.00000000000E+00 -0.45593999997E+02  0.45594000000E+02  0.51100000000E-03 0.  1.
         23    2    1    2    0    0 -0.71054273576E-14  0.00000000000E+00 -0.44408920985E-15  0.91188000000E+02  0.91188000000E+02 0.  0.
    9900012    2    3    3    0    0 -0.32873203173E+02 -0.16198148290E+02 -0.35710970145E+01  0.54367078925E+02  0.39999988026E+02 0.  0.
         12    1    3    3    0    0  0.32873203173E+02  0.16198148290E+02  0.35710970145E+01  0.36820921075E+02  0.00000000000E+00 0. -1.
         11    1    4    4    0    0 -0.99064630392E+01 -0.92986200585E+00 -0.59807820597E+01  0.11609151890E+02  0.51100000000E-03 0.  1.
        -11    1    4    4    0    0  0.62505144358E+01 -0.78957334649E+01 -0.56747944843E+01  0.11559188136E+02  0.51100000000E-03 0. -1.
        -12    1    4    4    0    0 -0.29217254570E+02 -0.73725528195E+01  0.80844795294E+01  0.31198738900E+02  0.00000000000E+00 0.  1.
</event>
<event>
 8    1  0.2516265E-006  0.9118800E+02  0.7816164E-02  0.1184000E+00
        -11   -1    0    0    0    0  0.00000000000E+00  0.00000000000E+00  0.45593999997E+02  0.45594000000E+02  0.51100000000E-03 0. -1.
         11   -1    0    0    0    0 -0.00000000000E+00 -0.00000000000E+00 -0.45593999997E+02  0.45594000000E+02  0.51100000000E-03 0.  1.
         23    2    1    2    0    0 -0.17763568394E-14  0.00000000000E+00  0.00000000000E+00  0.91188000000E+02  0.91188000000E+02 0.  0.
    9900012    2    3    3    0    0  0.14030715526E+02 -0.15690273792E+02 -0.30211686117E+02  0.54366923863E+02  0.39999634528E+02 0.  0.
         12    1    3    3    0    0 -0.14030715526E+02  0.15690273792E+02  0.30211686117E+02  0.36821076137E+02  0.00000000000E+00 0. -1.
         11    1    4    4    0    0 -0.30359392995E+01 -0.47278880513E+01 -0.26873912802E+01  0.62283163864E+01  0.51100000000E-03 0. -1.
        -11    1    4    4    0    0  0.73548444474E+01 -0.15787502649E+02 -0.31979537235E+02  0.36414691798E+02  0.51100000000E-03 0.  1.
        -12    1    4    4    0    0  0.97118103785E+01  0.48251169082E+01  0.44552423977E+01  0.11723915678E+02  0.00000000000E+00 0.  1.
</event>
<event>
 8    1  0.2516265E-006  0.9118800E+02  0.7816164E-02  0.1184000E+00
        -11   -1    0    0    0    0  0.00000000000E+00  0.00000000000E+00  0.45593999997E+02  0.45594000000E+02  0.51100000000E-03 0.  1.
         11   -1    0    0    0    0 -0.00000000000E+00 -0.00000000000E+00 -0.45593999997E+02  0.45594000000E+02  0.51100000000E-03 0. -1.
         23    2    1    2    0    0  0.00000000000E+00 -0.22204460493E-14  0.00000000000E+00  0.91188000000E+02  0.91188000000E+02 0.  0.
    9900012    2    3    3    0    0 -0.53179107551E+01 -0.17321446538E+01 -0.36393629410E+02  0.54367126008E+02  0.40000095359E+02 0.  0.
        -12    1    3    3    0    0  0.53179107551E+01  0.17321446538E+01  0.36393629410E+02  0.36820873992E+02  0.00000000000E+00 0.  1.
         11    1    4    4    0    0 -0.45427902261E+01 -0.16502972096E+02 -0.91103231070E+01  0.19390281546E+02  0.51100000000E-03 0. -1.
        -11    1    4    4    0    0 -0.48616352404E+01  0.53272160254E+01 -0.22503596382E+02  0.23631051144E+02  0.51100000000E-03 0.  1.
        -12    1    4    4    0    0  0.40865147114E+01  0.94436114169E+01 -0.47797099214E+01  0.11345793318E+02  0.00000000000E+00 0.  1.
</event>
<event>
 8    1  0.2516265E-006  0.9118800E+02  0.7816164E-02  0.1184000E+00
        -11   -1    0    0    0    0  0.00000000000E+00  0.00000000000E+00  0.45593999997E+02  0.45594000000E+02  0.51100000000E-03 0.  1.
         11   -1    0    0    0    0 -0.00000000000E+00 -0.00000000000E+00 -0.45593999997E+02  0.45594000000E+02  0.51100000000E-03 0. -1.
         23    2    1    2    0    0  0.00000000000E+00  0.88817841970E-15  0.00000000000E+00  0.91188000000E+02  0.91188000000E+02 0.  0.
    9900012    2    3    3    0    0 -0.23148035291E+02 -0.63087587120E+01  0.27931123973E+02  0.54367086640E+02  0.40000005613E+02 0.  0.
         12    1    3    3    0    0  0.23148035291E+02  0.63087587120E+01 -0.27931123973E+02  0.36820913360E+02  0.00000000000E+00 0. -1.
         11    1    4    4    0    0 -0.33016751037E+01  0.58500696518E+01  0.15728526418E+02  0.17102950534E+02  0.51100000000E-03 0. -1.
        -11    1    4    4    0    0  0.54959347149E+01  0.11677744942E+01  0.54891997301E+01  0.78549544619E+01  0.51100000000E-03 0.  1.
        -12    1    4    4    0    0 -0.25342294902E+02 -0.13326602858E+02  0.67133978241E+01  0.29409181644E+02  0.00000000000E+00 0.  1.
</event>
<event>
 8    1  0.2516265E-006  0.9118800E+02  0.7816164E-02  0.1184000E+00
        -11   -1    0    0    0    0  0.00000000000E+00  0.00000000000E+00  0.45593999997E+02  0.45594000000E+02  0.51100000000E-03 0.  1.
         11   -1    0    0    0    0 -0.00000000000E+00 -0.00000000000E+00 -0.45593999997E+02  0.45594000000E+02  0.51100000000E-03 0. -1.
         23    2    1    2    0    0  0.00000000000E+00  0.00000000000E+00  0.00000000000E+00  0.91188000000E+02  0.91188000000E+02 0.  0.
    9900012    2    3    3    0    0  0.24958021583E+02 -0.20737308787E+02  0.17402351863E+02  0.54367072969E+02  0.39999974447E+02 0.  0.
         12    1    3    3    0    0 -0.24958021583E+02  0.20737308787E+02 -0.17402351863E+02  0.36820927031E+02  0.00000000000E+00 0. -1.
         11    1    4    4    0    0  0.84492066310E+01 -0.27793564099E+01  0.88562426640E+01  0.12551770757E+02  0.51100000000E-03 0. -1.
        -11    1    4    4    0    0  0.19139406149E+02  0.33773317149E+01  0.41818519858E+01  0.19879917594E+02  0.51100000000E-03 0.  1.
         12    1    4    4    0    0 -0.26305911971E+01 -0.21335284092E+02  0.43642572136E+01  0.21935384618E+02  0.00000000000E+00 0. -1.
</event>
<event>
 8    1  0.2516265E-006  0.9118800E+02  0.7816164E-02  0.1184000E+00
        -11   -1    0    0    0    0  0.00000000000E+00  0.00000000000E+00  0.45593999997E+02  0.45594000000E+02  0.51100000000E-03 0.  1.
         11   -1    0    0    0    0 -0.00000000000E+00 -0.00000000000E+00 -0.45593999997E+02  0.45594000000E+02  0.51100000000E-03 0. -1.
         23    2    1    2    0    0  0.00000000000E+00  0.00000000000E+00  0.00000000000E+00  0.91188000000E+02  0.91188000000E+02 0.  0.
    9900012    2    3    3    0    0 -0.10750578107E+02 -0.32676497406E+02 -0.13131838720E+02  0.54367168932E+02  0.40000193213E+02 0.  0.
        -12    1    3    3    0    0  0.10750578107E+02  0.32676497406E+02  0.13131838720E+02  0.36820831068E+02  0.00000000000E+00 0.  1.
         11    1    4    4    0    0 -0.49441585698E+01 -0.86811683539E+01 -0.14213091665E+02  0.17372949171E+02  0.51100000000E-03 0. -1.
        -11    1    4    4    0    0 -0.30624710276E+01 -0.27832502545E+02 -0.58547740159E+01  0.28606036176E+02  0.51100000000E-03 0.  1.
        -12    1    4    4    0    0 -0.27439485100E+01  0.38371734923E+01  0.69360269612E+01  0.83881835842E+01  0.00000000000E+00 0.  1.
</event>
<event>
 8    1  0.2516265E-006  0.9118800E+02  0.7816164E-02  0.1184000E+00
        -11   -1    0    0    0    0  0.00000000000E+00  0.00000000000E+00  0.45593999997E+02  0.45594000000E+02  0.51100000000E-03 0.  1.
         11   -1    0    0    0    0 -0.00000000000E+00 -0.00000000000E+00 -0.45593999997E+02  0.45594000000E+02  0.51100000000E-03 0. -1.
         23    2    1    2    0    0  0.00000000000E+00  0.00000000000E+00 -0.88817841970E-15  0.91188000000E+02  0.91188000000E+02 0.  0.
    9900012    2    3    3    0    0  0.25461909288E+02  0.26103087677E+02 -0.51087913719E+01  0.54367085289E+02  0.40000002534E+02 0.  0.
         12    1    3    3    0    0 -0.25461909288E+02 -0.26103087677E+02  0.51087913719E+01  0.36820914711E+02  0.00000000000E+00 0. -1.
         11    1    4    4    0    0  0.17063263583E+01  0.16897310808E+02 -0.11675125342E+02  0.20609202173E+02  0.51100000000E-03 0. -1.
        -11    1    4    4    0    0  0.11358559463E+02 -0.61197077035E+01 -0.23875353543E+00  0.12904444931E+02  0.51100000000E-03 0.  1.
        -12    1    4    4    0    0  0.12397023467E+02  0.15325484572E+02  0.68050875055E+01  0.20853438185E+02  0.00000000000E+00 0.  1.
</event>
<event>
 8    1  0.2516265E-006  0.9118800E+02  0.7816164E-02  0.1184000E+00
        -11   -1    0    0    0    0  0.00000000000E+00  0.00000000000E+00  0.45593999997E+02  0.45594000000E+02  0.51100000000E-03 0.  1.
         11   -1    0    0    0    0 -0.00000000000E+00 -0.00000000000E+00 -0.45593999997E+02  0.45594000000E+02  0.51100000000E-03 0. -1.
         23    2    1    2    0    0  0.17763568394E-14 -0.17763568394E-14 -0.71054273576E-14  0.91188000000E+02  0.91188000000E+02 0.  0.
    9900012    2    3    3    0    0  0.12671936789E+02  0.11877047636E+02  0.32467480184E+02  0.54367088658E+02  0.40000010214E+02 0.  0.
         12    1    3    3    0    0 -0.12671936789E+02 -0.11877047636E+02 -0.32467480184E+02  0.36820911342E+02  0.00000000000E+00 0. -1.
         11    1    4    4    0    0 -0.44380886414E+01  0.97055913150E+00  0.97398590953E+01  0.10747254127E+02  0.51100000000E-03 0. -1.
        -11    1    4    4    0    0 -0.32103914238E+01  0.12006259625E+02 -0.87103409117E+00  0.12458554648E+02  0.51100000000E-03 0.  1.
        -12    1    4    4    0    0  0.20320416854E+02 -0.10997711201E+01  0.23598655180E+02  0.31161279883E+02  0.00000000000E+00 0.  1.
</event>
<event>
 8    1  0.2516265E-006  0.9118800E+02  0.7816164E-02  0.1184000E+00
        -11   -1    0    0    0    0  0.00000000000E+00  0.00000000000E+00  0.45593999997E+02  0.45594000000E+02  0.51100000000E-03 0.  1.
         11   -1    0    0    0    0 -0.00000000000E+00 -0.00000000000E+00 -0.45593999997E+02  0.45594000000E+02  0.51100000000E-03 0. -1.
         23    2    1    2    0    0  0.17763568394E-14  0.00000000000E+00 -0.35527136788E-14  0.91188000000E+02  0.91188000000E+02 0.  0.
    9900012    2    3    3    0    0  0.53151700562E+01 -0.24015742840E+02 -0.27400085239E+02  0.54367195990E+02  0.40000254897E+02 0.  0.
        -12    1    3    3    0    0 -0.53151700562E+01  0.24015742840E+02  0.27400085239E+02  0.36820804010E+02  0.00000000000E+00 0.  1.
         11    1    4    4    0    0  0.11346532789E+02 -0.14094685526E+02 -0.49931084131E+01  0.18770591315E+02  0.51100000000E-03 0. -1.
        -11    1    4    4    0    0  0.20425395233E+01  0.57778442471E+01  0.10720432607E+01  0.62213124710E+01  0.51100000000E-03 0.  1.
         12    1    4    4    0    0 -0.80739022564E+01 -0.15698901561E+02 -0.23479020086E+02  0.29375292204E+02  0.00000000000E+00 0. -1.
</event>
<event>
 8    1  0.2516265E-006  0.9118800E+02  0.7816164E-02  0.1184000E+00
        -11   -1    0    0    0    0  0.00000000000E+00  0.00000000000E+00  0.45593999997E+02  0.45594000000E+02  0.51100000000E-03 0.  1.
         11   -1    0    0    0    0 -0.00000000000E+00 -0.00000000000E+00 -0.45593999997E+02  0.45594000000E+02  0.51100000000E-03 0. -1.
         23    2    1    2    0    0 -0.35527136788E-14  0.00000000000E+00  0.35527136788E-14  0.91188000000E+02  0.91188000000E+02 0.  0.
    9900012    2    3    3    0    0 -0.16431505050E+02 -0.20003970519E+02  0.26184476024E+02  0.54367082312E+02  0.39999995746E+02 0.  0.
         12    1    3    3    0    0  0.16431505050E+02  0.20003970519E+02 -0.26184476024E+02  0.36820917688E+02  0.00000000000E+00 0. -1.
         11    1    4    4    0    0  0.68832624288E+01 -0.52621614046E+01  0.16287836214E+02  0.18448936368E+02  0.51100000000E-03 0. -1.
        -11    1    4    4    0    0 -0.16731727098E+02 -0.19324543923E+02  0.10988097962E+02  0.27823137613E+02  0.51100000000E-03 0.  1.
        -12    1    4    4    0    0 -0.65830403807E+01  0.45827348083E+01 -0.10914581520E+01  0.80950083307E+01  0.00000000000E+00 0.  1.
</event>
<event>
 8    1  0.2516265E-006  0.9118800E+02  0.7816164E-02  0.1184000E+00
        -11   -1    0    0    0    0  0.00000000000E+00  0.00000000000E+00  0.45593999997E+02  0.45594000000E+02  0.51100000000E-03 0.  1.
         11   -1    0    0    0    0 -0.00000000000E+00 -0.00000000000E+00 -0.45593999997E+02  0.45594000000E+02  0.51100000000E-03 0. -1.
         23    2    1    2    0    0  0.00000000000E+00  0.00000000000E+00  0.00000000000E+00  0.91188000000E+02  0.91188000000E+02 0.  0.
    9900012    2    3    3    0    0 -0.57859731749E+01  0.13129616677E+02  0.33910416382E+02  0.54367073085E+02  0.39999974711E+02 0.  0.
         12    1    3    3    0    0  0.57859731749E+01 -0.13129616677E+02 -0.33910416382E+02  0.36820926915E+02  0.00000000000E+00 0. -1.
         11    1    4    4    0    0 -0.13948640834E+01  0.35006545890E+01  0.83773075936E+01  0.91858320876E+01  0.51100000000E-03 0.  1.
        -11    1    4    4    0    0  0.13430565234E+02  0.45357699781E+01  0.69934253118E+00  0.14193039563E+02  0.51100000000E-03 0. -1.
         12    1    4    4    0    0 -0.17821674325E+02  0.50931921102E+01  0.24833766258E+02  0.30988201435E+02  0.00000000000E+00 0. -1.
</event>
<event>
 8    1  0.2516265E-006  0.9118800E+02  0.7816164E-02  0.1184000E+00
        -11   -1    0    0    0    0  0.00000000000E+00  0.00000000000E+00  0.45593999997E+02  0.45594000000E+02  0.51100000000E-03 0. -1.
         11   -1    0    0    0    0 -0.00000000000E+00 -0.00000000000E+00 -0.45593999997E+02  0.45594000000E+02  0.51100000000E-03 0.  1.
         23    2    1    2    0    0  0.00000000000E+00  0.17763568394E-14 -0.35527136788E-14  0.91188000000E+02  0.91188000000E+02 0.  0.
    9900012    2    3    3    0    0  0.32040637443E+02  0.80152253318E+01  0.16276769067E+02  0.54367088874E+02  0.40000010706E+02 0.  0.
        -12    1    3    3    0    0 -0.32040637443E+02 -0.80152253318E+01 -0.16276769067E+02  0.36820911126E+02  0.00000000000E+00 0.  1.
         11    1    4    4    0    0  0.97595130359E+01 -0.13187924284E+01  0.69098535013E+01  0.12030518852E+02  0.51100000000E-03 0. -1.
        -11    1    4    4    0    0  0.51689370723E+01 -0.46244756723E+01 -0.10532013306E+02  0.12610590400E+02  0.51100000000E-03 0.  1.
         12    1    4    4    0    0  0.17112187335E+02  0.13958493433E+02  0.19898928872E+02  0.29725979623E+02  0.00000000000E+00 0. -1.
</event>
<event>
 8    1  0.2516265E-006  0.9118800E+02  0.7816164E-02  0.1184000E+00
        -11   -1    0    0    0    0  0.00000000000E+00  0.00000000000E+00  0.45593999997E+02  0.45594000000E+02  0.51100000000E-03 0.  1.
         11   -1    0    0    0    0 -0.00000000000E+00 -0.00000000000E+00 -0.45593999997E+02  0.45594000000E+02  0.51100000000E-03 0. -1.
         23    2    1    2    0    0  0.00000000000E+00  0.26645352591E-14  0.00000000000E+00  0.91188000000E+02  0.91188000000E+02 0.  0.
    9900012    2    3    3    0    0  0.13814174657E+02 -0.21117185044E+01  0.34065928962E+02  0.54367105218E+02  0.40000047966E+02 0.  0.
         12    1    3    3    0    0 -0.13814174657E+02  0.21117185044E+01 -0.34065928962E+02  0.36820894782E+02  0.00000000000E+00 0. -1.
         11    1    4    4    0    0  0.17017159108E+02 -0.11872903968E+02  0.28844157415E+02  0.35532168101E+02  0.51100000000E-03 0. -1.
        -11    1    4    4    0    0 -0.82746498746E+00  0.43108818403E+01  0.10184642581E+02  0.11090326655E+02  0.51100000000E-03 0.  1.
        -12    1    4    4    0    0 -0.23755194627E+01  0.54503036235E+01 -0.49628710343E+01  0.77446104620E+01  0.00000000000E+00 0.  1.
</event>
<event>
 8    1  0.2516265E-006  0.9118800E+02  0.7816164E-02  0.1184000E+00
        -11   -1    0    0    0    0  0.00000000000E+00  0.00000000000E+00  0.45593999997E+02  0.45594000000E+02  0.51100000000E-03 0. -1.
         11   -1    0    0    0    0 -0.00000000000E+00 -0.00000000000E+00 -0.45593999997E+02  0.45594000000E+02  0.51100000000E-03 0.  1.
         23    2    1    2    0    0  0.00000000000E+00  0.00000000000E+00 -0.17763568394E-14  0.91188000000E+02  0.91188000000E+02 0.  0.
    9900012    2    3    3    0    0  0.31017370336E+02 -0.17758077159E+02 -0.88518300669E+01  0.54367062173E+02  0.39999949836E+02 0.  0.
         12    1    3    3    0    0 -0.31017370336E+02  0.17758077159E+02  0.88518300669E+01  0.36820937827E+02  0.00000000000E+00 0. -1.
         11    1    4    4    0    0  0.33594782572E+02 -0.47155549151E+01  0.14035181466E+01  0.33953140321E+02  0.51100000000E-03 0. -1.
        -11    1    4    4    0    0  0.31705193692E+01 -0.11135911933E+02 -0.63102207210E+01  0.13186341928E+02  0.51100000000E-03 0.  1.
         12    1    4    4    0    0 -0.57479316053E+01 -0.19066103113E+01 -0.39451274924E+01  0.72275799235E+01  0.00000000000E+00 0. -1.
</event>
<event>
 8    1  0.2516265E-006  0.9118800E+02  0.7816164E-02  0.1184000E+00
        -11   -1    0    0    0    0  0.00000000000E+00  0.00000000000E+00  0.45593999997E+02  0.45594000000E+02  0.51100000000E-03 0. -1.
         11   -1    0    0    0    0 -0.00000000000E+00 -0.00000000000E+00 -0.45593999997E+02  0.45594000000E+02  0.51100000000E-03 0.  1.
         23    2    1    2    0    0  0.44408920985E-15  0.00000000000E+00  0.35527136788E-14  0.91188000000E+02  0.91188000000E+02 0.  0.
    9900012    2    3    3    0    0 -0.25733243855E+01  0.27652907704E+02 -0.24175876430E+02  0.54367105062E+02  0.40000047610E+02 0.  0.
         12    1    3    3    0    0  0.25733243855E+01 -0.27652907704E+02  0.24175876430E+02  0.36820894938E+02  0.00000000000E+00 0. -1.
         11    1    4    4    0    0 -0.12136061278E+01 -0.60962340984E+01 -0.12216064545E+02  0.13706536516E+02  0.51100000000E-03 0. -1.
        -11    1    4    4    0    0 -0.91588270826E+01  0.24310694032E+02 -0.11494190751E+02  0.28407928104E+02  0.51100000000E-03 0.  1.
        -12    1    4    4    0    0  0.77991088249E+01  0.94384477703E+01 -0.46562113286E+00  0.12252640443E+02  0.00000000000E+00 0.  1.
</event>
<event>
 8    1  0.2516265E-006  0.9118800E+02  0.7816164E-02  0.1184000E+00
        -11   -1    0    0    0    0  0.00000000000E+00  0.00000000000E+00  0.45593999997E+02  0.45594000000E+02  0.51100000000E-03 0.  1.
         11   -1    0    0    0    0 -0.00000000000E+00 -0.00000000000E+00 -0.45593999997E+02  0.45594000000E+02  0.51100000000E-03 0. -1.
         23    2    1    2    0    0  0.00000000000E+00  0.00000000000E+00 -0.17763568394E-14  0.91188000000E+02  0.91188000000E+02 0.  0.
    9900012    2    3    3    0    0  0.33149613418E+02  0.10593501207E+02  0.12027478656E+02  0.54367090446E+02  0.40000014290E+02 0.  0.
         12    1    3    3    0    0 -0.33149613418E+02 -0.10593501207E+02 -0.12027478656E+02  0.36820909554E+02  0.00000000000E+00 0. -1.
         11    1    4    4    0    0 -0.80523415030E+00 -0.26606554991E+01 -0.63579462956E+01  0.69390900758E+01  0.51100000000E-03 0. -1.
        -11    1    4    4    0    0  0.12239768297E+01 -0.16664471353E+01  0.10370479294E+02  0.10574592493E+02  0.51100000000E-03 0.  1.
         12    1    4    4    0    0  0.32730870739E+02  0.14920603841E+02  0.80149456569E+01  0.36853407877E+02  0.00000000000E+00 0. -1.
</event>
<event>
 8    1  0.2516265E-006  0.9118800E+02  0.7816164E-02  0.1184000E+00
        -11   -1    0    0    0    0  0.00000000000E+00  0.00000000000E+00  0.45593999997E+02  0.45594000000E+02  0.51100000000E-03 0.  1.
         11   -1    0    0    0    0 -0.00000000000E+00 -0.00000000000E+00 -0.45593999997E+02  0.45594000000E+02  0.51100000000E-03 0. -1.
         23    2    1    2    0    0  0.88817841970E-15 -0.35527136788E-14 -0.35527136788E-14  0.91188000000E+02  0.91188000000E+02 0.  0.
    9900012    2    3    3    0    0  0.65238123911E+01 -0.26291077010E+02 -0.24939853285E+02  0.54367120864E+02  0.40000083634E+02 0.  0.
        -12    1    3    3    0    0 -0.65238123911E+01  0.26291077010E+02  0.24939853285E+02  0.36820879136E+02  0.00000000000E+00 0.  1.
         11    1    4    4    0    0  0.19903531509E+01 -0.15631619983E+02  0.20643687650E+01  0.15892472043E+02  0.51100000000E-03 0.  1.
        -11    1    4    4    0    0  0.72811206739E+01 -0.35536163368E+01 -0.29393917357E+02  0.30490085031E+02  0.51100000000E-03 0. -1.
         12    1    4    4    0    0 -0.27476614337E+01 -0.71058406902E+01  0.23896953070E+01  0.79845637908E+01  0.00000000000E+00 0. -1.
</event>
<event>
 8    1  0.2516265E-006  0.9118800E+02  0.7816164E-02  0.1184000E+00
        -11   -1    0    0    0    0  0.00000000000E+00  0.00000000000E+00  0.45593999997E+02  0.45594000000E+02  0.51100000000E-03 0. -1.
         11   -1    0    0    0    0 -0.00000000000E+00 -0.00000000000E+00 -0.45593999997E+02  0.45594000000E+02  0.51100000000E-03 0.  1.
         23    2    1    2    0    0 -0.88817841970E-15 -0.17763568394E-14  0.00000000000E+00  0.91188000000E+02  0.91188000000E+02 0.  0.
    9900012    2    3    3    0    0 -0.26868695135E+01 -0.93427848105E+01 -0.35514575120E+02  0.54366919872E+02  0.39999625431E+02 0.  0.
         12    1    3    3    0    0  0.26868695135E+01  0.93427848105E+01  0.35514575120E+02  0.36821080128E+02  0.00000000000E+00 0. -1.
         11    1    4    4    0    0  0.60529946803E+01 -0.11616016152E+02 -0.29363391203E+02  0.32152438773E+02  0.51100000000E-03 0.  1.
        -11    1    4    4    0    0 -0.10293852104E+01  0.81508351785E+01 -0.89246545802E+01  0.12130342438E+02  0.51100000000E-03 0. -1.
         12    1    4    4    0    0 -0.77104789835E+01 -0.58776038366E+01  0.27734706634E+01  0.10084138661E+02  0.00000000000E+00 0. -1.
</event>
<event>
 8    1  0.2516265E-006  0.9118800E+02  0.7816164E-02  0.1184000E+00
        -11   -1    0    0    0    0  0.00000000000E+00  0.00000000000E+00  0.45593999997E+02  0.45594000000E+02  0.51100000000E-03 0. -1.
         11   -1    0    0    0    0 -0.00000000000E+00 -0.00000000000E+00 -0.45593999997E+02  0.45594000000E+02  0.51100000000E-03 0.  1.
         23    2    1    2    0    0 -0.66613381478E-15  0.00000000000E+00  0.17763568394E-14  0.91188000000E+02  0.91188000000E+02 0.  0.
    9900012    2    3    3    0    0 -0.11977162676E+01 -0.34853384215E+02  0.11814749061E+02  0.54367065589E+02  0.39999957624E+02 0.  0.
        -12    1    3    3    0    0  0.11977162676E+01  0.34853384215E+02 -0.11814749061E+02  0.36820934411E+02  0.00000000000E+00 0.  1.
         11    1    4    4    0    0 -0.46240457804E+01 -0.13138759316E+02  0.32118128812E+00  0.13932406591E+02  0.51100000000E-03 0. -1.
        -11    1    4    4    0    0 -0.62527542532E+01 -0.25664996545E+02  0.23045474308E+01  0.26516031425E+02  0.51100000000E-03 0.  1.
        -12    1    4    4    0    0  0.96790837660E+01  0.39503716455E+01  0.91890203419E+01  0.13918627574E+02  0.00000000000E+00 0.  1.
</event>
<event>
 8    1  0.2516265E-006  0.9118800E+02  0.7816164E-02  0.1184000E+00
        -11   -1    0    0    0    0  0.00000000000E+00  0.00000000000E+00  0.45593999997E+02  0.45594000000E+02  0.51100000000E-03 0.  1.
         11   -1    0    0    0    0 -0.00000000000E+00 -0.00000000000E+00 -0.45593999997E+02  0.45594000000E+02  0.51100000000E-03 0. -1.
         23    2    1    2    0    0  0.00000000000E+00  0.00000000000E+00  0.35527136788E-14  0.91188000000E+02  0.91188000000E+02 0.  0.
    9900012    2    3    3    0    0  0.27829434224E+02 -0.18330267999E+01  0.24040371038E+02  0.54367124995E+02  0.40000093051E+02 0.  0.
         12    1    3    3    0    0 -0.27829434224E+02  0.18330267999E+01 -0.24040371038E+02  0.36820875005E+02  0.00000000000E+00 0. -1.
         11    1    4    4    0    0  0.12669988314E+02  0.12322899289E+01 -0.12640436140E+01  0.12792378546E+02  0.51100000000E-03 0. -1.
        -11    1    4    4    0    0 -0.57616397837E+01 -0.94664706187E+01  0.77256424637E+01  0.13509112136E+02  0.51100000000E-03 0.  1.
         12    1    4    4    0    0  0.20921085694E+02  0.64011538898E+01  0.17578772188E+02  0.28065634313E+02  0.00000000000E+00 0. -1.
</event>
<event>
 8    1  0.2516265E-006  0.9118800E+02  0.7816164E-02  0.1184000E+00
        -11   -1    0    0    0    0  0.00000000000E+00  0.00000000000E+00  0.45593999997E+02  0.45594000000E+02  0.51100000000E-03 0. -1.
         11   -1    0    0    0    0 -0.00000000000E+00 -0.00000000000E+00 -0.45593999997E+02  0.45594000000E+02  0.51100000000E-03 0.  1.
         23    2    1    2    0    0  0.17763568394E-14 -0.35527136788E-14  0.00000000000E+00  0.91188000000E+02  0.91188000000E+02 0.  0.
    9900012    2    3    3    0    0 -0.14983830059E+02  0.17074035766E+02  0.28978288818E+02  0.54367094479E+02  0.40000023483E+02 0.  0.
        -12    1    3    3    0    0  0.14983830059E+02 -0.17074035766E+02 -0.28978288818E+02  0.36820905521E+02  0.00000000000E+00 0.  1.
         11    1    4    4    0    0 -0.92407708534E+01 -0.59246611731E+00  0.19650467394E+02  0.21722884963E+02  0.51100000000E-03 0. -1.
        -11    1    4    4    0    0  0.21930674696E+01 -0.27532483984E+01  0.10127637527E+02  0.10721891802E+02  0.51100000000E-03 0.  1.
        -12    1    4    4    0    0 -0.79361266753E+01  0.20419750282E+02 -0.79981610195E+00  0.21922317714E+02  0.00000000000E+00 0.  1.
</event>
<event>
 8    1  0.2516265E-006  0.9118800E+02  0.7816164E-02  0.1184000E+00
        -11   -1    0    0    0    0  0.00000000000E+00  0.00000000000E+00  0.45593999997E+02  0.45594000000E+02  0.51100000000E-03 0. -1.
         11   -1    0    0    0    0 -0.00000000000E+00 -0.00000000000E+00 -0.45593999997E+02  0.45594000000E+02  0.51100000000E-03 0.  1.
         23    2    1    2    0    0  0.88817841970E-15  0.00000000000E+00 -0.35527136788E-14  0.91188000000E+02  0.91188000000E+02 0.  0.
    9900012    2    3    3    0    0  0.56200985699E+01  0.26627401562E+02  0.24802718371E+02  0.54367097506E+02  0.40000030384E+02 0.  0.
         12    1    3    3    0    0 -0.56200985699E+01 -0.26627401562E+02 -0.24802718371E+02  0.36820902494E+02  0.00000000000E+00 0. -1.
         11    1    4    4    0    0 -0.21493650039E+00  0.32734378487E+01 -0.33551722393E+01  0.46924166551E+01  0.51100000000E-03 0. -1.
        -11    1    4    4    0    0 -0.67857508970E+01  0.31841884221E+00 -0.42085806741E+01  0.79912425408E+01  0.51100000000E-03 0.  1.
         12    1    4    4    0    0  0.12620785967E+02  0.23035544871E+02  0.32366471284E+02  0.41683438310E+02  0.00000000000E+00 0. -1.
</event>
<event>
 8    1  0.2516265E-006  0.9118800E+02  0.7816164E-02  0.1184000E+00
        -11   -1    0    0    0    0  0.00000000000E+00  0.00000000000E+00  0.45593999997E+02  0.45594000000E+02  0.51100000000E-03 0.  1.
         11   -1    0    0    0    0 -0.00000000000E+00 -0.00000000000E+00 -0.45593999997E+02  0.45594000000E+02  0.51100000000E-03 0. -1.
         23    2    1    2    0    0 -0.71054273576E-14 -0.88817841970E-15  0.00000000000E+00  0.91188000000E+02  0.91188000000E+02 0.  0.
    9900012    2    3    3    0    0 -0.32210559688E+02  0.24096166060E+01  0.17676357252E+02  0.54367081851E+02  0.39999994696E+02 0.  0.
         12    1    3    3    0    0  0.32210559688E+02 -0.24096166060E+01 -0.17676357252E+02  0.36820918149E+02  0.00000000000E+00 0. -1.
         11    1    4    4    0    0 -0.60947927695E+01 -0.36673155756E+01 -0.78179428901E+01  0.10569575854E+02  0.51100000000E-03 0. -1.
        -11    1    4    4    0    0 -0.15997267747E+02 -0.82038406976E+01  0.14802914552E+02  0.23288234305E+02  0.51100000000E-03 0.  1.
        -12    1    4    4    0    0 -0.10118499172E+02  0.14280772879E+02  0.10691385589E+02  0.20509271692E+02  0.00000000000E+00 0.  1.
</event>
<event>
 8    1  0.2516265E-006  0.9118800E+02  0.7816164E-02  0.1184000E+00
        -11   -1    0    0    0    0  0.00000000000E+00  0.00000000000E+00  0.45593999997E+02  0.45594000000E+02  0.51100000000E-03 0.  1.
         11   -1    0    0    0    0 -0.00000000000E+00 -0.00000000000E+00 -0.45593999997E+02  0.45594000000E+02  0.51100000000E-03 0. -1.
         23    2    1    2    0    0 -0.17763568394E-14 -0.35527136788E-14  0.00000000000E+00  0.91188000000E+02  0.91188000000E+02 0.  0.
    9900012    2    3    3    0    0 -0.10136416070E+02  0.30308662327E+02  0.18287122096E+02  0.54367071476E+02  0.39999971044E+02 0.  0.
         12    1    3    3    0    0  0.10136416070E+02 -0.30308662327E+02 -0.18287122096E+02  0.36820928524E+02  0.00000000000E+00 0. -1.
         11    1    4    4    0    0 -0.14360523866E+02  0.58201538768E+01  0.27813745160E+00  0.15497619093E+02  0.51100000000E-03 0. -1.
        -11    1    4    4    0    0 -0.31724283150E+01  0.23294407103E+02  0.20272174730E+02  0.31042789376E+02  0.51100000000E-03 0.  1.
         12    1    4    4    0    0  0.73965361108E+01  0.11941013472E+01 -0.22631900850E+01  0.78266630071E+01  0.00000000000E+00 0. -1.
</event>
<event>
 8    1  0.2516265E-006  0.9118800E+02  0.7816164E-02  0.1184000E+00
        -11   -1    0    0    0    0  0.00000000000E+00  0.00000000000E+00  0.45593999997E+02  0.45594000000E+02  0.51100000000E-03 0.  1.
         11   -1    0    0    0    0 -0.00000000000E+00 -0.00000000000E+00 -0.45593999997E+02  0.45594000000E+02  0.51100000000E-03 0. -1.
         23    2    1    2    0    0  0.00000000000E+00  0.00000000000E+00  0.88817841970E-15  0.91188000000E+02  0.91188000000E+02 0.  0.
    9900012    2    3    3    0    0 -0.24666007634E+02 -0.26925666020E+02  0.47303467654E+01  0.54367087413E+02  0.40000007375E+02 0.  0.
         12    1    3    3    0    0  0.24666007634E+02  0.26925666020E+02 -0.47303467654E+01  0.36820912587E+02  0.00000000000E+00 0. -1.
         11    1    4    4    0    0 -0.19576502175E+02 -0.25029284879E+01 -0.63156648532E+01  0.20721769018E+02  0.51100000000E-03 0. -1.
        -11    1    4    4    0    0 -0.11871211122E+02 -0.91610873034E+01  0.40012976573E+01  0.15519715116E+02  0.51100000000E-03 0.  1.
         12    1    4    4    0    0  0.67817056638E+01 -0.15261650229E+02  0.70447139612E+01  0.18125603279E+02  0.00000000000E+00 0. -1.
</event>
<event>
 8    1  0.2516265E-006  0.9118800E+02  0.7816164E-02  0.1184000E+00
        -11   -1    0    0    0    0  0.00000000000E+00  0.00000000000E+00  0.45593999997E+02  0.45594000000E+02  0.51100000000E-03 0. -1.
         11   -1    0    0    0    0 -0.00000000000E+00 -0.00000000000E+00 -0.45593999997E+02  0.45594000000E+02  0.51100000000E-03 0.  1.
         23    2    1    2    0    0  0.88817841970E-15  0.44408920985E-15  0.71054273576E-14  0.91188000000E+02  0.91188000000E+02 0.  0.
    9900012    2    3    3    0    0  0.41540037853E+00 -0.32662556184E+01 -0.36673412823E+02  0.54367079434E+02  0.39999989186E+02 0.  0.
         12    1    3    3    0    0 -0.41540037853E+00  0.32662556184E+01  0.36673412823E+02  0.36820920566E+02  0.00000000000E+00 0. -1.
         11    1    4    4    0    0 -0.12762626096E+02 -0.27694599520E+01 -0.11383670176E+02  0.17324620638E+02  0.51100000000E-03 0. -1.
        -11    1    4    4    0    0  0.51713774103E+01 -0.65105385834E+01 -0.25709071770E+02  0.27020115257E+02  0.51100000000E-03 0.  1.
         12    1    4    4    0    0  0.80066490643E+01  0.60137429169E+01  0.41932912319E+00  0.10022343539E+02  0.00000000000E+00 0. -1.
</event>
<event>
 8    1  0.2516265E-006  0.9118800E+02  0.7816164E-02  0.1184000E+00
        -11   -1    0    0    0    0  0.00000000000E+00  0.00000000000E+00  0.45593999997E+02  0.45594000000E+02  0.51100000000E-03 0.  1.
         11   -1    0    0    0    0 -0.00000000000E+00 -0.00000000000E+00 -0.45593999997E+02  0.45594000000E+02  0.51100000000E-03 0. -1.
         23    2    1    2    0    0  0.00000000000E+00  0.00000000000E+00  0.44408920985E-15  0.91188000000E+02  0.91188000000E+02 0.  0.
    9900012    2    3    3    0    0 -0.30067529597E+02  0.21223258328E+02 -0.11391262448E+01  0.54367073359E+02  0.39999975336E+02 0.  0.
        -12    1    3    3    0    0  0.30067529597E+02 -0.21223258328E+02  0.11391262448E+01  0.36820926641E+02  0.00000000000E+00 0.  1.
         11    1    4    4    0    0 -0.28674564155E+02  0.10679888637E+02  0.80507483312E+01  0.31640246518E+02  0.51100000000E-03 0. -1.
        -11    1    4    4    0    0  0.45016975833E+01 -0.31126943167E+01 -0.46323684873E+01  0.71702848691E+01  0.51100000000E-03 0.  1.
        -12    1    4    4    0    0 -0.58946630258E+01  0.13656064008E+02 -0.45575060887E+01  0.15556541972E+02  0.00000000000E+00 0.  1.
</event>
<event>
 8    1  0.2516265E-006  0.9118800E+02  0.7816164E-02  0.1184000E+00
        -11   -1    0    0    0    0  0.00000000000E+00  0.00000000000E+00  0.45593999997E+02  0.45594000000E+02  0.51100000000E-03 0. -1.
         11   -1    0    0    0    0 -0.00000000000E+00 -0.00000000000E+00 -0.45593999997E+02  0.45594000000E+02  0.51100000000E-03 0.  1.
         23    2    1    2    0    0  0.00000000000E+00  0.00000000000E+00  0.00000000000E+00  0.91188000000E+02  0.91188000000E+02 0.  0.
    9900012    2    3    3    0    0  0.10535492847E+01 -0.35059891442E+02  0.11201488732E+02  0.54367091485E+02  0.40000016659E+02 0.  0.
        -12    1    3    3    0    0 -0.10535492847E+01  0.35059891442E+02 -0.11201488732E+02  0.36820908515E+02  0.00000000000E+00 0.  1.
         11    1    4    4    0    0  0.74629418908E+01 -0.16630322126E+02 -0.56042956331E+01  0.19070166372E+02  0.51100000000E-03 0. -1.
        -11    1    4    4    0    0  0.41823080276E+01  0.30022387015E+01  0.85969674111E+01  0.10020628054E+02  0.51100000000E-03 0.  1.
         12    1    4    4    0    0 -0.10591700634E+02 -0.21431808018E+02  0.82088169539E+01  0.25276297059E+02  0.00000000000E+00 0. -1.
</event>
<event>
 8    1  0.2516265E-006  0.9118800E+02  0.7816164E-02  0.1184000E+00
        -11   -1    0    0    0    0  0.00000000000E+00  0.00000000000E+00  0.45593999997E+02  0.45594000000E+02  0.51100000000E-03 0.  1.
         11   -1    0    0    0    0 -0.00000000000E+00 -0.00000000000E+00 -0.45593999997E+02  0.45594000000E+02  0.51100000000E-03 0. -1.
         23    2    1    2    0    0  0.00000000000E+00  0.00000000000E+00 -0.35527136788E-14  0.91188000000E+02  0.91188000000E+02 0.  0.
    9900012    2    3    3    0    0 -0.18502685063E+02 -0.13145012006E+02  0.28993796067E+02  0.54367069735E+02  0.39999967075E+02 0.  0.
         12    1    3    3    0    0  0.18502685063E+02  0.13145012006E+02 -0.28993796067E+02  0.36820930265E+02  0.00000000000E+00 0. -1.
         11    1    4    4    0    0 -0.26800619271E+00 -0.85223531012E+01  0.56659253281E+01  0.10237433262E+02  0.51100000000E-03 0. -1.
        -11    1    4    4    0    0  0.45899195334E+01 -0.12367251900E+02  0.10263731188E+02  0.16714079665E+02  0.51100000000E-03 0.  1.
         12    1    4    4    0    0 -0.22824598404E+02  0.77445929946E+01  0.13064139551E+02  0.27415556809E+02  0.00000000000E+00 0. -1.
</event>
<event>
 8    1  0.2516265E-006  0.9118800E+02  0.7816164E-02  0.1184000E+00
        -11   -1    0    0    0    0  0.00000000000E+00  0.00000000000E+00  0.45593999997E+02  0.45594000000E+02  0.51100000000E-03 0.  1.
         11   -1    0    0    0    0 -0.00000000000E+00 -0.00000000000E+00 -0.45593999997E+02  0.45594000000E+02  0.51100000000E-03 0. -1.
         23    2    1    2    0    0  0.35527136788E-14 -0.35527136788E-14  0.35527136788E-14  0.91188000000E+02  0.91188000000E+02 0.  0.
    9900012    2    3    3    0    0 -0.23153196931E+02  0.20499864917E+02  0.19986648089E+02  0.54367067209E+02  0.39999961316E+02 0.  0.
         12    1    3    3    0    0  0.23153196931E+02 -0.20499864917E+02 -0.19986648089E+02  0.36820932791E+02  0.00000000000E+00 0. -1.
         11    1    4    4    0    0 -0.66157970470E+01  0.75201042535E+01 -0.94546784998E+00  0.10060549104E+02  0.51100000000E-03 0. -1.
        -11    1    4    4    0    0 -0.22530927343E+02  0.78822724599E+01  0.21783566464E+01  0.23969108118E+02  0.51100000000E-03 0.  1.
         12    1    4    4    0    0  0.59935274583E+01  0.50974882040E+01  0.18753759292E+02  0.20337409987E+02  0.00000000000E+00 0. -1.
</event>
<event>
 8    1  0.2516265E-006  0.9118800E+02  0.7816164E-02  0.1184000E+00
        -11   -1    0    0    0    0  0.00000000000E+00  0.00000000000E+00  0.45593999997E+02  0.45594000000E+02  0.51100000000E-03 0.  1.
         11   -1    0    0    0    0 -0.00000000000E+00 -0.00000000000E+00 -0.45593999997E+02  0.45594000000E+02  0.51100000000E-03 0. -1.
         23    2    1    2    0    0  0.00000000000E+00  0.00000000000E+00  0.00000000000E+00  0.91188000000E+02  0.91188000000E+02 0.  0.
    9900012    2    3    3    0    0 -0.31029490128E+02  0.16849189464E+02 -0.10442955336E+02  0.54367085299E+02  0.40000002557E+02 0.  0.
         12    1    3    3    0    0  0.31029490128E+02 -0.16849189464E+02  0.10442955336E+02  0.36820914701E+02  0.00000000000E+00 0. -1.
         11    1    4    4    0    0 -0.56203134809E+01  0.18211828049E+00  0.88322132352E+01  0.10470390708E+02  0.51100000000E-03 0. -1.
        -11    1    4    4    0    0  0.48361464741E+01  0.34261503373E+01 -0.56198319086E+01  0.81675779638E+01  0.51100000000E-03 0.  1.
        -12    1    4    4    0    0 -0.30245323122E+02  0.13240920846E+02 -0.13655336663E+02  0.35729116627E+02  0.00000000000E+00 0.  1.
</event>
<event>
 8    1  0.2516265E-006  0.9118800E+02  0.7816164E-02  0.1184000E+00
        -11   -1    0    0    0    0  0.00000000000E+00  0.00000000000E+00  0.45593999997E+02  0.45594000000E+02  0.51100000000E-03 0. -1.
         11   -1    0    0    0    0 -0.00000000000E+00 -0.00000000000E+00 -0.45593999997E+02  0.45594000000E+02  0.51100000000E-03 0.  1.
         23    2    1    2    0    0 -0.35527136788E-14  0.00000000000E+00  0.00000000000E+00  0.91188000000E+02  0.91188000000E+02 0.  0.
    9900012    2    3    3    0    0 -0.16365044877E+02  0.27328385805E+02 -0.18469547299E+02  0.54367088252E+02  0.40000009287E+02 0.  0.
         12    1    3    3    0    0  0.16365044877E+02 -0.27328385805E+02  0.18469547299E+02  0.36820911748E+02  0.00000000000E+00 0. -1.
         11    1    4    4    0    0 -0.18729759937E+02  0.11870902512E+02 -0.33693847540E+01  0.22429333197E+02  0.51100000000E-03 0. -1.
        -11    1    4    4    0    0 -0.10565371939E+02  0.73234614122E+01 -0.64471560059E+01  0.14381446106E+02  0.51100000000E-03 0.  1.
         12    1    4    4    0    0  0.12930086999E+02  0.81340218802E+01 -0.86530065396E+01  0.17556308949E+02  0.00000000000E+00 0. -1.
</event>
<event>
 8    1  0.2516265E-006  0.9118800E+02  0.7816164E-02  0.1184000E+00
        -11   -1    0    0    0    0  0.00000000000E+00  0.00000000000E+00  0.45593999997E+02  0.45594000000E+02  0.51100000000E-03 0.  1.
         11   -1    0    0    0    0 -0.00000000000E+00 -0.00000000000E+00 -0.45593999997E+02  0.45594000000E+02  0.51100000000E-03 0. -1.
         23    2    1    2    0    0  0.00000000000E+00  0.00000000000E+00  0.00000000000E+00  0.91188000000E+02  0.91188000000E+02 0.  0.
    9900012    2    3    3    0    0  0.55805623917E+01 -0.27353002316E+02 -0.24009387271E+02  0.54367080818E+02  0.39999992340E+02 0.  0.
        -12    1    3    3    0    0 -0.55805623917E+01  0.27353002316E+02  0.24009387271E+02  0.36820919182E+02  0.00000000000E+00 0.  1.
         11    1    4    4    0    0  0.11397451957E+02 -0.29520967977E+02 -0.25247668079E+02  0.40482517277E+02  0.51100000000E-03 0. -1.
        -11    1    4    4    0    0 -0.93386327176E+01  0.40289882645E+00  0.26239904741E+01  0.97086412421E+01  0.51100000000E-03 0.  1.
         12    1    4    4    0    0  0.35217431524E+01  0.17650668347E+01 -0.13857096660E+01  0.41759222983E+01  0.00000000000E+00 0. -1.
</event>
<event>
 8    1  0.2516265E-006  0.9118800E+02  0.7816164E-02  0.1184000E+00
        -11   -1    0    0    0    0  0.00000000000E+00  0.00000000000E+00  0.45593999997E+02  0.45594000000E+02  0.51100000000E-03 0.  1.
         11   -1    0    0    0    0 -0.00000000000E+00 -0.00000000000E+00 -0.45593999997E+02  0.45594000000E+02  0.51100000000E-03 0. -1.
         23    2    1    2    0    0  0.00000000000E+00  0.00000000000E+00 -0.17763568394E-14  0.91188000000E+02  0.91188000000E+02 0.  0.
    9900012    2    3    3    0    0 -0.26283581943E+02  0.23053452296E+02  0.11554368932E+02  0.54366922015E+02  0.39999630316E+02 0.  0.
         12    1    3    3    0    0  0.26283581943E+02 -0.23053452296E+02 -0.11554368932E+02  0.36821077985E+02  0.00000000000E+00 0. -1.
         11    1    4    4    0    0  0.76675751514E+01  0.47507340432E+01 -0.32055483128E+00  0.90257375495E+01  0.51100000000E-03 0. -1.
        -11    1    4    4    0    0 -0.30410873023E+02  0.12978771341E+02  0.14309372189E+01  0.33095578029E+02  0.51100000000E-03 0.  1.
         12    1    4    4    0    0 -0.35402840722E+01  0.53239469122E+01  0.10443986545E+02  0.12245606436E+02  0.00000000000E+00 0. -1.
</event>
<event>
 8    1  0.2516265E-006  0.9118800E+02  0.7816164E-02  0.1184000E+00
        -11   -1    0    0    0    0  0.00000000000E+00  0.00000000000E+00  0.45593999997E+02  0.45594000000E+02  0.51100000000E-03 0. -1.
         11   -1    0    0    0    0 -0.00000000000E+00 -0.00000000000E+00 -0.45593999997E+02  0.45594000000E+02  0.51100000000E-03 0.  1.
         23    2    1    2    0    0  0.00000000000E+00 -0.88817841970E-15  0.00000000000E+00  0.91188000000E+02  0.91188000000E+02 0.  0.
    9900012    2    3    3    0    0  0.16840318276E+02 -0.50670677280E+01 -0.32349788868E+02  0.54367077486E+02  0.39999984745E+02 0.  0.
         12    1    3    3    0    0 -0.16840318276E+02  0.50670677280E+01  0.32349788868E+02  0.36820922514E+02  0.00000000000E+00 0. -1.
         11    1    4    4    0    0 -0.56261265276E+01  0.16367646229E+01  0.34288923638E+01  0.67889322606E+01  0.51100000000E-03 0. -1.
        -11    1    4    4    0    0  0.18345752064E+02 -0.75864563965E+01 -0.11513089060E+02  0.22949338975E+02  0.51100000000E-03 0.  1.
        -12    1    4    4    0    0  0.41206927396E+01  0.88262404558E+00 -0.24265592172E+02  0.24628806250E+02  0.00000000000E+00 0.  1.
</event>
<event>
 8    1  0.2516265E-006  0.9118800E+02  0.7816164E-02  0.1184000E+00
        -11   -1    0    0    0    0  0.00000000000E+00  0.00000000000E+00  0.45593999997E+02  0.45594000000E+02  0.51100000000E-03 0.  1.
         11   -1    0    0    0    0 -0.00000000000E+00 -0.00000000000E+00 -0.45593999997E+02  0.45594000000E+02  0.51100000000E-03 0. -1.
         23    2    1    2    0    0 -0.11102230246E-14  0.84654505628E-15  0.00000000000E+00  0.91188000000E+02  0.91188000000E+02 0.  0.
    9900012    2    3    3    0    0  0.19410180432E+01 -0.64653526060E-01 -0.36769659603E+02  0.54367087484E+02  0.40000007538E+02 0.  0.
        -12    1    3    3    0    0 -0.19410180432E+01  0.64653526060E-01  0.36769659603E+02  0.36820912516E+02  0.00000000000E+00 0.  1.
         11    1    4    4    0    0 -0.77743487462E+01 -0.82755682731E+01 -0.13437933625E+02  0.17592714090E+02  0.51100000000E-03 0. -1.
        -11    1    4    4    0    0 -0.70802176549E+01 -0.29530506725E+01 -0.99800360270E+01  0.12587736479E+02  0.51100000000E-03 0.  1.
        -12    1    4    4    0    0  0.16795584444E+02  0.11163965419E+02 -0.13351689952E+02  0.24186636915E+02  0.00000000000E+00 0.  1.
</event>
<event>
 8    1  0.2516265E-006  0.9118800E+02  0.7816164E-02  0.1184000E+00
        -11   -1    0    0    0    0  0.00000000000E+00  0.00000000000E+00  0.45593999997E+02  0.45594000000E+02  0.51100000000E-03 0. -1.
         11   -1    0    0    0    0 -0.00000000000E+00 -0.00000000000E+00 -0.45593999997E+02  0.45594000000E+02  0.51100000000E-03 0.  1.
         23    2    1    2    0    0  0.00000000000E+00  0.35527136788E-14  0.17763568394E-14  0.91188000000E+02  0.91188000000E+02 0.  0.
    9900012    2    3    3    0    0  0.17525074244E+02  0.28849230824E+02  0.14709608044E+02  0.54367096763E+02  0.40000028691E+02 0.  0.
        -12    1    3    3    0    0 -0.17525074244E+02 -0.28849230824E+02 -0.14709608044E+02  0.36820903237E+02  0.00000000000E+00 0.  1.
         11    1    4    4    0    0  0.13909322527E+02  0.16894787784E+02  0.11169706815E+02  0.24569604352E+02  0.51100000000E-03 0. -1.
        -11    1    4    4    0    0  0.40751019784E+00  0.19105977866E+02 -0.33016679441E+01  0.19393438742E+02  0.51100000000E-03 0.  1.
         12    1    4    4    0    0  0.32082415189E+01 -0.71515348257E+01  0.68415691724E+01  0.10404053669E+02  0.00000000000E+00 0. -1.
</event>
<event>
 8    1  0.2516265E-006  0.9118800E+02  0.7816164E-02  0.1184000E+00
        -11   -1    0    0    0    0  0.00000000000E+00  0.00000000000E+00  0.45593999997E+02  0.45594000000E+02  0.51100000000E-03 0. -1.
         11   -1    0    0    0    0 -0.00000000000E+00 -0.00000000000E+00 -0.45593999997E+02  0.45594000000E+02  0.51100000000E-03 0.  1.
         23    2    1    2    0    0  0.71054273576E-14 -0.19984014443E-14  0.17763568394E-14  0.91188000000E+02  0.91188000000E+02 0.  0.
    9900012    2    3    3    0    0 -0.34058286322E+02  0.78340830246E+00 -0.13971349723E+02  0.54367092775E+02  0.40000019599E+02 0.  0.
        -12    1    3    3    0    0  0.34058286322E+02 -0.78340830246E+00  0.13971349723E+02  0.36820907225E+02  0.00000000000E+00 0.  1.
         11    1    4    4    0    0 -0.13201761774E+01  0.95793450925E+01  0.15394229442E+00  0.96711124506E+01  0.51100000000E-03 0. -1.
        -11    1    4    4    0    0 -0.14980213178E+02  0.87509654804E+01 -0.43526916705E+01  0.17886646101E+02  0.51100000000E-03 0.  1.
        -12    1    4    4    0    0 -0.17757896967E+02 -0.17546902270E+02 -0.97726003473E+01  0.26809334224E+02  0.00000000000E+00 0.  1.
</event>
<event>
 8    1  0.2516265E-006  0.9118800E+02  0.7816164E-02  0.1184000E+00
        -11   -1    0    0    0    0  0.00000000000E+00  0.00000000000E+00  0.45593999997E+02  0.45594000000E+02  0.51100000000E-03 0.  1.
         11   -1    0    0    0    0 -0.00000000000E+00 -0.00000000000E+00 -0.45593999997E+02  0.45594000000E+02  0.51100000000E-03 0. -1.
         23    2    1    2    0    0  0.00000000000E+00  0.00000000000E+00 -0.17763568394E-14  0.91188000000E+02  0.91188000000E+02 0.  0.
    9900012    2    3    3    0    0  0.27953920727E+02  0.22074052173E+02 -0.93324207837E+01  0.54367088265E+02  0.40000009317E+02 0.  0.
        -12    1    3    3    0    0 -0.27953920727E+02 -0.22074052173E+02  0.93324207837E+01  0.36820911735E+02  0.00000000000E+00 0.  1.
         11    1    4    4    0    0  0.18050837568E+02  0.66795608160E+01 -0.24558151318E+01  0.19403100212E+02  0.51100000000E-03 0. -1.
        -11    1    4    4    0    0  0.12527591135E+02  0.22913723372E+02 -0.36394197085E+01  0.26367112745E+02  0.51100000000E-03 0.  1.
        -12    1    4    4    0    0 -0.26245079769E+01 -0.75192320156E+01 -0.32371859434E+01  0.85968753077E+01  0.00000000000E+00 0.  1.
</event>
<event>
 8    1  0.2516265E-006  0.9118800E+02  0.7816164E-02  0.1184000E+00
        -11   -1    0    0    0    0  0.00000000000E+00  0.00000000000E+00  0.45593999997E+02  0.45594000000E+02  0.51100000000E-03 0.  1.
         11   -1    0    0    0    0 -0.00000000000E+00 -0.00000000000E+00 -0.45593999997E+02  0.45594000000E+02  0.51100000000E-03 0. -1.
         23    2    1    2    0    0  0.00000000000E+00  0.00000000000E+00  0.00000000000E+00  0.91188000000E+02  0.91188000000E+02 0.  0.
    9900012    2    3    3    0    0  0.25513293893E+02  0.19525775198E+02  0.17988647441E+02  0.54367143151E+02  0.40000134440E+02 0.  0.
         12    1    3    3    0    0 -0.25513293893E+02 -0.19525775198E+02 -0.17988647441E+02  0.36820856849E+02  0.00000000000E+00 0. -1.
         11    1    4    4    0    0  0.35449253911E+01 -0.63208778382E+01  0.91155883882E+01  0.11645340038E+02  0.51100000000E-03 0. -1.
        -11    1    4    4    0    0 -0.16847454461E+01  0.10390700942E+02  0.98965543833E+01  0.14448073304E+02  0.51100000000E-03 0.  1.
        -12    1    4    4    0    0  0.23653113948E+02  0.15455952094E+02 -0.10234953308E+01  0.28273729808E+02  0.00000000000E+00 0.  1.
</event>
<event>
 8    1  0.2516265E-006  0.9118800E+02  0.7816164E-02  0.1184000E+00
        -11   -1    0    0    0    0  0.00000000000E+00  0.00000000000E+00  0.45593999997E+02  0.45594000000E+02  0.51100000000E-03 0. -1.
         11   -1    0    0    0    0 -0.00000000000E+00 -0.00000000000E+00 -0.45593999997E+02  0.45594000000E+02  0.51100000000E-03 0.  1.
         23    2    1    2    0    0 -0.35527136788E-14  0.33306690739E-14  0.00000000000E+00  0.91188000000E+02  0.91188000000E+02 0.  0.
    9900012    2    3    3    0    0  0.27109394824E+02 -0.13202949440E+01  0.24882077313E+02  0.54367078802E+02  0.39999987744E+02 0.  0.
        -12    1    3    3    0    0 -0.27109394824E+02  0.13202949440E+01 -0.24882077313E+02  0.36820921198E+02  0.00000000000E+00 0.  1.
         11    1    4    4    0    0  0.15961490349E+02  0.14137445642E+02  0.15441383300E+02  0.26326277023E+02  0.51100000000E-03 0. -1.
        -11    1    4    4    0    0 -0.36154410299E+01 -0.40482357885E+00  0.54955195152E+01  0.65906017156E+01  0.51100000000E-03 0.  1.
         12    1    4    4    0    0  0.14763345505E+02 -0.15052917007E+02  0.39451744978E+01  0.21450200063E+02  0.00000000000E+00 0. -1.
</event>
<event>
 8    1  0.2516265E-006  0.9118800E+02  0.7816164E-02  0.1184000E+00
        -11   -1    0    0    0    0  0.00000000000E+00  0.00000000000E+00  0.45593999997E+02  0.45594000000E+02  0.51100000000E-03 0. -1.
         11   -1    0    0    0    0 -0.00000000000E+00 -0.00000000000E+00 -0.45593999997E+02  0.45594000000E+02  0.51100000000E-03 0.  1.
         23    2    1    2    0    0  0.00000000000E+00  0.35527136788E-14  0.00000000000E+00  0.91188000000E+02  0.91188000000E+02 0.  0.
    9900012    2    3    3    0    0 -0.15062531158E+02  0.30460093675E+02 -0.14180381970E+02  0.54367076812E+02  0.39999983209E+02 0.  0.
        -12    1    3    3    0    0  0.15062531158E+02 -0.30460093675E+02  0.14180381970E+02  0.36820923188E+02  0.00000000000E+00 0.  1.
         11    1    4    4    0    0 -0.68489141911E+01 -0.18716450995E+01 -0.47193642297E+01  0.85254372304E+01  0.51100000000E-03 0. -1.
        -11    1    4    4    0    0  0.17931136881E+01 -0.41872598243E+00 -0.11394181071E+02  0.11542008087E+02  0.51100000000E-03 0.  1.
         12    1    4    4    0    0 -0.10006730655E+02  0.32750464757E+02  0.19331633308E+01  0.34299631495E+02  0.00000000000E+00 0. -1.
</event>
<event>
 8    1  0.2516265E-006  0.9118800E+02  0.7816164E-02  0.1184000E+00
        -11   -1    0    0    0    0  0.00000000000E+00  0.00000000000E+00  0.45593999997E+02  0.45594000000E+02  0.51100000000E-03 0. -1.
         11   -1    0    0    0    0 -0.00000000000E+00 -0.00000000000E+00 -0.45593999997E+02  0.45594000000E+02  0.51100000000E-03 0.  1.
         23    2    1    2    0    0  0.00000000000E+00  0.00000000000E+00 -0.88817841970E-15  0.91188000000E+02  0.91188000000E+02 0.  0.
    9900012    2    3    3    0    0  0.19793817719E+02  0.30918675014E+02  0.28308722100E+01  0.54367169999E+02  0.40000195645E+02 0.  0.
        -12    1    3    3    0    0 -0.19793817719E+02 -0.30918675014E+02 -0.28308722100E+01  0.36820830001E+02  0.00000000000E+00 0.  1.
         11    1    4    4    0    0 -0.78492676959E+01  0.17058565121E+02  0.10004341227E+02  0.21276571411E+02  0.51100000000E-03 0. -1.
        -11    1    4    4    0    0  0.14029441562E+02  0.52903144801E+01 -0.79778758648E+01  0.16984085533E+02  0.51100000000E-03 0.  1.
         12    1    4    4    0    0  0.13613643854E+02  0.85697954127E+01  0.80440684766E+00  0.16106513054E+02  0.00000000000E+00 0. -1.
</event>
<event>
 8    1  0.2516265E-006  0.9118800E+02  0.7816164E-02  0.1184000E+00
        -11   -1    0    0    0    0  0.00000000000E+00  0.00000000000E+00  0.45593999997E+02  0.45594000000E+02  0.51100000000E-03 0.  1.
         11   -1    0    0    0    0 -0.00000000000E+00 -0.00000000000E+00 -0.45593999997E+02  0.45594000000E+02  0.51100000000E-03 0. -1.
         23    2    1    2    0    0  0.00000000000E+00  0.71054273576E-14  0.00000000000E+00  0.91188000000E+02  0.91188000000E+02 0.  0.
    9900012    2    3    3    0    0 -0.65043826689E+01 -0.31133083108E+02 -0.18552743415E+02  0.54367080050E+02  0.39999990591E+02 0.  0.
        -12    1    3    3    0    0  0.65043826689E+01  0.31133083108E+02  0.18552743415E+02  0.36820919950E+02  0.00000000000E+00 0.  1.
         11    1    4    4    0    0 -0.14274016550E+02 -0.16660812738E+02 -0.13094105747E+02  0.25549673875E+02  0.51100000000E-03 0. -1.
        -11    1    4    4    0    0 -0.48565641675E+01  0.36212707702E+01 -0.25113334934E+01  0.65579427933E+01  0.51100000000E-03 0.  1.
        -12    1    4    4    0    0  0.12626198048E+02 -0.18093541140E+02 -0.29473041753E+01  0.22259463382E+02  0.00000000000E+00 0.  1.
</event>
<event>
 8    1  0.2516265E-006  0.9118800E+02  0.7816164E-02  0.1184000E+00
        -11   -1    0    0    0    0  0.00000000000E+00  0.00000000000E+00  0.45593999997E+02  0.45594000000E+02  0.51100000000E-03 0.  1.
         11   -1    0    0    0    0 -0.00000000000E+00 -0.00000000000E+00 -0.45593999997E+02  0.45594000000E+02  0.51100000000E-03 0. -1.
         23    2    1    2    0    0  0.00000000000E+00  0.00000000000E+00  0.71054273576E-14  0.91188000000E+02  0.91188000000E+02 0.  0.
    9900012    2    3    3    0    0 -0.52020065494E+01 -0.73327853094E+01 -0.35706429948E+02  0.54367085397E+02  0.40000002781E+02 0.  0.
        -12    1    3    3    0    0  0.52020065494E+01  0.73327853094E+01  0.35706429948E+02  0.36820914603E+02  0.00000000000E+00 0.  1.
         11    1    4    4    0    0 -0.13073722940E+01  0.79976753536E+01 -0.11598220272E+02  0.14148877946E+02  0.51100000000E-03 0. -1.
        -11    1    4    4    0    0 -0.79490266256E+01 -0.19906315357E+02 -0.26113529270E+02  0.33784091324E+02  0.51100000000E-03 0.  1.
        -12    1    4    4    0    0  0.40543923703E+01  0.45758546943E+01  0.20053195938E+01  0.64341161280E+01  0.00000000000E+00 0.  1.
</event>
<event>
 8    1  0.2516265E-006  0.9118800E+02  0.7816164E-02  0.1184000E+00
        -11   -1    0    0    0    0  0.00000000000E+00  0.00000000000E+00  0.45593999997E+02  0.45594000000E+02  0.51100000000E-03 0. -1.
         11   -1    0    0    0    0 -0.00000000000E+00 -0.00000000000E+00 -0.45593999997E+02  0.45594000000E+02  0.51100000000E-03 0.  1.
         23    2    1    2    0    0  0.00000000000E+00 -0.17763568394E-14 -0.17763568394E-14  0.91188000000E+02  0.91188000000E+02 0.  0.
    9900012    2    3    3    0    0  0.34730329957E+02  0.11309109280E+02 -0.46580716013E+01  0.54366954351E+02  0.39999704033E+02 0.  0.
         12    1    3    3    0    0 -0.34730329957E+02 -0.11309109280E+02  0.46580716013E+01  0.36821045649E+02  0.00000000000E+00 0. -1.
         11    1    4    4    0    0  0.18954165507E+01 -0.34269338074E+01  0.69421030669E+01  0.79705253575E+01  0.51100000000E-03 0. -1.
        -11    1    4    4    0    0  0.27407346833E+02  0.18315477455E+02  0.15363805617E+00  0.32964268227E+02  0.51100000000E-03 0.  1.
         12    1    4    4    0    0  0.54275665734E+01 -0.35794343679E+01 -0.11753812724E+02  0.13432160767E+02  0.00000000000E+00 0. -1.
</event>
<event>
 8    1  0.2516265E-006  0.9118800E+02  0.7816164E-02  0.1184000E+00
        -11   -1    0    0    0    0  0.00000000000E+00  0.00000000000E+00  0.45593999997E+02  0.45594000000E+02  0.51100000000E-03 0.  1.
         11   -1    0    0    0    0 -0.00000000000E+00 -0.00000000000E+00 -0.45593999997E+02  0.45594000000E+02  0.51100000000E-03 0. -1.
         23    2    1    2    0    0  0.00000000000E+00  0.00000000000E+00  0.00000000000E+00  0.91188000000E+02  0.91188000000E+02 0.  0.
    9900012    2    3    3    0    0 -0.33493715543E+02 -0.57106064030E+01 -0.14189355468E+02  0.54367111703E+02  0.40000062749E+02 0.  0.
        -12    1    3    3    0    0  0.33493715543E+02  0.57106064030E+01  0.14189355468E+02  0.36820888297E+02  0.00000000000E+00 0.  1.
         11    1    4    4    0    0 -0.22495710281E+02 -0.10858782506E+02 -0.98634359225E+01  0.26856237768E+02  0.51100000000E-03 0. -1.
        -11    1    4    4    0    0 -0.14190578691E+02  0.12529436179E+02 -0.45351454904E+01  0.19466043241E+02  0.51100000000E-03 0.  1.
        -12    1    4    4    0    0  0.31925734293E+01 -0.73812600761E+01  0.20922594447E+00  0.80448306948E+01  0.00000000000E+00 0.  1.
</event>
<event>
 8    1  0.2516265E-006  0.9118800E+02  0.7816164E-02  0.1184000E+00
        -11   -1    0    0    0    0  0.00000000000E+00  0.00000000000E+00  0.45593999997E+02  0.45594000000E+02  0.51100000000E-03 0. -1.
         11   -1    0    0    0    0 -0.00000000000E+00 -0.00000000000E+00 -0.45593999997E+02  0.45594000000E+02  0.51100000000E-03 0.  1.
         23    2    1    2    0    0  0.88817841970E-15  0.00000000000E+00 -0.71054273576E-14  0.91188000000E+02  0.91188000000E+02 0.  0.
    9900012    2    3    3    0    0  0.36281668520E+01 -0.82380093515E+01 -0.35703659944E+02  0.54367085750E+02  0.40000003585E+02 0.  0.
         12    1    3    3    0    0 -0.36281668520E+01  0.82380093515E+01  0.35703659944E+02  0.36820914250E+02  0.00000000000E+00 0. -1.
         11    1    4    4    0    0 -0.10295126073E+01  0.79397880932E+00  0.49763594649E+01  0.51433891884E+01  0.51100000000E-03 0. -1.
        -11    1    4    4    0    0 -0.65733519685E+01  0.50803699054E+01 -0.63948333568E+01  0.10483940500E+02  0.51100000000E-03 0.  1.
         12    1    4    4    0    0  0.11231031428E+02 -0.14112358066E+02 -0.34285186052E+02  0.38739756062E+02  0.00000000000E+00 0. -1.
</event>
<event>
 8    1  0.2516265E-006  0.9118800E+02  0.7816164E-02  0.1184000E+00
        -11   -1    0    0    0    0  0.00000000000E+00  0.00000000000E+00  0.45593999997E+02  0.45594000000E+02  0.51100000000E-03 0.  1.
         11   -1    0    0    0    0 -0.00000000000E+00 -0.00000000000E+00 -0.45593999997E+02  0.45594000000E+02  0.51100000000E-03 0. -1.
         23    2    1    2    0    0  0.00000000000E+00  0.00000000000E+00  0.00000000000E+00  0.91188000000E+02  0.91188000000E+02 0.  0.
    9900012    2    3    3    0    0  0.22802119372E+02  0.17389219945E+02  0.23096695941E+02  0.54367095862E+02  0.40000026636E+02 0.  0.
         12    1    3    3    0    0 -0.22802119372E+02 -0.17389219945E+02 -0.23096695941E+02  0.36820904138E+02  0.00000000000E+00 0. -1.
         11    1    4    4    0    0  0.37331904858E+01  0.61642800774E+01  0.13739647158E+02  0.15514927147E+02  0.51100000000E-03 0. -1.
        -11    1    4    4    0    0  0.14059491202E+02  0.12957140436E+02  0.19561381485E+02  0.27353325703E+02  0.51100000000E-03 0.  1.
         12    1    4    4    0    0  0.50094376842E+01 -0.17322005684E+01 -0.10204332702E+02  0.11498843012E+02  0.00000000000E+00 0. -1.
</event>
<event>
 8    1  0.2516265E-006  0.9118800E+02  0.7816164E-02  0.1184000E+00
        -11   -1    0    0    0    0  0.00000000000E+00  0.00000000000E+00  0.45593999997E+02  0.45594000000E+02  0.51100000000E-03 0. -1.
         11   -1    0    0    0    0 -0.00000000000E+00 -0.00000000000E+00 -0.45593999997E+02  0.45594000000E+02  0.51100000000E-03 0.  1.
         23    2    1    2    0    0  0.00000000000E+00  0.17763568394E-14  0.00000000000E+00  0.91188000000E+02  0.91188000000E+02 0.  0.
    9900012    2    3    3    0    0  0.34855058587E+02  0.10353147022E+02  0.58066379564E+01  0.54367084656E+02  0.40000001091E+02 0.  0.
        -12    1    3    3    0    0 -0.34855058587E+02 -0.10353147022E+02 -0.58066379564E+01  0.36820915344E+02  0.00000000000E+00 0.  1.
         11    1    4    4    0    0  0.86926967075E+01  0.12484549604E+02  0.75748781940E+01  0.16994285357E+02  0.51100000000E-03 0. -1.
        -11    1    4    4    0    0 -0.32735301262E+01 -0.11695766619E+01 -0.66648452415E+01  0.75169190104E+01  0.51100000000E-03 0.  1.
         12    1    4    4    0    0  0.29435892006E+02 -0.96182592003E+00  0.48966050039E+01  0.29855880289E+02  0.00000000000E+00 0. -1.
</event>
<event>
 8    1  0.2516265E-006  0.9118800E+02  0.7816164E-02  0.1184000E+00
        -11   -1    0    0    0    0  0.00000000000E+00  0.00000000000E+00  0.45593999997E+02  0.45594000000E+02  0.51100000000E-03 0. -1.
         11   -1    0    0    0    0 -0.00000000000E+00 -0.00000000000E+00 -0.45593999997E+02  0.45594000000E+02  0.51100000000E-03 0.  1.
         23    2    1    2    0    0  0.00000000000E+00  0.00000000000E+00  0.71054273576E-14  0.91188000000E+02  0.91188000000E+02 0.  0.
    9900012    2    3    3    0    0  0.16411070584E+02 -0.10445012435E+02 -0.31262738801E+02  0.54367077146E+02  0.39999983970E+02 0.  0.
         12    1    3    3    0    0 -0.16411070584E+02  0.10445012435E+02  0.31262738801E+02  0.36820922854E+02  0.00000000000E+00 0. -1.
         11    1    4    4    0    0  0.83280307091E+01  0.68509229540E+01  0.11161530050E+01  0.10841450023E+02  0.51100000000E-03 0. -1.
        -11    1    4    4    0    0  0.11758620825E+02 -0.95272839349E+01 -0.31424077035E+02  0.34878459264E+02  0.51100000000E-03 0.  1.
         12    1    4    4    0    0 -0.36755809503E+01 -0.77686514537E+01 -0.95481477094E+00  0.86471678588E+01  0.00000000000E+00 0. -1.
</event>
<event>
 8    1  0.2516265E-006  0.9118800E+02  0.7816164E-02  0.1184000E+00
        -11   -1    0    0    0    0  0.00000000000E+00  0.00000000000E+00  0.45593999997E+02  0.45594000000E+02  0.51100000000E-03 0.  1.
         11   -1    0    0    0    0 -0.00000000000E+00 -0.00000000000E+00 -0.45593999997E+02  0.45594000000E+02  0.51100000000E-03 0. -1.
         23    2    1    2    0    0  0.00000000000E+00  0.00000000000E+00  0.35527136788E-14  0.91188000000E+02  0.91188000000E+02 0.  0.
    9900012    2    3    3    0    0  0.20392675543E+02 -0.18953853470E+02 -0.24097095455E+02  0.54367084931E+02  0.40000001717E+02 0.  0.
        -12    1    3    3    0    0 -0.20392675543E+02  0.18953853470E+02  0.24097095455E+02  0.36820915069E+02  0.00000000000E+00 0.  1.
         11    1    4    4    0    0  0.62193493087E+01 -0.26646575303E+01 -0.87015252345E+01  0.11022578974E+02  0.51100000000E-03 0. -1.
        -11    1    4    4    0    0  0.25372163164E+02 -0.81018530313E+01 -0.10608515096E+02  0.28669274127E+02  0.51100000000E-03 0.  1.
         12    1    4    4    0    0 -0.11198836930E+02 -0.81873429081E+01 -0.47870551252E+01  0.14675231829E+02  0.00000000000E+00 0. -1.
</event>
<event>
 8    1  0.2516265E-006  0.9118800E+02  0.7816164E-02  0.1184000E+00
        -11   -1    0    0    0    0  0.00000000000E+00  0.00000000000E+00  0.45593999997E+02  0.45594000000E+02  0.51100000000E-03 0.  1.
         11   -1    0    0    0    0 -0.00000000000E+00 -0.00000000000E+00 -0.45593999997E+02  0.45594000000E+02  0.51100000000E-03 0. -1.
         23    2    1    2    0    0  0.00000000000E+00 -0.35527136788E-14 -0.35527136788E-14  0.91188000000E+02  0.91188000000E+02 0.  0.
    9900012    2    3    3    0    0 -0.21716958582E+02 -0.22168678044E+02  0.19816788909E+02  0.54367058962E+02  0.39999942516E+02 0.  0.
         12    1    3    3    0    0  0.21716958582E+02  0.22168678044E+02 -0.19816788909E+02  0.36820941038E+02  0.00000000000E+00 0. -1.
         11    1    4    4    0    0  0.94937437561E+01  0.32303356198E+01  0.34699730048E+01  0.10611642269E+02  0.51100000000E-03 0. -1.
        -11    1    4    4    0    0 -0.53870443163E+01 -0.30514085085E+01  0.83658359754E+00  0.62474965169E+01  0.51100000000E-03 0.  1.
        -12    1    4    4    0    0 -0.25823658022E+02 -0.22347605155E+02  0.15510232306E+02  0.37507920177E+02  0.00000000000E+00 0.  1.
</event>
<event>
 8    1  0.2516265E-006  0.9118800E+02  0.7816164E-02  0.1184000E+00
        -11   -1    0    0    0    0  0.00000000000E+00  0.00000000000E+00  0.45593999997E+02  0.45594000000E+02  0.51100000000E-03 0.  1.
         11   -1    0    0    0    0 -0.00000000000E+00 -0.00000000000E+00 -0.45593999997E+02  0.45594000000E+02  0.51100000000E-03 0. -1.
         23    2    1    2    0    0 -0.35527136788E-14  0.00000000000E+00 -0.53290705182E-14  0.91188000000E+02  0.91188000000E+02 0.  0.
    9900012    2    3    3    0    0 -0.26079819241E+02  0.22088640654E+02 -0.13700917189E+02  0.54367080004E+02  0.39999990485E+02 0.  0.
         12    1    3    3    0    0  0.26079819241E+02 -0.22088640654E+02  0.13700917189E+02  0.36820919996E+02  0.00000000000E+00 0. -1.
         11    1    4    4    0    0  0.37205872704E+01  0.63313064810E+01 -0.71702053161E+01  0.10263530383E+02  0.51100000000E-03 0. -1.
        -11    1    4    4    0    0 -0.17168264601E+02  0.19339444580E+02  0.53362927234E+01  0.26405292014E+02  0.51100000000E-03 0.  1.
        -12    1    4    4    0    0 -0.12632141910E+02 -0.35821104076E+01 -0.11867004596E+02  0.17698257606E+02  0.00000000000E+00 0.  1.
</event>
<event>
 8    1  0.2516265E-006  0.9118800E+02  0.7816164E-02  0.1184000E+00
        -11   -1    0    0    0    0  0.00000000000E+00  0.00000000000E+00  0.45593999997E+02  0.45594000000E+02  0.51100000000E-03 0.  1.
         11   -1    0    0    0    0 -0.00000000000E+00 -0.00000000000E+00 -0.45593999997E+02  0.45594000000E+02  0.51100000000E-03 0. -1.
         23    2    1    2    0    0  0.00000000000E+00 -0.35527136788E-14  0.00000000000E+00  0.91188000000E+02  0.91188000000E+02 0.  0.
    9900012    2    3    3    0    0 -0.30137233450E+02 -0.18888066512E+02  0.95273154791E+01  0.54367059805E+02  0.39999944437E+02 0.  0.
         12    1    3    3    0    0  0.30137233450E+02  0.18888066512E+02 -0.95273154791E+01  0.36820940195E+02  0.00000000000E+00 0. -1.
         11    1    4    4    0    0 -0.70187438365E+01  0.19628147440E+01  0.51575418419E+01  0.89283618247E+01  0.51100000000E-03 0. -1.
        -11    1    4    4    0    0 -0.24815764726E+01  0.83455254969E+01  0.42417821485E+01  0.96849746342E+01  0.51100000000E-03 0.  1.
        -12    1    4    4    0    0 -0.20636913141E+02 -0.29196406753E+02  0.12799148877E+00  0.35753723346E+02  0.00000000000E+00 0.  1.
</event>
<event>
 8    1  0.2516265E-006  0.9118800E+02  0.7816164E-02  0.1184000E+00
        -11   -1    0    0    0    0  0.00000000000E+00  0.00000000000E+00  0.45593999997E+02  0.45594000000E+02  0.51100000000E-03 0.  1.
         11   -1    0    0    0    0 -0.00000000000E+00 -0.00000000000E+00 -0.45593999997E+02  0.45594000000E+02  0.51100000000E-03 0. -1.
         23    2    1    2    0    0 -0.88817841970E-15  0.00000000000E+00  0.00000000000E+00  0.91188000000E+02  0.91188000000E+02 0.  0.
    9900012    2    3    3    0    0  0.30595846421E+01 -0.25243216206E+02  0.26630789018E+02  0.54367082761E+02  0.39999996770E+02 0.  0.
         12    1    3    3    0    0 -0.30595846421E+01  0.25243216206E+02 -0.26630789018E+02  0.36820917239E+02  0.00000000000E+00 0. -1.
         11    1    4    4    0    0 -0.61008912162E+01 -0.22458929977E+02 -0.21933114575E+01  0.23375949708E+02  0.51100000000E-03 0. -1.
        -11    1    4    4    0    0 -0.91858504597E+00  0.16305962514E-01  0.20760839638E+01  0.22702839595E+01  0.51100000000E-03 0.  1.
         12    1    4    4    0    0  0.10079060904E+02 -0.28005921921E+01  0.26748016512E+02  0.28720849093E+02  0.00000000000E+00 0. -1.
</event>
<event>
 8    1  0.2516265E-006  0.9118800E+02  0.7816164E-02  0.1184000E+00
        -11   -1    0    0    0    0  0.00000000000E+00  0.00000000000E+00  0.45593999997E+02  0.45594000000E+02  0.51100000000E-03 0.  1.
         11   -1    0    0    0    0 -0.00000000000E+00 -0.00000000000E+00 -0.45593999997E+02  0.45594000000E+02  0.51100000000E-03 0. -1.
         23    2    1    2    0    0 -0.88817841970E-15  0.71054273576E-14  0.17763568394E-14  0.91188000000E+02  0.91188000000E+02 0.  0.
    9900012    2    3    3    0    0  0.52433828736E+01 -0.34507730672E+02 -0.11726237821E+02  0.54367065825E+02  0.39999958160E+02 0.  0.
        -12    1    3    3    0    0 -0.52433828736E+01  0.34507730672E+02  0.11726237821E+02  0.36820934175E+02  0.00000000000E+00 0.  1.
         11    1    4    4    0    0  0.77304590848E+01 -0.75163118286E+01 -0.14599281312E+02  0.18149213654E+02  0.51100000000E-03 0. -1.
        -11    1    4    4    0    0 -0.69269450138E+01 -0.24982309472E+02 -0.55261266857E+01  0.26507290133E+02  0.51100000000E-03 0.  1.
         12    1    4    4    0    0  0.44398688026E+01 -0.20091093719E+01  0.83991701762E+01  0.97105620384E+01  0.00000000000E+00 0. -1.
</event>
<event>
 8    1  0.2516265E-006  0.9118800E+02  0.7816164E-02  0.1184000E+00
        -11   -1    0    0    0    0  0.00000000000E+00  0.00000000000E+00  0.45593999997E+02  0.45594000000E+02  0.51100000000E-03 0. -1.
         11   -1    0    0    0    0 -0.00000000000E+00 -0.00000000000E+00 -0.45593999997E+02  0.45594000000E+02  0.51100000000E-03 0.  1.
         23    2    1    2    0    0  0.00000000000E+00  0.00000000000E+00  0.00000000000E+00  0.91188000000E+02  0.91188000000E+02 0.  0.
    9900012    2    3    3    0    0 -0.69926625182E+01 -0.25349754891E+02  0.25773444489E+02  0.54367111323E+02  0.40000061884E+02 0.  0.
        -12    1    3    3    0    0  0.69926625182E+01  0.25349754891E+02 -0.25773444489E+02  0.36820888677E+02  0.00000000000E+00 0.  1.
         11    1    4    4    0    0 -0.12801496900E+02 -0.67566293111E+01  0.25174537018E+02  0.29039415918E+02  0.51100000000E-03 0. -1.
        -11    1    4    4    0    0  0.73627493257E-01  0.28703251560E+01 -0.10327920515E+01  0.30513680853E+01  0.51100000000E-03 0.  1.
        -12    1    4    4    0    0  0.57352068881E+01 -0.21463450736E+02  0.16316995221E+01  0.22276327320E+02  0.00000000000E+00 0.  1.
</event>
<event>
 8    1  0.2516265E-006  0.9118800E+02  0.7816164E-02  0.1184000E+00
        -11   -1    0    0    0    0  0.00000000000E+00  0.00000000000E+00  0.45593999997E+02  0.45594000000E+02  0.51100000000E-03 0.  1.
         11   -1    0    0    0    0 -0.00000000000E+00 -0.00000000000E+00 -0.45593999997E+02  0.45594000000E+02  0.51100000000E-03 0. -1.
         23    2    1    2    0    0 -0.17763568394E-14  0.00000000000E+00  0.66613381478E-15  0.91188000000E+02  0.91188000000E+02 0.  0.
    9900012    2    3    3    0    0 -0.12974436902E+02  0.34453032142E+02 -0.65528907416E+00  0.54367124936E+02  0.40000092916E+02 0.  0.
        -12    1    3    3    0    0  0.12974436902E+02 -0.34453032142E+02  0.65528907416E+00  0.36820875064E+02  0.00000000000E+00 0.  1.
         11    1    4    4    0    0 -0.46997623284E+01  0.88952554555E+01  0.28764605989E+01  0.10463620855E+02  0.51100000000E-03 0. -1.
        -11    1    4    4    0    0 -0.10382088631E+02 -0.27713227069E+00  0.10211311232E+02  0.14564870201E+02  0.51100000000E-03 0.  1.
        -12    1    4    4    0    0  0.21074140578E+01  0.25834908958E+02 -0.13743060905E+02  0.29338633879E+02  0.00000000000E+00 0.  1.
</event>
<event>
 8    1  0.2516265E-006  0.9118800E+02  0.7816164E-02  0.1184000E+00
        -11   -1    0    0    0    0  0.00000000000E+00  0.00000000000E+00  0.45593999997E+02  0.45594000000E+02  0.51100000000E-03 0. -1.
         11   -1    0    0    0    0 -0.00000000000E+00 -0.00000000000E+00 -0.45593999997E+02  0.45594000000E+02  0.51100000000E-03 0.  1.
         23    2    1    2    0    0  0.35527136788E-14  0.17763568394E-14 -0.35527136788E-14  0.91188000000E+02  0.91188000000E+02 0.  0.
    9900012    2    3    3    0    0  0.19750770329E+02  0.90733079265E+01 -0.29721389709E+02  0.54367097628E+02  0.40000030661E+02 0.  0.
         12    1    3    3    0    0 -0.19750770329E+02 -0.90733079265E+01  0.29721389709E+02  0.36820902372E+02  0.00000000000E+00 0. -1.
         11    1    4    4    0    0  0.71780482962E+01 -0.50655564874E+01 -0.15795721853E+02  0.18074542013E+02  0.51100000000E-03 0. -1.
        -11    1    4    4    0    0 -0.27841577784E+01  0.87425486730E+01 -0.17379502296E+02  0.19652755332E+02  0.51100000000E-03 0.  1.
         12    1    4    4    0    0  0.15356879811E+02  0.53963157410E+01  0.34538344397E+01  0.16639800282E+02  0.00000000000E+00 0. -1.
</event>
<event>
 8    1  0.2516265E-006  0.9118800E+02  0.7816164E-02  0.1184000E+00
        -11   -1    0    0    0    0  0.00000000000E+00  0.00000000000E+00  0.45593999997E+02  0.45594000000E+02  0.51100000000E-03 0. -1.
         11   -1    0    0    0    0 -0.00000000000E+00 -0.00000000000E+00 -0.45593999997E+02  0.45594000000E+02  0.51100000000E-03 0.  1.
         23    2    1    2    0    0  0.00000000000E+00  0.71054273576E-14  0.15543122345E-14  0.91188000000E+02  0.91188000000E+02 0.  0.
    9900012    2    3    3    0    0 -0.19740645606E+02 -0.31017901873E+02 -0.19940150139E+01  0.54367089889E+02  0.40000013020E+02 0.  0.
         12    1    3    3    0    0  0.19740645606E+02  0.31017901873E+02  0.19940150139E+01  0.36820910111E+02  0.00000000000E+00 0. -1.
         11    1    4    4    0    0 -0.46573558337E+01 -0.54598137931E+01  0.16213825776E+01  0.73572693127E+01  0.51100000000E-03 0. -1.
        -11    1    4    4    0    0 -0.64451768040E+01  0.44565629751E+01  0.10196148995E+02  0.12859343380E+02  0.51100000000E-03 0.  1.
        -12    1    4    4    0    0 -0.86381129686E+01 -0.30014651055E+02 -0.13811546587E+02  0.34150477196E+02  0.00000000000E+00 0.  1.
</event>
<event>
 8    1  0.2516265E-006  0.9118800E+02  0.7816164E-02  0.1184000E+00
        -11   -1    0    0    0    0  0.00000000000E+00  0.00000000000E+00  0.45593999997E+02  0.45594000000E+02  0.51100000000E-03 0. -1.
         11   -1    0    0    0    0 -0.00000000000E+00 -0.00000000000E+00 -0.45593999997E+02  0.45594000000E+02  0.51100000000E-03 0.  1.
         23    2    1    2    0    0  0.00000000000E+00 -0.22204460493E-15  0.00000000000E+00  0.91188000000E+02  0.91188000000E+02 0.  0.
    9900012    2    3    3    0    0 -0.34003660781E+02 -0.13634912308E+01  0.14059534005E+02  0.54367101704E+02  0.40000039955E+02 0.  0.
         12    1    3    3    0    0  0.34003660781E+02  0.13634912308E+01 -0.14059534005E+02  0.36820898296E+02  0.00000000000E+00 0. -1.
         11    1    4    4    0    0  0.19750195531E+01  0.40970141986E+01  0.15695821034E+02  0.16341512346E+02  0.51100000000E-03 0. -1.
        -11    1    4    4    0    0 -0.41341608064E+01  0.27629640342E+01  0.84168141582E+00  0.50431819018E+01  0.51100000000E-03 0.  1.
         12    1    4    4    0    0 -0.31844519528E+02 -0.82234694637E+01 -0.24779684446E+01  0.32982407456E+02  0.00000000000E+00 0. -1.
</event>
<event>
 8    1  0.2516265E-006  0.9118800E+02  0.7816164E-02  0.1184000E+00
        -11   -1    0    0    0    0  0.00000000000E+00  0.00000000000E+00  0.45593999997E+02  0.45594000000E+02  0.51100000000E-03 0. -1.
         11   -1    0    0    0    0 -0.00000000000E+00 -0.00000000000E+00 -0.45593999997E+02  0.45594000000E+02  0.51100000000E-03 0.  1.
         23    2    1    2    0    0  0.17763568394E-14  0.00000000000E+00 -0.11102230246E-14  0.91188000000E+02  0.91188000000E+02 0.  0.
    9900012    2    3    3    0    0  0.10681870448E+02  0.35231602559E+02  0.64253313217E+00  0.54367068127E+02  0.39999963410E+02 0.  0.
        -12    1    3    3    0    0 -0.10681870448E+02 -0.35231602559E+02 -0.64253313217E+00  0.36820931873E+02  0.00000000000E+00 0.  1.
         11    1    4    4    0    0 -0.61237689016E+01  0.23470848483E+02 -0.72050157531E+01  0.25304021940E+02  0.51100000000E-03 0.  1.
        -11    1    4    4    0    0  0.95008036600E+01  0.16512101573E+02  0.70481230391E+01  0.20312331407E+02  0.51100000000E-03 0. -1.
         12    1    4    4    0    0  0.73048356898E+01 -0.47513474971E+01  0.79942584621E+00  0.87507147809E+01  0.00000000000E+00 0. -1.
</event>
<event>
 8    1  0.2516265E-006  0.9118800E+02  0.7816164E-02  0.1184000E+00
        -11   -1    0    0    0    0  0.00000000000E+00  0.00000000000E+00  0.45593999997E+02  0.45594000000E+02  0.51100000000E-03 0.  1.
         11   -1    0    0    0    0 -0.00000000000E+00 -0.00000000000E+00 -0.45593999997E+02  0.45594000000E+02  0.51100000000E-03 0. -1.
         23    2    1    2    0    0  0.00000000000E+00  0.17763568394E-14  0.35527136788E-14  0.91188000000E+02  0.91188000000E+02 0.  0.
    9900012    2    3    3    0    0  0.28855626698E+02 -0.15391084953E+02 -0.16918826655E+02  0.54367090402E+02  0.40000014190E+02 0.  0.
        -12    1    3    3    0    0 -0.28855626698E+02  0.15391084953E+02  0.16918826655E+02  0.36820909598E+02  0.00000000000E+00 0.  1.
         11    1    4    4    0    0  0.47892751910E+01  0.88956861110E+01 -0.80200634884E+01  0.12899294820E+02  0.51100000000E-03 0. -1.
        -11    1    4    4    0    0  0.81217680428E+01 -0.73383811531E+01  0.72627692502E+01  0.13136314991E+02  0.51100000000E-03 0.  1.
         12    1    4    4    0    0  0.15944583465E+02 -0.16948389911E+02 -0.16161532417E+02  0.28331480592E+02  0.00000000000E+00 0. -1.
</event>
<event>
 8    1  0.2516265E-006  0.9118800E+02  0.7816164E-02  0.1184000E+00
        -11   -1    0    0    0    0  0.00000000000E+00  0.00000000000E+00  0.45593999997E+02  0.45594000000E+02  0.51100000000E-03 0. -1.
         11   -1    0    0    0    0 -0.00000000000E+00 -0.00000000000E+00 -0.45593999997E+02  0.45594000000E+02  0.51100000000E-03 0.  1.
         23    2    1    2    0    0  0.53290705182E-14  0.35527136788E-14 -0.35527136788E-14  0.91188000000E+02  0.91188000000E+02 0.  0.
    9900012    2    3    3    0    0 -0.15950519079E+02 -0.29014063562E+02  0.16110402360E+02  0.54367081931E+02  0.39999994878E+02 0.  0.
         12    1    3    3    0    0  0.15950519079E+02  0.29014063562E+02 -0.16110402360E+02  0.36820918069E+02  0.00000000000E+00 0. -1.
         11    1    4    4    0    0 -0.41913417849E+01 -0.14759118259E+02  0.80867081860E+01  0.17343407026E+02  0.51100000000E-03 0. -1.
        -11    1    4    4    0    0  0.97361445465E+01 -0.42130590991E+01 -0.27613689002E+01  0.10962095423E+02  0.51100000000E-03 0.  1.
        -12    1    4    4    0    0 -0.21495321840E+02 -0.10041886204E+02  0.10785063074E+02  0.26061579481E+02  0.00000000000E+00 0.  1.
</event>
<event>
 8    1  0.2516265E-006  0.9118800E+02  0.7816164E-02  0.1184000E+00
        -11   -1    0    0    0    0  0.00000000000E+00  0.00000000000E+00  0.45593999997E+02  0.45594000000E+02  0.51100000000E-03 0. -1.
         11   -1    0    0    0    0 -0.00000000000E+00 -0.00000000000E+00 -0.45593999997E+02  0.45594000000E+02  0.51100000000E-03 0.  1.
         23    2    1    2    0    0  0.00000000000E+00  0.00000000000E+00 -0.17763568394E-14  0.91188000000E+02  0.91188000000E+02 0.  0.
    9900012    2    3    3    0    0 -0.28627069131E+02  0.22590572687E+02 -0.50929089896E+01  0.54367071395E+02  0.39999970858E+02 0.  0.
        -12    1    3    3    0    0  0.28627069131E+02 -0.22590572687E+02  0.50929089896E+01  0.36820928605E+02  0.00000000000E+00 0.  1.
         11    1    4    4    0    0 -0.49405388098E+01  0.62012990315E+01  0.58802561118E+01  0.98712940190E+01  0.51100000000E-03 0. -1.
        -11    1    4    4    0    0 -0.11964691865E+02  0.23256147507E+02 -0.15223254977E+02  0.30261357217E+02  0.51100000000E-03 0.  1.
         12    1    4    4    0    0 -0.11721838457E+02 -0.68668738507E+01  0.42500898758E+01  0.14234420158E+02  0.00000000000E+00 0. -1.
</event>
<event>
 8    1  0.2516265E-006  0.9118800E+02  0.7816164E-02  0.1184000E+00
        -11   -1    0    0    0    0  0.00000000000E+00  0.00000000000E+00  0.45593999997E+02  0.45594000000E+02  0.51100000000E-03 0.  1.
         11   -1    0    0    0    0 -0.00000000000E+00 -0.00000000000E+00 -0.45593999997E+02  0.45594000000E+02  0.51100000000E-03 0. -1.
         23    2    1    2    0    0 -0.71054273576E-14  0.17763568394E-14  0.00000000000E+00  0.91188000000E+02  0.91188000000E+02 0.  0.
    9900012    2    3    3    0    0  0.32764909378E+02  0.12910158507E+02 -0.10750274481E+02  0.54367083653E+02  0.39999998803E+02 0.  0.
        -12    1    3    3    0    0 -0.32764909378E+02 -0.12910158507E+02  0.10750274481E+02  0.36820916347E+02  0.00000000000E+00 0.  1.
         11    1    4    4    0    0  0.14572149522E+02  0.11270931239E+02  0.68692951346E+01  0.19661349104E+02  0.51100000000E-03 0. -1.
        -11    1    4    4    0    0  0.18994280279E+02 -0.65182902875E+01 -0.17294854850E+02  0.26502505469E+02  0.51100000000E-03 0.  1.
         12    1    4    4    0    0 -0.80152042273E+00  0.81575175555E+01 -0.32471476537E+00  0.82032290798E+01  0.00000000000E+00 0. -1.
</event>
<event>
 8    1  0.2516265E-006  0.9118800E+02  0.7816164E-02  0.1184000E+00
        -11   -1    0    0    0    0  0.00000000000E+00  0.00000000000E+00  0.45593999997E+02  0.45594000000E+02  0.51100000000E-03 0.  1.
         11   -1    0    0    0    0 -0.00000000000E+00 -0.00000000000E+00 -0.45593999997E+02  0.45594000000E+02  0.51100000000E-03 0. -1.
         23    2    1    2    0    0  0.00000000000E+00 -0.17763568394E-14  0.88817841970E-15  0.91188000000E+02  0.91188000000E+02 0.  0.
    9900012    2    3    3    0    0  0.33594930039E+02  0.13443484486E+02 -0.68143187350E+01  0.54367061130E+02  0.39999947457E+02 0.  0.
         12    1    3    3    0    0 -0.33594930039E+02 -0.13443484486E+02  0.68143187350E+01  0.36820938870E+02  0.00000000000E+00 0. -1.
         11    1    4    4    0    0  0.75013443198E+01  0.51920430553E+01 -0.11092914399E+02  0.14362458975E+02  0.51100000000E-03 0. -1.
        -11    1    4    4    0    0  0.27356233294E+02  0.15712005027E+02  0.50999136348E+00  0.31551397647E+02  0.51100000000E-03 0.  1.
         12    1    4    4    0    0 -0.12626475747E+01 -0.74605635960E+01  0.37686043007E+01  0.84532045074E+01  0.00000000000E+00 0. -1.
</event>
<event>
 8    1  0.2516265E-006  0.9118800E+02  0.7816164E-02  0.1184000E+00
        -11   -1    0    0    0    0  0.00000000000E+00  0.00000000000E+00  0.45593999997E+02  0.45594000000E+02  0.51100000000E-03 0. -1.
         11   -1    0    0    0    0 -0.00000000000E+00 -0.00000000000E+00 -0.45593999997E+02  0.45594000000E+02  0.51100000000E-03 0.  1.
         23    2    1    2    0    0  0.00000000000E+00  0.00000000000E+00  0.17763568394E-14  0.91188000000E+02  0.91188000000E+02 0.  0.
    9900012    2    3    3    0    0 -0.28751282273E+02 -0.19428162562E+02 -0.12316214819E+02  0.54367097236E+02  0.40000029770E+02 0.  0.
         12    1    3    3    0    0  0.28751282273E+02  0.19428162562E+02  0.12316214819E+02  0.36820902764E+02  0.00000000000E+00 0. -1.
         11    1    4    4    0    0 -0.20499103089E+02 -0.78689094198E+01  0.21954794406E+00  0.21958623921E+02  0.51100000000E-03 0. -1.
        -11    1    4    4    0    0  0.22459843848E+01 -0.10507193475E+02  0.50720728528E+01  0.11881560666E+02  0.51100000000E-03 0.  1.
         12    1    4    4    0    0 -0.10498163568E+02 -0.10520596674E+01 -0.17607835616E+02  0.20526912649E+02  0.00000000000E+00 0. -1.
</event>
<event>
 8    1  0.2516265E-006  0.9118800E+02  0.7816164E-02  0.1184000E+00
        -11   -1    0    0    0    0  0.00000000000E+00  0.00000000000E+00  0.45593999997E+02  0.45594000000E+02  0.51100000000E-03 0.  1.
         11   -1    0    0    0    0 -0.00000000000E+00 -0.00000000000E+00 -0.45593999997E+02  0.45594000000E+02  0.51100000000E-03 0. -1.
         23    2    1    2    0    0  0.00000000000E+00  0.00000000000E+00  0.00000000000E+00  0.91188000000E+02  0.91188000000E+02 0.  0.
    9900012    2    3    3    0    0 -0.22776648658E+02  0.15991073806E+02 -0.24109696324E+02  0.54367250111E+02  0.40000378276E+02 0.  0.
        -12    1    3    3    0    0  0.22776648658E+02 -0.15991073806E+02  0.24109696324E+02  0.36820749889E+02  0.00000000000E+00 0.  1.
         11    1    4    4    0    0 -0.55340827936E+01  0.32674673852E+00  0.79736750046E+00  0.56007705711E+01  0.51100000000E-03 0. -1.
        -11    1    4    4    0    0 -0.56910823786E+01  0.21459435088E+02 -0.17788120056E+01  0.22272403223E+02  0.51100000000E-03 0.  1.
        -12    1    4    4    0    0 -0.11551483486E+02 -0.57951080206E+01 -0.23128251819E+02  0.26494076317E+02  0.00000000000E+00 0.  1.
</event>
<event>
 8    1  0.2516265E-006  0.9118800E+02  0.7816164E-02  0.1184000E+00
        -11   -1    0    0    0    0  0.00000000000E+00  0.00000000000E+00  0.45593999997E+02  0.45594000000E+02  0.51100000000E-03 0.  1.
         11   -1    0    0    0    0 -0.00000000000E+00 -0.00000000000E+00 -0.45593999997E+02  0.45594000000E+02  0.51100000000E-03 0. -1.
         23    2    1    2    0    0  0.00000000000E+00  0.00000000000E+00  0.35527136788E-14  0.91188000000E+02  0.91188000000E+02 0.  0.
    9900012    2    3    3    0    0 -0.27362494746E+02 -0.18413968115E+02 -0.16370611979E+02  0.54367119008E+02  0.40000079402E+02 0.  0.
        -12    1    3    3    0    0  0.27362494746E+02  0.18413968115E+02  0.16370611979E+02  0.36820880992E+02  0.00000000000E+00 0.  1.
         11    1    4    4    0    0 -0.24806524548E+02 -0.87807177718E+01 -0.10558564014E+02  0.28353975719E+02  0.51100000000E-03 0. -1.
        -11    1    4    4    0    0  0.69694877239E+01 -0.10838065513E+02  0.27189856459E+01  0.13169294073E+02  0.51100000000E-03 0.  1.
         12    1    4    4    0    0 -0.95254579219E+01  0.12048151696E+01 -0.85310336106E+01  0.12843849216E+02  0.00000000000E+00 0. -1.
</event>
<event>
 8    1  0.2516265E-006  0.9118800E+02  0.7816164E-02  0.1184000E+00
        -11   -1    0    0    0    0  0.00000000000E+00  0.00000000000E+00  0.45593999997E+02  0.45594000000E+02  0.51100000000E-03 0.  1.
         11   -1    0    0    0    0 -0.00000000000E+00 -0.00000000000E+00 -0.45593999997E+02  0.45594000000E+02  0.51100000000E-03 0. -1.
         23    2    1    2    0    0  0.17763568394E-14  0.00000000000E+00 -0.71054273576E-14  0.91188000000E+02  0.91188000000E+02 0.  0.
    9900012    2    3    3    0    0  0.10044132425E+02 -0.40896918276E+01 -0.35187532700E+02  0.54367182071E+02  0.40000223167E+02 0.  0.
        -12    1    3    3    0    0 -0.10044132425E+02  0.40896918276E+01  0.35187532700E+02  0.36820817929E+02  0.00000000000E+00 0.  1.
         11    1    4    4    0    0 -0.45549180277E+01 -0.76550846601E+01  0.35993736462E+01  0.96074497292E+01  0.51100000000E-03 0. -1.
        -11    1    4    4    0    0  0.26945409886E+01  0.22836295222E+01  0.60930001217E+00  0.35842379525E+01  0.51100000000E-03 0.  1.
         12    1    4    4    0    0  0.11904509464E+02  0.12817633103E+01 -0.39396206359E+02  0.41175494389E+02  0.00000000000E+00 0. -1.
</event>
<event>
 8    1  0.2516265E-006  0.9118800E+02  0.7816164E-02  0.1184000E+00
        -11   -1    0    0    0    0  0.00000000000E+00  0.00000000000E+00  0.45593999997E+02  0.45594000000E+02  0.51100000000E-03 0.  1.
         11   -1    0    0    0    0 -0.00000000000E+00 -0.00000000000E+00 -0.45593999997E+02  0.45594000000E+02  0.51100000000E-03 0. -1.
         23    2    1    2    0    0  0.00000000000E+00  0.00000000000E+00  0.00000000000E+00  0.91188000000E+02  0.91188000000E+02 0.  0.
    9900012    2    3    3    0    0  0.21405164428E+02  0.29790914063E+02  0.31782239173E+01  0.54367072090E+02  0.39999972443E+02 0.  0.
        -12    1    3    3    0    0 -0.21405164428E+02 -0.29790914063E+02 -0.31782239173E+01  0.36820927910E+02  0.00000000000E+00 0.  1.
         11    1    4    4    0    0  0.13379650992E+01  0.98204246825E+01 -0.50865756912E+01  0.11140203951E+02  0.51100000000E-03 0. -1.
        -11    1    4    4    0    0 -0.39788059750E+01  0.17120720248E+02  0.71841879792E+01  0.18988483773E+02  0.51100000000E-03 0.  1.
        -12    1    4    4    0    0  0.24046005304E+02  0.28497691325E+01  0.10806116292E+01  0.24238384366E+02  0.00000000000E+00 0.  1.
</event>
<event>
 8    1  0.2516265E-006  0.9118800E+02  0.7816164E-02  0.1184000E+00
        -11   -1    0    0    0    0  0.00000000000E+00  0.00000000000E+00  0.45593999997E+02  0.45594000000E+02  0.51100000000E-03 0.  1.
         11   -1    0    0    0    0 -0.00000000000E+00 -0.00000000000E+00 -0.45593999997E+02  0.45594000000E+02  0.51100000000E-03 0. -1.
         23    2    1    2    0    0  0.00000000000E+00  0.00000000000E+00  0.00000000000E+00  0.91188000000E+02  0.91188000000E+02 0.  0.
    9900012    2    3    3    0    0 -0.33447709376E+02 -0.15250735937E+02  0.21083284699E+01  0.54367092107E+02  0.40000018077E+02 0.  0.
         12    1    3    3    0    0  0.33447709376E+02  0.15250735937E+02 -0.21083284699E+01  0.36820907893E+02  0.00000000000E+00 0. -1.
         11    1    4    4    0    0 -0.73803946973E+01 -0.10767233594E+02  0.87841062602E+01  0.15734168812E+02  0.51100000000E-03 0. -1.
        -11    1    4    4    0    0 -0.14011848502E+02  0.11431808811E+02 -0.33879148346E+01  0.18398264003E+02  0.51100000000E-03 0.  1.
        -12    1    4    4    0    0 -0.12055466177E+02 -0.15915311154E+02 -0.32878629557E+01  0.20234659292E+02  0.00000000000E+00 0.  1.
</event>
<event>
 8    1  0.2516265E-006  0.9118800E+02  0.7816164E-02  0.1184000E+00
        -11   -1    0    0    0    0  0.00000000000E+00  0.00000000000E+00  0.45593999997E+02  0.45594000000E+02  0.51100000000E-03 0. -1.
         11   -1    0    0    0    0 -0.00000000000E+00 -0.00000000000E+00 -0.45593999997E+02  0.45594000000E+02  0.51100000000E-03 0.  1.
         23    2    1    2    0    0  0.14432899320E-14  0.00000000000E+00  0.00000000000E+00  0.91188000000E+02  0.91188000000E+02 0.  0.
    9900012    2    3    3    0    0  0.67726798902E+00  0.32181344085E+02  0.17879669255E+02  0.54367079701E+02  0.39999989793E+02 0.  0.
         12    1    3    3    0    0 -0.67726798902E+00 -0.32181344085E+02 -0.17879669255E+02  0.36820920299E+02  0.00000000000E+00 0. -1.
         11    1    4    4    0    0 -0.40245544362E+01  0.60186319380E+01 -0.52948872752E+01  0.89697714760E+01  0.51100000000E-03 0. -1.
        -11    1    4    4    0    0  0.14507530983E+02  0.62272614114E+01  0.46142445044E+01  0.16448054368E+02  0.51100000000E-03 0.  1.
        -12    1    4    4    0    0 -0.98057085574E+01  0.19935450735E+02  0.18560312026E+02  0.28949253856E+02  0.00000000000E+00 0.  1.
</event>
<event>
 8    1  0.2516265E-006  0.9118800E+02  0.7816164E-02  0.1184000E+00
        -11   -1    0    0    0    0  0.00000000000E+00  0.00000000000E+00  0.45593999997E+02  0.45594000000E+02  0.51100000000E-03 0. -1.
         11   -1    0    0    0    0 -0.00000000000E+00 -0.00000000000E+00 -0.45593999997E+02  0.45594000000E+02  0.51100000000E-03 0.  1.
         23    2    1    2    0    0  0.17763568394E-14 -0.17763568394E-14  0.35527136788E-14  0.91188000000E+02  0.91188000000E+02 0.  0.
    9900012    2    3    3    0    0  0.15598208870E+02  0.13061632577E+02  0.30689903081E+02  0.54367075016E+02  0.39999979114E+02 0.  0.
        -12    1    3    3    0    0 -0.15598208870E+02 -0.13061632577E+02 -0.30689903081E+02  0.36820924984E+02  0.00000000000E+00 0.  1.
         11    1    4    4    0    0  0.83424653947E+00  0.21599978216E+02  0.74502834718E+01  0.22863983692E+02  0.51100000000E-03 0. -1.
        -11    1    4    4    0    0  0.85516312500E+01 -0.31509122116E+01  0.21133231941E+02  0.23014607042E+02  0.51100000000E-03 0.  1.
        -12    1    4    4    0    0  0.62123310805E+01 -0.53874334272E+01  0.21063876689E+01  0.84884842815E+01  0.00000000000E+00 0.  1.
</event>
<event>
 8    1  0.2516265E-006  0.9118800E+02  0.7816164E-02  0.1184000E+00
        -11   -1    0    0    0    0  0.00000000000E+00  0.00000000000E+00  0.45593999997E+02  0.45594000000E+02  0.51100000000E-03 0.  1.
         11   -1    0    0    0    0 -0.00000000000E+00 -0.00000000000E+00 -0.45593999997E+02  0.45594000000E+02  0.51100000000E-03 0. -1.
         23    2    1    2    0    0  0.00000000000E+00  0.00000000000E+00  0.35527136788E-14  0.91188000000E+02  0.91188000000E+02 0.  0.
    9900012    2    3    3    0    0  0.25941359718E+02  0.26635069532E+01  0.25994821858E+02  0.54367093212E+02  0.40000020595E+02 0.  0.
         12    1    3    3    0    0 -0.25941359718E+02 -0.26635069532E+01 -0.25994821858E+02  0.36820906788E+02  0.00000000000E+00 0. -1.
         11    1    4    4    0    0  0.87797352041E+01  0.42104280407E+01  0.27117004914E+02  0.28812209396E+02  0.51100000000E-03 0. -1.
        -11    1    4    4    0    0  0.16124848951E+02  0.32216566668E+01 -0.70376939279E+01  0.17886278581E+02  0.51100000000E-03 0.  1.
        -12    1    4    4    0    0  0.10367755620E+01 -0.47685777543E+01  0.59155108724E+01  0.76686052347E+01  0.00000000000E+00 0.  1.
</event>
<event>
 8    1  0.2516265E-006  0.9118800E+02  0.7816164E-02  0.1184000E+00
        -11   -1    0    0    0    0  0.00000000000E+00  0.00000000000E+00  0.45593999997E+02  0.45594000000E+02  0.51100000000E-03 0. -1.
         11   -1    0    0    0    0 -0.00000000000E+00 -0.00000000000E+00 -0.45593999997E+02  0.45594000000E+02  0.51100000000E-03 0.  1.
         23    2    1    2    0    0  0.00000000000E+00  0.00000000000E+00  0.00000000000E+00  0.91188000000E+02  0.91188000000E+02 0.  0.
    9900012    2    3    3    0    0  0.14256982008E+02  0.32857677557E+02 -0.85376875363E+01  0.54367073628E+02  0.39999975950E+02 0.  0.
         12    1    3    3    0    0 -0.14256982008E+02 -0.32857677557E+02  0.85376875363E+01  0.36820926372E+02  0.00000000000E+00 0. -1.
         11    1    4    4    0    0  0.14659919753E+02  0.68093273116E+01 -0.46835520074E+01  0.16829017953E+02  0.51100000000E-03 0. -1.
        -11    1    4    4    0    0  0.11030953179E+02  0.20255954471E+02  0.25580070765E+01  0.23206228044E+02  0.51100000000E-03 0.  1.
         12    1    4    4    0    0 -0.11433890924E+02  0.57923957747E+01 -0.64121426054E+01  0.14331827631E+02  0.00000000000E+00 0. -1.
</event>
<event>
 8    1  0.2516265E-006  0.9118800E+02  0.7816164E-02  0.1184000E+00
        -11   -1    0    0    0    0  0.00000000000E+00  0.00000000000E+00  0.45593999997E+02  0.45594000000E+02  0.51100000000E-03 0.  1.
         11   -1    0    0    0    0 -0.00000000000E+00 -0.00000000000E+00 -0.45593999997E+02  0.45594000000E+02  0.51100000000E-03 0. -1.
         23    2    1    2    0    0  0.00000000000E+00  0.00000000000E+00 -0.71054273576E-14  0.91188000000E+02  0.91188000000E+02 0.  0.
    9900012    2    3    3    0    0  0.14221765680E+02 -0.87088081582E+01 -0.32827989314E+02  0.54367097770E+02  0.40000030987E+02 0.  0.
        -12    1    3    3    0    0 -0.14221765680E+02  0.87088081582E+01  0.32827989314E+02  0.36820902230E+02  0.00000000000E+00 0.  1.
         11    1    4    4    0    0  0.28397377971E+01 -0.44331304930E+01 -0.50439403713E+01  0.72909595702E+01  0.51100000000E-03 0. -1.
        -11    1    4    4    0    0  0.16433140061E+02  0.38872827753E+01  0.81775032592E+00  0.16906441834E+02  0.51100000000E-03 0.  1.
         12    1    4    4    0    0 -0.50511121779E+01 -0.81629604406E+01 -0.28601799269E+02  0.30169696366E+02  0.00000000000E+00 0. -1.
</event>
<event>
 8    1  0.2516265E-006  0.9118800E+02  0.7816164E-02  0.1184000E+00
        -11   -1    0    0    0    0  0.00000000000E+00  0.00000000000E+00  0.45593999997E+02  0.45594000000E+02  0.51100000000E-03 0.  1.
         11   -1    0    0    0    0 -0.00000000000E+00 -0.00000000000E+00 -0.45593999997E+02  0.45594000000E+02  0.51100000000E-03 0. -1.
         23    2    1    2    0    0  0.00000000000E+00  0.88817841970E-15  0.00000000000E+00  0.91188000000E+02  0.91188000000E+02 0.  0.
    9900012    2    3    3    0    0  0.15079565569E+02  0.59897690707E+01  0.33053117606E+02  0.54367092695E+02  0.40000019417E+02 0.  0.
         12    1    3    3    0    0 -0.15079565569E+02 -0.59897690707E+01 -0.33053117606E+02  0.36820907305E+02  0.00000000000E+00 0. -1.
         11    1    4    4    0    0 -0.14379170399E+01  0.15740942344E+01 -0.60751163073E+01  0.64383551068E+01  0.51100000000E-03 0. -1.
        -11    1    4    4    0    0  0.73427828092E+01  0.87744043701E+01  0.35242849404E+02  0.37053543229E+02  0.51100000000E-03 0.  1.
        -12    1    4    4    0    0  0.91746997998E+01 -0.43587295338E+01  0.38853845089E+01  0.10875194359E+02  0.00000000000E+00 0.  1.
</event>
<event>
 8    1  0.2516265E-006  0.9118800E+02  0.7816164E-02  0.1184000E+00
        -11   -1    0    0    0    0  0.00000000000E+00  0.00000000000E+00  0.45593999997E+02  0.45594000000E+02  0.51100000000E-03 0. -1.
         11   -1    0    0    0    0 -0.00000000000E+00 -0.00000000000E+00 -0.45593999997E+02  0.45594000000E+02  0.51100000000E-03 0.  1.
         23    2    1    2    0    0 -0.88817841970E-15 -0.35527136788E-14  0.00000000000E+00  0.91188000000E+02  0.91188000000E+02 0.  0.
    9900012    2    3    3    0    0  0.40433021195E+01 -0.26084281074E+02 -0.25671801123E+02  0.54367090396E+02  0.40000014176E+02 0.  0.
         12    1    3    3    0    0 -0.40433021195E+01  0.26084281074E+02  0.25671801123E+02  0.36820909604E+02  0.00000000000E+00 0. -1.
         11    1    4    4    0    0  0.62383195390E+01  0.63883670349E+01 -0.51817939219E+01  0.10323703432E+02  0.51100000000E-03 0. -1.
        -11    1    4    4    0    0 -0.28874686108E+01 -0.67028562118E+01 -0.16388383056E+02  0.17940035001E+02  0.51100000000E-03 0.  1.
         12    1    4    4    0    0  0.69245119125E+00 -0.25769791897E+02 -0.41016241445E+01  0.26103351963E+02  0.00000000000E+00 0. -1.
</event>
<event>
 8    1  0.2516265E-006  0.9118800E+02  0.7816164E-02  0.1184000E+00
        -11   -1    0    0    0    0  0.00000000000E+00  0.00000000000E+00  0.45593999997E+02  0.45594000000E+02  0.51100000000E-03 0.  1.
         11   -1    0    0    0    0 -0.00000000000E+00 -0.00000000000E+00 -0.45593999997E+02  0.45594000000E+02  0.51100000000E-03 0. -1.
         23    2    1    2    0    0  0.00000000000E+00  0.00000000000E+00  0.35527136788E-14  0.91188000000E+02  0.91188000000E+02 0.  0.
    9900012    2    3    3    0    0  0.28458203305E+02  0.76830111428E+01 -0.22065335860E+02  0.54367122197E+02  0.40000086672E+02 0.  0.
        -12    1    3    3    0    0 -0.28458203305E+02 -0.76830111428E+01  0.22065335860E+02  0.36820877803E+02  0.00000000000E+00 0.  1.
         11    1    4    4    0    0  0.12529003882E+01  0.63768886504E+01 -0.59266966367E+01  0.87954648272E+01  0.51100000000E-03 0. -1.
        -11    1    4    4    0    0  0.43554914961E+01 -0.13123749703E+02  0.49805304495E+00  0.13836588074E+02  0.51100000000E-03 0.  1.
        -12    1    4    4    0    0  0.22849811421E+02  0.14429872195E+02 -0.16636692268E+02  0.31735069295E+02  0.00000000000E+00 0.  1.
</event>
<event>
 8    1  0.2516265E-006  0.9118800E+02  0.7816164E-02  0.1184000E+00
        -11   -1    0    0    0    0  0.00000000000E+00  0.00000000000E+00  0.45593999997E+02  0.45594000000E+02  0.51100000000E-03 0. -1.
         11   -1    0    0    0    0 -0.00000000000E+00 -0.00000000000E+00 -0.45593999997E+02  0.45594000000E+02  0.51100000000E-03 0.  1.
         23    2    1    2    0    0  0.00000000000E+00 -0.22204460493E-14 -0.88817841970E-15  0.91188000000E+02  0.91188000000E+02 0.  0.
    9900012    2    3    3    0    0  0.36512567871E+02 -0.20847767124E+01  0.42737643323E+01  0.54367096045E+02  0.40000027054E+02 0.  0.
         12    1    3    3    0    0 -0.36512567871E+02  0.20847767124E+01 -0.42737643323E+01  0.36820903955E+02  0.00000000000E+00 0. -1.
         11    1    4    4    0    0  0.31069429643E+01  0.63623691025E+01  0.10571759864E+02  0.12723794326E+02  0.51100000000E-03 0. -1.
        -11    1    4    4    0    0  0.11581831334E+02  0.74517161856E+01 -0.48590946863E+01  0.14604030012E+02  0.51100000000E-03 0.  1.
         12    1    4    4    0    0  0.21823793573E+02 -0.15898862000E+02 -0.14389008450E+01  0.27039271708E+02  0.00000000000E+00 0. -1.
</event>
<event>
 8    1  0.2516265E-006  0.9118800E+02  0.7816164E-02  0.1184000E+00
        -11   -1    0    0    0    0  0.00000000000E+00  0.00000000000E+00  0.45593999997E+02  0.45594000000E+02  0.51100000000E-03 0. -1.
         11   -1    0    0    0    0 -0.00000000000E+00 -0.00000000000E+00 -0.45593999997E+02  0.45594000000E+02  0.51100000000E-03 0.  1.
         23    2    1    2    0    0  0.00000000000E+00  0.35527136788E-14  0.35527136788E-14  0.91188000000E+02  0.91188000000E+02 0.  0.
    9900012    2    3    3    0    0  0.77292945980E+01 -0.25999531678E+02 -0.24901061531E+02  0.54367075136E+02  0.39999979387E+02 0.  0.
         12    1    3    3    0    0 -0.77292945980E+01  0.25999531678E+02  0.24901061531E+02  0.36820924864E+02  0.00000000000E+00 0. -1.
         11    1    4    4    0    0 -0.40344192118E+01  0.54679565052E+01 -0.27337110016E+01  0.73244974449E+01  0.51100000000E-03 0. -1.
        -11    1    4    4    0    0  0.86758505589E+01 -0.28963712166E+02 -0.65623369223E+01  0.30939154344E+02  0.51100000000E-03 0.  1.
        -12    1    4    4    0    0  0.30878632510E+01 -0.25037760174E+01 -0.15605013608E+02  0.16103423347E+02  0.00000000000E+00 0.  1.
</event>
<event>
 8    1  0.2516265E-006  0.9118800E+02  0.7816164E-02  0.1184000E+00
        -11   -1    0    0    0    0  0.00000000000E+00  0.00000000000E+00  0.45593999997E+02  0.45594000000E+02  0.51100000000E-03 0.  1.
         11   -1    0    0    0    0 -0.00000000000E+00 -0.00000000000E+00 -0.45593999997E+02  0.45594000000E+02  0.51100000000E-03 0. -1.
         23    2    1    2    0    0  0.00000000000E+00  0.88817841970E-15  0.00000000000E+00  0.91188000000E+02  0.91188000000E+02 0.  0.
    9900012    2    3    3    0    0 -0.25387223638E+02 -0.11620059742E+01 -0.26644293337E+02  0.54367085436E+02  0.40000002868E+02 0.  0.
        -12    1    3    3    0    0  0.25387223638E+02  0.11620059742E+01  0.26644293337E+02  0.36820914564E+02  0.00000000000E+00 0.  1.
         11    1    4    4    0    0 -0.13369852208E+02 -0.18152834321E+02 -0.19307485257E+02  0.29682609878E+02  0.51100000000E-03 0. -1.
        -11    1    4    4    0    0 -0.76082253140E+01  0.15002334802E+02 -0.95743531944E+01  0.19355190035E+02  0.51100000000E-03 0.  1.
        -12    1    4    4    0    0 -0.44091461159E+01  0.19884935453E+01  0.22375451144E+01  0.53292855234E+01  0.00000000000E+00 0.  1.
</event>
<event>
 8    1  0.2516265E-006  0.9118800E+02  0.7816164E-02  0.1184000E+00
        -11   -1    0    0    0    0  0.00000000000E+00  0.00000000000E+00  0.45593999997E+02  0.45594000000E+02  0.51100000000E-03 0.  1.
         11   -1    0    0    0    0 -0.00000000000E+00 -0.00000000000E+00 -0.45593999997E+02  0.45594000000E+02  0.51100000000E-03 0. -1.
         23    2    1    2    0    0  0.17763568394E-14  0.00000000000E+00  0.71054273576E-14  0.91188000000E+02  0.91188000000E+02 0.  0.
    9900012    2    3    3    0    0 -0.86366885023E+01  0.78288220362E+01 -0.34927011585E+02  0.54367095869E+02  0.40000026652E+02 0.  0.
        -12    1    3    3    0    0  0.86366885023E+01 -0.78288220362E+01  0.34927011585E+02  0.36820904131E+02  0.00000000000E+00 0.  1.
         11    1    4    4    0    0 -0.13650271796E+01  0.17870501733E+01 -0.31351097379E+02  0.31431642570E+02  0.51100000000E-03 0. -1.
        -11    1    4    4    0    0 -0.50618269994E+01  0.13593902011E+02 -0.40251458289E+01  0.15053838835E+02  0.51100000000E-03 0.  1.
        -12    1    4    4    0    0 -0.22098343233E+01 -0.75521301481E+01  0.44923162225E+00  0.78816144641E+01  0.00000000000E+00 0.  1.
</event>
<event>
 8    1  0.2516265E-006  0.9118800E+02  0.7816164E-02  0.1184000E+00
        -11   -1    0    0    0    0  0.00000000000E+00  0.00000000000E+00  0.45593999997E+02  0.45594000000E+02  0.51100000000E-03 0.  1.
         11   -1    0    0    0    0 -0.00000000000E+00 -0.00000000000E+00 -0.45593999997E+02  0.45594000000E+02  0.51100000000E-03 0. -1.
         23    2    1    2    0    0  0.88817841970E-15  0.17763568394E-14  0.00000000000E+00  0.91188000000E+02  0.91188000000E+02 0.  0.
    9900012    2    3    3    0    0 -0.58667915898E+01  0.93433355196E+01 -0.35129202570E+02  0.54367108710E+02  0.40000055926E+02 0.  0.
        -12    1    3    3    0    0  0.58667915898E+01 -0.93433355196E+01  0.35129202570E+02  0.36820891290E+02  0.00000000000E+00 0.  1.
         11    1    4    4    0    0 -0.59199470339E+01  0.11211193774E+02 -0.93726197965E+01  0.15766503760E+02  0.51100000000E-03 0. -1.
        -11    1    4    4    0    0 -0.12205335669E+02  0.55492501644E+01 -0.17562029681E+02  0.22095005838E+02  0.51100000000E-03 0.  1.
        -12    1    4    4    0    0  0.12258491113E+02 -0.74171084184E+01 -0.81945530924E+01  0.16505599112E+02  0.00000000000E+00 0.  1.
</event>
<event>
 8    1  0.2516265E-006  0.9118800E+02  0.7816164E-02  0.1184000E+00
        -11   -1    0    0    0    0  0.00000000000E+00  0.00000000000E+00  0.45593999997E+02  0.45594000000E+02  0.51100000000E-03 0. -1.
         11   -1    0    0    0    0 -0.00000000000E+00 -0.00000000000E+00 -0.45593999997E+02  0.45594000000E+02  0.51100000000E-03 0.  1.
         23    2    1    2    0    0 -0.71054273576E-14 -0.17763568394E-14 -0.17763568394E-14  0.91188000000E+02  0.91188000000E+02 0.  0.
    9900012    2    3    3    0    0  0.35434427603E+02  0.50838703849E+01  0.86218297802E+01  0.54367077328E+02  0.39999984385E+02 0.  0.
        -12    1    3    3    0    0 -0.35434427603E+02 -0.50838703849E+01 -0.86218297802E+01  0.36820922672E+02  0.00000000000E+00 0.  1.
         11    1    4    4    0    0  0.22883326470E+02  0.17489072113E+02  0.10598287996E+02  0.30689378984E+02  0.51100000000E-03 0. -1.
        -11    1    4    4    0    0  0.27560659586E+01  0.37160231123E+01  0.49467970330E+00  0.46528954007E+01  0.51100000000E-03 0.  1.
        -12    1    4    4    0    0  0.97950351747E+01 -0.16121224841E+02 -0.24711379194E+01  0.19024802944E+02  0.00000000000E+00 0.  1.
</event>
<event>
 8    1  0.2516265E-006  0.9118800E+02  0.7816164E-02  0.1184000E+00
        -11   -1    0    0    0    0  0.00000000000E+00  0.00000000000E+00  0.45593999997E+02  0.45594000000E+02  0.51100000000E-03 0. -1.
         11   -1    0    0    0    0 -0.00000000000E+00 -0.00000000000E+00 -0.45593999997E+02  0.45594000000E+02  0.51100000000E-03 0.  1.
         23    2    1    2    0    0  0.00000000000E+00  0.00000000000E+00 -0.35527136788E-14  0.91188000000E+02  0.91188000000E+02 0.  0.
    9900012    2    3    3    0    0 -0.31031775779E+02 -0.10119974105E+02 -0.17040979832E+02  0.54367082337E+02  0.39999995804E+02 0.  0.
         12    1    3    3    0    0  0.31031775779E+02  0.10119974105E+02  0.17040979832E+02  0.36820917663E+02  0.00000000000E+00 0. -1.
         11    1    4    4    0    0 -0.87868134179E+01 -0.53899439071E+01  0.44258497595E+01  0.11218187542E+02  0.51100000000E-03 0. -1.
        -11    1    4    4    0    0 -0.20232432601E+02 -0.92061956388E+01 -0.11614203176E+01  0.22258801956E+02  0.51100000000E-03 0.  1.
         12    1    4    4    0    0 -0.20125297605E+01  0.44761654411E+01 -0.20305409274E+02  0.20890092840E+02  0.00000000000E+00 0. -1.
</event>
<event>
 8    1  0.2516265E-006  0.9118800E+02  0.7816164E-02  0.1184000E+00
        -11   -1    0    0    0    0  0.00000000000E+00  0.00000000000E+00  0.45593999997E+02  0.45594000000E+02  0.51100000000E-03 0. -1.
         11   -1    0    0    0    0 -0.00000000000E+00 -0.00000000000E+00 -0.45593999997E+02  0.45594000000E+02  0.51100000000E-03 0.  1.
         23    2    1    2    0    0 -0.44408920985E-15  0.71054273576E-14  0.35527136788E-14  0.91188000000E+02  0.91188000000E+02 0.  0.
    9900012    2    3    3    0    0  0.37386614090E+01 -0.31390120236E+02 -0.18880267723E+02  0.54367058311E+02  0.39999941032E+02 0.  0.
         12    1    3    3    0    0 -0.37386614090E+01  0.31390120236E+02  0.18880267723E+02  0.36820941689E+02  0.00000000000E+00 0. -1.
         11    1    4    4    0    0 -0.96577741948E+01 -0.74102012516E+01 -0.32664177542E+01  0.12603696688E+02  0.51100000000E-03 0. -1.
        -11    1    4    4    0    0 -0.62381473687E+01 -0.93919932386E+01  0.22204358744E+01  0.11491490561E+02  0.51100000000E-03 0.  1.
         12    1    4    4    0    0  0.19634582973E+02 -0.14587925746E+02 -0.17834285844E+02  0.30271871062E+02  0.00000000000E+00 0. -1.
</event>
<event>
 8    1  0.2516265E-006  0.9118800E+02  0.7816164E-02  0.1184000E+00
        -11   -1    0    0    0    0  0.00000000000E+00  0.00000000000E+00  0.45593999997E+02  0.45594000000E+02  0.51100000000E-03 0.  1.
         11   -1    0    0    0    0 -0.00000000000E+00 -0.00000000000E+00 -0.45593999997E+02  0.45594000000E+02  0.51100000000E-03 0. -1.
         23    2    1    2    0    0  0.00000000000E+00  0.00000000000E+00 -0.88817841970E-15  0.91188000000E+02  0.91188000000E+02 0.  0.
    9900012    2    3    3    0    0  0.19420377005E+02 -0.31110773758E+02 -0.32766131531E+01  0.54367252036E+02  0.40000382665E+02 0.  0.
        -12    1    3    3    0    0 -0.19420377005E+02  0.31110773758E+02  0.32766131531E+01  0.36820747964E+02  0.00000000000E+00 0.  1.
         11    1    4    4    0    0  0.18390503312E+01 -0.23731764187E+01 -0.90834211088E+01  0.95667450962E+01  0.51100000000E-03 0. -1.
        -11    1    4    4    0    0  0.96363717141E+01 -0.73428007666E+01 -0.11073846842E+02  0.16413606156E+02  0.51100000000E-03 0.  1.
        -12    1    4    4    0    0  0.79449549596E+01 -0.21394796573E+02  0.16880654798E+02  0.28386900784E+02  0.00000000000E+00 0.  1.
</event>
<event>
 8    1  0.2516265E-006  0.9118800E+02  0.7816164E-02  0.1184000E+00
        -11   -1    0    0    0    0  0.00000000000E+00  0.00000000000E+00  0.45593999997E+02  0.45594000000E+02  0.51100000000E-03 0.  1.
         11   -1    0    0    0    0 -0.00000000000E+00 -0.00000000000E+00 -0.45593999997E+02  0.45594000000E+02  0.51100000000E-03 0. -1.
         23    2    1    2    0    0  0.00000000000E+00  0.35527136788E-14  0.00000000000E+00  0.91188000000E+02  0.91188000000E+02 0.  0.
    9900012    2    3    3    0    0  0.17500761894E+02  0.29592516110E+02  0.13182808525E+02  0.54367080441E+02  0.39999991480E+02 0.  0.
         12    1    3    3    0    0 -0.17500761894E+02 -0.29592516110E+02 -0.13182808525E+02  0.36820919559E+02  0.00000000000E+00 0. -1.
         11    1    4    4    0    0 -0.26552000705E+01 -0.37154288908E+01 -0.21063847932E+01  0.50290512440E+01  0.51100000000E-03 0. -1.
        -11    1    4    4    0    0  0.12190805252E+02  0.70524117872E+01  0.16722984210E+02  0.21863449999E+02  0.51100000000E-03 0.  1.
        -12    1    4    4    0    0  0.79651567124E+01  0.26255533213E+02 -0.14337908910E+01  0.27474579198E+02  0.00000000000E+00 0.  1.
</event>
<event>
 8    1  0.2516265E-006  0.9118800E+02  0.7816164E-02  0.1184000E+00
        -11   -1    0    0    0    0  0.00000000000E+00  0.00000000000E+00  0.45593999997E+02  0.45594000000E+02  0.51100000000E-03 0. -1.
         11   -1    0    0    0    0 -0.00000000000E+00 -0.00000000000E+00 -0.45593999997E+02  0.45594000000E+02  0.51100000000E-03 0.  1.
         23    2    1    2    0    0 -0.88817841970E-15  0.00000000000E+00  0.35527136788E-14  0.91188000000E+02  0.91188000000E+02 0.  0.
    9900012    2    3    3    0    0  0.43292833538E+01 -0.22137975634E+02 -0.29102389784E+02  0.54367058259E+02  0.39999940914E+02 0.  0.
         12    1    3    3    0    0 -0.43292833538E+01  0.22137975634E+02  0.29102389784E+02  0.36820941741E+02  0.00000000000E+00 0. -1.
         11    1    4    4    0    0  0.68392642051E+01 -0.12079459808E+02 -0.46634677978E+01  0.14643661301E+02  0.51100000000E-03 0. -1.
        -11    1    4    4    0    0  0.10004477693E+02 -0.13269986902E+02 -0.20130506181E+02  0.26104011294E+02  0.51100000000E-03 0.  1.
         12    1    4    4    0    0 -0.12514458545E+02  0.32114710754E+01 -0.43084158054E+01  0.13619385665E+02  0.00000000000E+00 0. -1.
</event>
<event>
 8    1  0.2516265E-006  0.9118800E+02  0.7816164E-02  0.1184000E+00
        -11   -1    0    0    0    0  0.00000000000E+00  0.00000000000E+00  0.45593999997E+02  0.45594000000E+02  0.51100000000E-03 0. -1.
         11   -1    0    0    0    0 -0.00000000000E+00 -0.00000000000E+00 -0.45593999997E+02  0.45594000000E+02  0.51100000000E-03 0.  1.
         23    2    1    2    0    0 -0.13322676296E-14 -0.11102230246E-14  0.00000000000E+00  0.91188000000E+02  0.91188000000E+02 0.  0.
    9900012    2    3    3    0    0 -0.97966866665E+00  0.96156326224E+00 -0.36795310543E+02  0.54367092454E+02  0.40000018866E+02 0.  0.
         12    1    3    3    0    0  0.97966866665E+00 -0.96156326224E+00  0.36795310543E+02  0.36820907546E+02  0.00000000000E+00 0. -1.
         11    1    4    4    0    0  0.55946288073E+00  0.84866575340E+01  0.31160340497E+01  0.90579259919E+01  0.51100000000E-03 0. -1.
        -11    1    4    4    0    0  0.60693376998E+01  0.22314329161E+01 -0.25538798791E+02  0.26344760332E+02  0.51100000000E-03 0.  1.
        -12    1    4    4    0    0 -0.76084692472E+01 -0.97565271879E+01 -0.14372545801E+02  0.18964406130E+02  0.00000000000E+00 0.  1.
</event>
<event>
 8    1  0.2516265E-006  0.9118800E+02  0.7816164E-02  0.1184000E+00
        -11   -1    0    0    0    0  0.00000000000E+00  0.00000000000E+00  0.45593999997E+02  0.45594000000E+02  0.51100000000E-03 0.  1.
         11   -1    0    0    0    0 -0.00000000000E+00 -0.00000000000E+00 -0.45593999997E+02  0.45594000000E+02  0.51100000000E-03 0. -1.
         23    2    1    2    0    0 -0.44408920985E-15  0.00000000000E+00  0.17763568394E-14  0.91188000000E+02  0.91188000000E+02 0.  0.
    9900012    2    3    3    0    0  0.33310498050E+01  0.35536437285E+02 -0.90470329588E+01  0.54367040302E+02  0.39999899976E+02 0.  0.
         12    1    3    3    0    0 -0.33310498050E+01 -0.35536437285E+02  0.90470329588E+01  0.36820959698E+02  0.00000000000E+00 0. -1.
         11    1    4    4    0    0  0.46863479928E+01  0.57634757848E+01  0.71015675146E+01  0.10276758830E+02  0.51100000000E-03 0.  1.
        -11    1    4    4    0    0 -0.95607801991E+01  0.31249070200E+02 -0.13263077755E+02  0.35267862682E+02  0.51100000000E-03 0. -1.
         12    1    4    4    0    0  0.82054820112E+01 -0.14761087000E+01 -0.28855227188E+01  0.88224187892E+01  0.00000000000E+00 0. -1.
</event>
<event>
 8    1  0.2516265E-006  0.9118800E+02  0.7816164E-02  0.1184000E+00
        -11   -1    0    0    0    0  0.00000000000E+00  0.00000000000E+00  0.45593999997E+02  0.45594000000E+02  0.51100000000E-03 0. -1.
         11   -1    0    0    0    0 -0.00000000000E+00 -0.00000000000E+00 -0.45593999997E+02  0.45594000000E+02  0.51100000000E-03 0.  1.
         23    2    1    2    0    0  0.88817841970E-15  0.35527136788E-14  0.35527136788E-14  0.91188000000E+02  0.91188000000E+02 0.  0.
    9900012    2    3    3    0    0 -0.22364713044E+01 -0.23442981284E+02 -0.28305563253E+02  0.54367080858E+02  0.39999992432E+02 0.  0.
        -12    1    3    3    0    0  0.22364713044E+01  0.23442981284E+02  0.28305563253E+02  0.36820919142E+02  0.00000000000E+00 0.  1.
         11    1    4    4    0    0 -0.94554676410E+01 -0.26233542320E+02 -0.11064239262E+02  0.30000366692E+02  0.51100000000E-03 0. -1.
        -11    1    4    4    0    0  0.36346456482E+01  0.14942313108E+01  0.22350139867E+01  0.45209140646E+01  0.51100000000E-03 0.  1.
        -12    1    4    4    0    0  0.35843506885E+01  0.12963297254E+01 -0.19476337978E+02  0.19845800101E+02  0.00000000000E+00 0.  1.
</event>
<event>
 8    1  0.2516265E-006  0.9118800E+02  0.7816164E-02  0.1184000E+00
        -11   -1    0    0    0    0  0.00000000000E+00  0.00000000000E+00  0.45593999997E+02  0.45594000000E+02  0.51100000000E-03 0. -1.
         11   -1    0    0    0    0 -0.00000000000E+00 -0.00000000000E+00 -0.45593999997E+02  0.45594000000E+02  0.51100000000E-03 0.  1.
         23    2    1    2    0    0  0.00000000000E+00 -0.44408920985E-15  0.00000000000E+00  0.91188000000E+02  0.91188000000E+02 0.  0.
    9900012    2    3    3    0    0  0.13029080273E+02  0.11192307146E+01  0.34420498299E+02  0.54367077777E+02  0.39999985409E+02 0.  0.
        -12    1    3    3    0    0 -0.13029080273E+02 -0.11192307146E+01 -0.34420498299E+02  0.36820922223E+02  0.00000000000E+00 0.  1.
         11    1    4    4    0    0  0.13117570216E+02  0.53336254020E+00  0.16317301853E+02  0.20943005133E+02  0.51100000000E-03 0. -1.
        -11    1    4    4    0    0  0.10329871742E+02 -0.87313541405E+01  0.12328569829E+02  0.18301268525E+02  0.51100000000E-03 0.  1.
         12    1    4    4    0    0 -0.10418361685E+02  0.93172223149E+01  0.57746266175E+01  0.15122804120E+02  0.00000000000E+00 0. -1.
</event>
<event>
 8    1  0.2516265E-006  0.9118800E+02  0.7816164E-02  0.1184000E+00
        -11   -1    0    0    0    0  0.00000000000E+00  0.00000000000E+00  0.45593999997E+02  0.45594000000E+02  0.51100000000E-03 0.  1.
         11   -1    0    0    0    0 -0.00000000000E+00 -0.00000000000E+00 -0.45593999997E+02  0.45594000000E+02  0.51100000000E-03 0. -1.
         23    2    1    2    0    0  0.71054273576E-14  0.88817841970E-15  0.88817841970E-15  0.91188000000E+02  0.91188000000E+02 0.  0.
    9900012    2    3    3    0    0  0.36558516516E+02  0.42250110938E+01  0.11842833832E+01  0.54367104088E+02  0.40000045390E+02 0.  0.
         12    1    3    3    0    0 -0.36558516516E+02 -0.42250110938E+01 -0.11842833832E+01  0.36820895912E+02  0.00000000000E+00 0. -1.
         11    1    4    4    0    0  0.89181887254E+01 -0.49366960797E+01 -0.64110865481E+01  0.12041888943E+02  0.51100000000E-03 0. -1.
        -11    1    4    4    0    0  0.29109774659E+02 -0.29441699911E+01  0.35288207095E+01  0.29470318857E+02  0.51100000000E-03 0.  1.
         12    1    4    4    0    0 -0.14694468685E+01  0.12105877165E+02  0.40665492217E+01  0.12854896289E+02  0.00000000000E+00 0. -1.
</event>
<event>
 8    1  0.2516265E-006  0.9118800E+02  0.7816164E-02  0.1184000E+00
        -11   -1    0    0    0    0  0.00000000000E+00  0.00000000000E+00  0.45593999997E+02  0.45594000000E+02  0.51100000000E-03 0.  1.
         11   -1    0    0    0    0 -0.00000000000E+00 -0.00000000000E+00 -0.45593999997E+02  0.45594000000E+02  0.51100000000E-03 0. -1.
         23    2    1    2    0    0  0.35527136788E-14 -0.17763568394E-14  0.35527136788E-14  0.91188000000E+02  0.91188000000E+02 0.  0.
    9900012    2    3    3    0    0 -0.26622949333E+02  0.10882933239E+02  0.22990432666E+02  0.54367086632E+02  0.40000005595E+02 0.  0.
         12    1    3    3    0    0  0.26622949333E+02 -0.10882933239E+02 -0.22990432666E+02  0.36820913368E+02  0.00000000000E+00 0. -1.
         11    1    4    4    0    0 -0.44573875558E+01 -0.59168909844E+01  0.35817255362E+01  0.82284057278E+01  0.51100000000E-03 0. -1.
        -11    1    4    4    0    0 -0.14124227789E+01 -0.28713444975E+01  0.17160057441E+02  0.17455862309E+02  0.51100000000E-03 0.  1.
        -12    1    4    4    0    0 -0.20753138998E+02  0.19671168721E+02  0.22486496893E+01  0.28682818595E+02  0.00000000000E+00 0.  1.
</event>
<event>
 8    1  0.2516265E-006  0.9118800E+02  0.7816164E-02  0.1184000E+00
        -11   -1    0    0    0    0  0.00000000000E+00  0.00000000000E+00  0.45593999997E+02  0.45594000000E+02  0.51100000000E-03 0.  1.
         11   -1    0    0    0    0 -0.00000000000E+00 -0.00000000000E+00 -0.45593999997E+02  0.45594000000E+02  0.51100000000E-03 0. -1.
         23    2    1    2    0    0  0.00000000000E+00 -0.35527136788E-14  0.00000000000E+00  0.91188000000E+02  0.91188000000E+02 0.  0.
    9900012    2    3    3    0    0  0.30917717843E+02  0.19416618569E+02  0.47824156813E+01  0.54367056870E+02  0.39999937746E+02 0.  0.
         12    1    3    3    0    0 -0.30917717843E+02 -0.19416618569E+02 -0.47824156813E+01  0.36820943130E+02  0.00000000000E+00 0. -1.
         11    1    4    4    0    0  0.44036892349E+01  0.11066159263E+01 -0.10872412257E+01  0.46689582810E+01  0.51100000000E-03 0. -1.
        -11    1    4    4    0    0  0.28196715877E+02  0.79197283460E+01 -0.97455031418E+01  0.30866676450E+02  0.51100000000E-03 0.  1.
         12    1    4    4    0    0 -0.16826872693E+01  0.10390274296E+02  0.15615160049E+02  0.18831422138E+02  0.00000000000E+00 0. -1.
</event>
<event>
 8    1  0.2516265E-006  0.9118800E+02  0.7816164E-02  0.1184000E+00
        -11   -1    0    0    0    0  0.00000000000E+00  0.00000000000E+00  0.45593999997E+02  0.45594000000E+02  0.51100000000E-03 0. -1.
         11   -1    0    0    0    0 -0.00000000000E+00 -0.00000000000E+00 -0.45593999997E+02  0.45594000000E+02  0.51100000000E-03 0.  1.
         23    2    1    2    0    0 -0.17763568394E-14 -0.17763568394E-14  0.35527136788E-14  0.91188000000E+02  0.91188000000E+02 0.  0.
    9900012    2    3    3    0    0  0.15664588522E+02  0.11124733509E+02 -0.31410875530E+02  0.54367053098E+02  0.39999929147E+02 0.  0.
        -12    1    3    3    0    0 -0.15664588522E+02 -0.11124733509E+02  0.31410875530E+02  0.36820946902E+02  0.00000000000E+00 0.  1.
         11    1    4    4    0    0  0.51336449393E+01 -0.22822934187E+01 -0.39092383736E+01  0.68443639978E+01  0.51100000000E-03 0. -1.
        -11    1    4    4    0    0  0.10351288961E+02 -0.10521284193E+02 -0.11869045985E+02  0.18939927589E+02  0.51100000000E-03 0.  1.
        -12    1    4    4    0    0  0.17965462168E+00  0.23928311121E+02 -0.15632591171E+02  0.28582761511E+02  0.00000000000E+00 0.  1.
</event>
<event>
 8    1  0.2516265E-006  0.9118800E+02  0.7816164E-02  0.1184000E+00
        -11   -1    0    0    0    0  0.00000000000E+00  0.00000000000E+00  0.45593999997E+02  0.45594000000E+02  0.51100000000E-03 0.  1.
         11   -1    0    0    0    0 -0.00000000000E+00 -0.00000000000E+00 -0.45593999997E+02  0.45594000000E+02  0.51100000000E-03 0. -1.
         23    2    1    2    0    0  0.00000000000E+00 -0.71054273576E-14  0.00000000000E+00  0.91188000000E+02  0.91188000000E+02 0.  0.
    9900012    2    3    3    0    0 -0.10048393060E+02  0.30980200210E+02  0.17176622310E+02  0.54367090694E+02  0.40000014855E+02 0.  0.
         12    1    3    3    0    0  0.10048393060E+02 -0.30980200210E+02 -0.17176622310E+02  0.36820909306E+02  0.00000000000E+00 0. -1.
         11    1    4    4    0    0  0.50728945822E+01  0.13915581303E+01  0.13422611050E+02  0.14416559268E+02  0.51100000000E-03 0.  1.
        -11    1    4    4    0    0 -0.16891131839E+02  0.98276923337E+01 -0.93302134052E+00  0.19564365579E+02  0.51100000000E-03 0. -1.
        -12    1    4    4    0    0  0.17698441964E+01  0.19760949746E+02  0.46870326004E+01  0.20386165847E+02  0.00000000000E+00 0.  1.
</event>
<event>
 8    1  0.2516265E-006  0.9118800E+02  0.7816164E-02  0.1184000E+00
        -11   -1    0    0    0    0  0.00000000000E+00  0.00000000000E+00  0.45593999997E+02  0.45594000000E+02  0.51100000000E-03 0.  1.
         11   -1    0    0    0    0 -0.00000000000E+00 -0.00000000000E+00 -0.45593999997E+02  0.45594000000E+02  0.51100000000E-03 0. -1.
         23    2    1    2    0    0  0.00000000000E+00 -0.35527136788E-14  0.35527136788E-14  0.91188000000E+02  0.91188000000E+02 0.  0.
    9900012    2    3    3    0    0  0.11587205435E+01 -0.26527686145E+02  0.25509093932E+02  0.54367154834E+02  0.40000161075E+02 0.  0.
         12    1    3    3    0    0 -0.11587205435E+01  0.26527686145E+02 -0.25509093932E+02  0.36820845166E+02  0.00000000000E+00 0. -1.
         11    1    4    4    0    0  0.18795369072E+01 -0.24635109871E+02 -0.25185706910E+01  0.24834743726E+02  0.51100000000E-03 0. -1.
        -11    1    4    4    0    0  0.32364376047E-02 -0.50448968091E+01  0.23054205296E+02  0.23599732549E+02  0.51100000000E-03 0.  1.
        -12    1    4    4    0    0 -0.72405280125E+00  0.31523205347E+01  0.49734593263E+01  0.59326785589E+01  0.00000000000E+00 0.  1.
</event>
<event>
 8    1  0.2516265E-006  0.9118800E+02  0.7816164E-02  0.1184000E+00
        -11   -1    0    0    0    0  0.00000000000E+00  0.00000000000E+00  0.45593999997E+02  0.45594000000E+02  0.51100000000E-03 0.  1.
         11   -1    0    0    0    0 -0.00000000000E+00 -0.00000000000E+00 -0.45593999997E+02  0.45594000000E+02  0.51100000000E-03 0. -1.
         23    2    1    2    0    0  0.35527136788E-14 -0.35527136788E-14  0.27755575616E-14  0.91188000000E+02  0.91188000000E+02 0.  0.
    9900012    2    3    3    0    0 -0.30333658192E+02 -0.20868416189E+02  0.39621367630E+00  0.54367101059E+02  0.40000038485E+02 0.  0.
         12    1    3    3    0    0  0.30333658192E+02  0.20868416189E+02 -0.39621367630E+00  0.36820898941E+02  0.00000000000E+00 0. -1.
         11    1    4    4    0    0 -0.28118311045E+01 -0.64478244240E+01 -0.12658162518E+02  0.14481364320E+02  0.51100000000E-03 0. -1.
        -11    1    4    4    0    0 -0.14231713567E+02 -0.92989542693E+00  0.15180708028E+02  0.20829312832E+02  0.51100000000E-03 0.  1.
        -12    1    4    4    0    0 -0.13290113520E+02 -0.13490696338E+02 -0.21263318335E+01  0.19056423907E+02  0.00000000000E+00 0.  1.
</event>
<event>
 8    1  0.2516265E-006  0.9118800E+02  0.7816164E-02  0.1184000E+00
        -11   -1    0    0    0    0  0.00000000000E+00  0.00000000000E+00  0.45593999997E+02  0.45594000000E+02  0.51100000000E-03 0. -1.
         11   -1    0    0    0    0 -0.00000000000E+00 -0.00000000000E+00 -0.45593999997E+02  0.45594000000E+02  0.51100000000E-03 0.  1.
         23    2    1    2    0    0  0.35527136788E-14 -0.35527136788E-14  0.00000000000E+00  0.91188000000E+02  0.91188000000E+02 0.  0.
    9900012    2    3    3    0    0 -0.23423963770E+02 -0.24860477941E+02 -0.13749622912E+02  0.54367114997E+02  0.40000070259E+02 0.  0.
         12    1    3    3    0    0  0.23423963770E+02  0.24860477941E+02  0.13749622912E+02  0.36820885003E+02  0.00000000000E+00 0. -1.
         11    1    4    4    0    0  0.86379470058E+01  0.28978956035E+01 -0.95889361373E+00  0.91614084412E+01  0.51100000000E-03 0. -1.
        -11    1    4    4    0    0 -0.13818068452E+02 -0.14581573349E+02 -0.18252690923E+01  0.20171586566E+02  0.51100000000E-03 0.  1.
         12    1    4    4    0    0 -0.18243842324E+02 -0.13176800196E+02 -0.10965460206E+02  0.25034119990E+02  0.00000000000E+00 0. -1.
</event>
<event>
 8    1  0.2516265E-006  0.9118800E+02  0.7816164E-02  0.1184000E+00
        -11   -1    0    0    0    0  0.00000000000E+00  0.00000000000E+00  0.45593999997E+02  0.45594000000E+02  0.51100000000E-03 0.  1.
         11   -1    0    0    0    0 -0.00000000000E+00 -0.00000000000E+00 -0.45593999997E+02  0.45594000000E+02  0.51100000000E-03 0. -1.
         23    2    1    2    0    0 -0.24424906542E-14 -0.88817841970E-15  0.00000000000E+00  0.91188000000E+02  0.91188000000E+02 0.  0.
    9900012    2    3    3    0    0  0.10626616220E+01 -0.73840404622E+01  0.36057267020E+02  0.54367084636E+02  0.40000001045E+02 0.  0.
         12    1    3    3    0    0 -0.10626616220E+01  0.73840404622E+01 -0.36057267020E+02  0.36820915364E+02  0.00000000000E+00 0. -1.
         11    1    4    4    0    0 -0.16396666611E+02  0.38945669362E+01  0.11493127763E+02  0.20398782160E+02  0.51100000000E-03 0. -1.
        -11    1    4    4    0    0  0.52590900231E+01 -0.25731285023E+01  0.15217728036E+02  0.16305160686E+02  0.51100000000E-03 0.  1.
         12    1    4    4    0    0  0.12200238210E+02 -0.87054788961E+01  0.93464112212E+01  0.17663141790E+02  0.00000000000E+00 0. -1.
</event>
<event>
 8    1  0.2516265E-006  0.9118800E+02  0.7816164E-02  0.1184000E+00
        -11   -1    0    0    0    0  0.00000000000E+00  0.00000000000E+00  0.45593999997E+02  0.45594000000E+02  0.51100000000E-03 0. -1.
         11   -1    0    0    0    0 -0.00000000000E+00 -0.00000000000E+00 -0.45593999997E+02  0.45594000000E+02  0.51100000000E-03 0.  1.
         23    2    1    2    0    0  0.00000000000E+00 -0.35527136788E-14  0.00000000000E+00  0.91188000000E+02  0.91188000000E+02 0.  0.
    9900012    2    3    3    0    0  0.25374086878E+02  0.19520406070E+02  0.18190708253E+02  0.54366913585E+02  0.39999611098E+02 0.  0.
        -12    1    3    3    0    0 -0.25374086878E+02 -0.19520406070E+02 -0.18190708253E+02  0.36821086415E+02  0.00000000000E+00 0.  1.
         11    1    4    4    0    0  0.12976060258E+02  0.22021243169E+02  0.19476736707E+02  0.32134974148E+02  0.51100000000E-03 0. -1.
        -11    1    4    4    0    0  0.75909913848E+01 -0.10376996872E+02  0.34473111847E+00  0.12861728270E+02  0.51100000000E-03 0.  1.
        -12    1    4    4    0    0  0.48070352352E+01  0.78761597734E+01 -0.16307595724E+01  0.93702111668E+01  0.00000000000E+00 0.  1.
</event>
<event>
 8    1  0.2516265E-006  0.9118800E+02  0.7816164E-02  0.1184000E+00
        -11   -1    0    0    0    0  0.00000000000E+00  0.00000000000E+00  0.45593999997E+02  0.45594000000E+02  0.51100000000E-03 0.  1.
         11   -1    0    0    0    0 -0.00000000000E+00 -0.00000000000E+00 -0.45593999997E+02  0.45594000000E+02  0.51100000000E-03 0. -1.
         23    2    1    2    0    0  0.77715611724E-15 -0.71054273576E-14  0.17763568394E-14  0.91188000000E+02  0.91188000000E+02 0.  0.
    9900012    2    3    3    0    0  0.32011375485E+00 -0.35717314503E+02  0.89414929368E+01  0.54367091211E+02  0.40000016034E+02 0.  0.
         12    1    3    3    0    0 -0.32011375485E+00  0.35717314503E+02 -0.89414929368E+01  0.36820908789E+02  0.00000000000E+00 0. -1.
         11    1    4    4    0    0  0.55278031943E+01 -0.11269039290E+01 -0.37895088880E+01  0.67960943558E+01  0.51100000000E-03 0. -1.
        -11    1    4    4    0    0 -0.82688610307E+01 -0.10131674702E+02  0.18113054418E+02  0.22340716990E+02  0.51100000000E-03 0.  1.
        -12    1    4    4    0    0  0.30611715913E+01 -0.24458735871E+02 -0.53820525934E+01  0.25230279865E+02  0.00000000000E+00 0.  1.
</event>
<event>
 8    1  0.2516265E-006  0.9118800E+02  0.7816164E-02  0.1184000E+00
        -11   -1    0    0    0    0  0.00000000000E+00  0.00000000000E+00  0.45593999997E+02  0.45594000000E+02  0.51100000000E-03 0. -1.
         11   -1    0    0    0    0 -0.00000000000E+00 -0.00000000000E+00 -0.45593999997E+02  0.45594000000E+02  0.51100000000E-03 0.  1.
         23    2    1    2    0    0 -0.71054273576E-14 -0.88817841970E-15  0.00000000000E+00  0.91188000000E+02  0.91188000000E+02 0.  0.
    9900012    2    3    3    0    0 -0.33448589181E+02 -0.59424285464E+01 -0.14200663154E+02  0.54367090054E+02  0.40000013396E+02 0.  0.
         12    1    3    3    0    0  0.33448589181E+02  0.59424285464E+01  0.14200663154E+02  0.36820909946E+02  0.00000000000E+00 0. -1.
         11    1    4    4    0    0 -0.18697807073E+02  0.84304958079E+01 -0.79929009715E+01  0.22012898835E+02  0.51100000000E-03 0. -1.
        -11    1    4    4    0    0  0.36468385890E+01 -0.12732286632E+02 -0.33758120649E+01  0.13667723363E+02  0.51100000000E-03 0.  1.
         12    1    4    4    0    0 -0.18397620697E+02 -0.16406377221E+01 -0.28319501176E+01  0.18686467856E+02  0.00000000000E+00 0. -1.
</event>
<event>
 8    1  0.2516265E-006  0.9118800E+02  0.7816164E-02  0.1184000E+00
        -11   -1    0    0    0    0  0.00000000000E+00  0.00000000000E+00  0.45593999997E+02  0.45594000000E+02  0.51100000000E-03 0.  1.
         11   -1    0    0    0    0 -0.00000000000E+00 -0.00000000000E+00 -0.45593999997E+02  0.45594000000E+02  0.51100000000E-03 0. -1.
         23    2    1    2    0    0 -0.35527136788E-14  0.88817841970E-15  0.00000000000E+00  0.91188000000E+02  0.91188000000E+02 0.  0.
    9900012    2    3    3    0    0 -0.25369792269E+02  0.41693661423E+01 -0.26358486464E+02  0.54367084986E+02  0.40000001842E+02 0.  0.
        -12    1    3    3    0    0  0.25369792269E+02 -0.41693661423E+01  0.26358486464E+02  0.36820915014E+02  0.00000000000E+00 0.  1.
         11    1    4    4    0    0 -0.29231638329E+02  0.27104194462E+01 -0.15386930082E+02  0.33145024823E+02  0.51100000000E-03 0. -1.
        -11    1    4    4    0    0 -0.39223240449E+01  0.47255965209E+01  0.13481453915E+01  0.62875579242E+01  0.51100000000E-03 0.  1.
         12    1    4    4    0    0  0.77841701047E+01 -0.32666498249E+01 -0.12319701774E+02  0.14934502238E+02  0.00000000000E+00 0. -1.
</event>
<event>
 8    1  0.2516265E-006  0.9118800E+02  0.7816164E-02  0.1184000E+00
        -11   -1    0    0    0    0  0.00000000000E+00  0.00000000000E+00  0.45593999997E+02  0.45594000000E+02  0.51100000000E-03 0.  1.
         11   -1    0    0    0    0 -0.00000000000E+00 -0.00000000000E+00 -0.45593999997E+02  0.45594000000E+02  0.51100000000E-03 0. -1.
         23    2    1    2    0    0  0.35527136788E-14 -0.35527136788E-14 -0.88817841970E-15  0.91188000000E+02  0.91188000000E+02 0.  0.
    9900012    2    3    3    0    0  0.23039953954E+02 -0.27859800037E+02 -0.69840967646E+01  0.54367006750E+02  0.39999823488E+02 0.  0.
         12    1    3    3    0    0 -0.23039953954E+02  0.27859800037E+02  0.69840967646E+01  0.36820993250E+02  0.00000000000E+00 0. -1.
         11    1    4    4    0    0  0.19806414446E+01 -0.13427350874E+02 -0.14585434508E+01  0.13650789035E+02  0.51100000000E-03 0. -1.
        -11    1    4    4    0    0  0.14072536944E+02 -0.93595689457E+01  0.12304600018E+02  0.20905525795E+02  0.51100000000E-03 0.  1.
        -12    1    4    4    0    0  0.69867755660E+01 -0.50728802167E+01 -0.17830153332E+02  0.19810691920E+02  0.00000000000E+00 0.  1.
</event>
<event>
 8    1  0.2516265E-006  0.9118800E+02  0.7816164E-02  0.1184000E+00
        -11   -1    0    0    0    0  0.00000000000E+00  0.00000000000E+00  0.45593999997E+02  0.45594000000E+02  0.51100000000E-03 0. -1.
         11   -1    0    0    0    0 -0.00000000000E+00 -0.00000000000E+00 -0.45593999997E+02  0.45594000000E+02  0.51100000000E-03 0.  1.
         23    2    1    2    0    0 -0.35527136788E-14  0.26645352591E-14  0.35527136788E-14  0.91188000000E+02  0.91188000000E+02 0.  0.
    9900012    2    3    3    0    0 -0.28553693402E+02  0.19362109713E+01  0.23167166109E+02  0.54367083318E+02  0.39999998040E+02 0.  0.
        -12    1    3    3    0    0  0.28553693402E+02 -0.19362109713E+01 -0.23167166109E+02  0.36820916682E+02  0.00000000000E+00 0.  1.
         11    1    4    4    0    0  0.34264745738E+01 -0.28832705914E+01 -0.20920920209E+00  0.44830509767E+01  0.51100000000E-03 0.  1.
        -11    1    4    4    0    0 -0.72019068939E+01 -0.11720686282E+02  0.11042310846E+02  0.17640141125E+02  0.51100000000E-03 0. -1.
        -12    1    4    4    0    0 -0.24778261082E+02  0.16540167844E+02  0.12334064465E+02  0.32243891216E+02  0.00000000000E+00 0.  1.
</event>
<event>
 8    1  0.2516265E-006  0.9118800E+02  0.7816164E-02  0.1184000E+00
        -11   -1    0    0    0    0  0.00000000000E+00  0.00000000000E+00  0.45593999997E+02  0.45594000000E+02  0.51100000000E-03 0.  1.
         11   -1    0    0    0    0 -0.00000000000E+00 -0.00000000000E+00 -0.45593999997E+02  0.45594000000E+02  0.51100000000E-03 0. -1.
         23    2    1    2    0    0  0.00000000000E+00  0.00000000000E+00  0.71054273576E-14  0.91188000000E+02  0.91188000000E+02 0.  0.
    9900012    2    3    3    0    0 -0.14680749998E+02  0.99912184335E+01  0.32255700718E+02  0.54367094320E+02  0.40000023121E+02 0.  0.
         12    1    3    3    0    0  0.14680749998E+02 -0.99912184335E+01 -0.32255700718E+02  0.36820905680E+02  0.00000000000E+00 0. -1.
         11    1    4    4    0    0 -0.82639276350E+01 -0.46872118953E+01  0.44374090907E+01  0.10485850228E+02  0.51100000000E-03 0. -1.
        -11    1    4    4    0    0  0.67010528223E+01  0.29604224406E+01 -0.33785362625E+01  0.80673860384E+01  0.51100000000E-03 0.  1.
        -12    1    4    4    0    0 -0.13117875186E+02  0.11718007888E+02  0.31196827890E+02  0.35813858053E+02  0.00000000000E+00 0.  1.
</event>
<event>
 8    1  0.2516265E-006  0.9118800E+02  0.7816164E-02  0.1184000E+00
        -11   -1    0    0    0    0  0.00000000000E+00  0.00000000000E+00  0.45593999997E+02  0.45594000000E+02  0.51100000000E-03 0. -1.
         11   -1    0    0    0    0 -0.00000000000E+00 -0.00000000000E+00 -0.45593999997E+02  0.45594000000E+02  0.51100000000E-03 0.  1.
         23    2    1    2    0    0  0.00000000000E+00 -0.44408920985E-15  0.00000000000E+00  0.91188000000E+02  0.91188000000E+02 0.  0.
    9900012    2    3    3    0    0  0.36285757524E+02  0.36533702106E+01 -0.50770616727E+01  0.54367083822E+02  0.39999999188E+02 0.  0.
         12    1    3    3    0    0 -0.36285757524E+02 -0.36533702106E+01  0.50770616727E+01  0.36820916178E+02  0.00000000000E+00 0. -1.
         11    1    4    4    0    0 -0.33097614740E+01  0.19301983388E+01  0.66147994363E+01  0.76443285177E+01  0.51100000000E-03 0. -1.
        -11    1    4    4    0    0  0.21860091922E+02  0.48473340936E+01 -0.16812536799E+02  0.28000386793E+02  0.51100000000E-03 0.  1.
         12    1    4    4    0    0  0.17735427076E+02 -0.31241622218E+01  0.51206756900E+01  0.18722368511E+02  0.00000000000E+00 0. -1.
</event>
<event>
 8    1  0.2516265E-006  0.9118800E+02  0.7816164E-02  0.1184000E+00
        -11   -1    0    0    0    0  0.00000000000E+00  0.00000000000E+00  0.45593999997E+02  0.45594000000E+02  0.51100000000E-03 0. -1.
         11   -1    0    0    0    0 -0.00000000000E+00 -0.00000000000E+00 -0.45593999997E+02  0.45594000000E+02  0.51100000000E-03 0.  1.
         23    2    1    2    0    0  0.00000000000E+00  0.00000000000E+00  0.00000000000E+00  0.91188000000E+02  0.91188000000E+02 0.  0.
    9900012    2    3    3    0    0 -0.27287172857E+02  0.23626854118E+02 -0.72775316624E+01  0.54367075173E+02  0.39999979471E+02 0.  0.
         12    1    3    3    0    0  0.27287172857E+02 -0.23626854118E+02  0.72775316624E+01  0.36820924827E+02  0.00000000000E+00 0. -1.
         11    1    4    4    0    0 -0.19433694305E+02 -0.28284537655E+01  0.40637631546E+01  0.20054495663E+02  0.51100000000E-03 0. -1.
        -11    1    4    4    0    0  0.24765510079E+01  0.16143642284E+02 -0.11039680825E+02  0.19713575122E+02  0.51100000000E-03 0.  1.
         12    1    4    4    0    0 -0.10330029560E+02  0.10311665599E+02 -0.30161399229E+00  0.14599004389E+02  0.00000000000E+00 0. -1.
</event>
<event>
 8    1  0.2516265E-006  0.9118800E+02  0.7816164E-02  0.1184000E+00
        -11   -1    0    0    0    0  0.00000000000E+00  0.00000000000E+00  0.45593999997E+02  0.45594000000E+02  0.51100000000E-03 0.  1.
         11   -1    0    0    0    0 -0.00000000000E+00 -0.00000000000E+00 -0.45593999997E+02  0.45594000000E+02  0.51100000000E-03 0. -1.
         23    2    1    2    0    0  0.00000000000E+00 -0.17763568394E-14 -0.35527136788E-14  0.91188000000E+02  0.91188000000E+02 0.  0.
    9900012    2    3    3    0    0  0.27618906769E+02  0.15921297355E+02  0.18425196181E+02  0.54367087805E+02  0.40000008268E+02 0.  0.
         12    1    3    3    0    0 -0.27618906769E+02 -0.15921297355E+02 -0.18425196181E+02  0.36820912195E+02  0.00000000000E+00 0. -1.
         11    1    4    4    0    0  0.90472887369E+01 -0.18384200328E+01 -0.16350918825E+01  0.93758598236E+01  0.51100000000E-03 0. -1.
        -11    1    4    4    0    0  0.26365070768E+02  0.97109827374E+01  0.96781425045E+01  0.29716772788E+02  0.51100000000E-03 0.  1.
         12    1    4    4    0    0 -0.77934527361E+01  0.80487346502E+01  0.10382145559E+02  0.15274455193E+02  0.00000000000E+00 0. -1.
</event>
<event>
 8    1  0.2516265E-006  0.9118800E+02  0.7816164E-02  0.1184000E+00
        -11   -1    0    0    0    0  0.00000000000E+00  0.00000000000E+00  0.45593999997E+02  0.45594000000E+02  0.51100000000E-03 0.  1.
         11   -1    0    0    0    0 -0.00000000000E+00 -0.00000000000E+00 -0.45593999997E+02  0.45594000000E+02  0.51100000000E-03 0. -1.
         23    2    1    2    0    0  0.35527136788E-14 -0.71054273576E-14 -0.35527136788E-14  0.91188000000E+02  0.91188000000E+02 0.  0.
    9900012    2    3    3    0    0  0.23960186970E+02 -0.23189140624E+02 -0.15619055098E+02  0.54367059156E+02  0.39999942958E+02 0.  0.
        -12    1    3    3    0    0 -0.23960186970E+02  0.23189140624E+02  0.15619055098E+02  0.36820940844E+02  0.00000000000E+00 0.  1.
         11    1    4    4    0    0  0.14518595230E+02 -0.55864107773E+01 -0.22431572352E+02  0.27297857631E+02  0.51100000000E-03 0. -1.
        -11    1    4    4    0    0  0.60968045619E+01 -0.24287938761E+01 -0.44057808638E+01  0.79044905490E+01  0.51100000000E-03 0.  1.
        -12    1    4    4    0    0  0.33447871779E+01 -0.15173935971E+02  0.11218298118E+02  0.19164710975E+02  0.00000000000E+00 0.  1.
</event>
<event>
 8    1  0.2516265E-006  0.9118800E+02  0.7816164E-02  0.1184000E+00
        -11   -1    0    0    0    0  0.00000000000E+00  0.00000000000E+00  0.45593999997E+02  0.45594000000E+02  0.51100000000E-03 0. -1.
         11   -1    0    0    0    0 -0.00000000000E+00 -0.00000000000E+00 -0.45593999997E+02  0.45594000000E+02  0.51100000000E-03 0.  1.
         23    2    1    2    0    0  0.00000000000E+00 -0.66613381478E-15  0.00000000000E+00  0.91188000000E+02  0.91188000000E+02 0.  0.
    9900012    2    3    3    0    0 -0.22631087481E+02 -0.10555850838E+01 -0.29025844835E+02  0.54367081369E+02  0.39999993598E+02 0.  0.
         12    1    3    3    0    0  0.22631087481E+02  0.10555850838E+01  0.29025844835E+02  0.36820918631E+02  0.00000000000E+00 0. -1.
         11    1    4    4    0    0 -0.10894826794E+01 -0.30147737593E+01  0.15743580704E+01  0.35713354538E+01  0.51100000000E-03 0. -1.
        -11    1    4    4    0    0 -0.13818622815E+02 -0.10823437516E+02 -0.31255339432E+02  0.35846860105E+02  0.51100000000E-03 0.  1.
        -12    1    4    4    0    0 -0.77229819864E+01  0.12782626191E+02  0.65513652638E+00  0.14948885810E+02  0.00000000000E+00 0.  1.
</event>
<event>
 8    1  0.2516265E-006  0.9118800E+02  0.7816164E-02  0.1184000E+00
        -11   -1    0    0    0    0  0.00000000000E+00  0.00000000000E+00  0.45593999997E+02  0.45594000000E+02  0.51100000000E-03 0.  1.
         11   -1    0    0    0    0 -0.00000000000E+00 -0.00000000000E+00 -0.45593999997E+02  0.45594000000E+02  0.51100000000E-03 0. -1.
         23    2    1    2    0    0  0.71054273576E-14 -0.22204460493E-15  0.00000000000E+00  0.91188000000E+02  0.91188000000E+02 0.  0.
    9900012    2    3    3    0    0  0.30287631925E+02  0.19809928532E+01 -0.20845064586E+02  0.54367058976E+02  0.39999942547E+02 0.  0.
        -12    1    3    3    0    0 -0.30287631925E+02 -0.19809928532E+01  0.20845064586E+02  0.36820941024E+02  0.00000000000E+00 0.  1.
         11    1    4    4    0    0  0.30197300632E+02  0.62632192454E+01 -0.29318876916E+02  0.42552337475E+02  0.51100000000E-03 0. -1.
        -11    1    4    4    0    0 -0.35665306883E+00 -0.53016830322E+01  0.27489098711E+01  0.59826039586E+01  0.51100000000E-03 0.  1.
         12    1    4    4    0    0  0.44698436222E+00  0.10194566400E+01  0.57249024584E+01  0.58321175416E+01  0.00000000000E+00 0. -1.
</event>
<event>
 8    1  0.2516265E-006  0.9118800E+02  0.7816164E-02  0.1184000E+00
        -11   -1    0    0    0    0  0.00000000000E+00  0.00000000000E+00  0.45593999997E+02  0.45594000000E+02  0.51100000000E-03 0.  1.
         11   -1    0    0    0    0 -0.00000000000E+00 -0.00000000000E+00 -0.45593999997E+02  0.45594000000E+02  0.51100000000E-03 0. -1.
         23    2    1    2    0    0 -0.26645352591E-14  0.00000000000E+00  0.35527136788E-14  0.91188000000E+02  0.91188000000E+02 0.  0.
    9900012    2    3    3    0    0  0.48968052550E+01 -0.20562645308E+02 -0.30149275701E+02  0.54367083267E+02  0.39999997925E+02 0.  0.
        -12    1    3    3    0    0 -0.48968052550E+01  0.20562645308E+02  0.30149275701E+02  0.36820916733E+02  0.00000000000E+00 0.  1.
         11    1    4    4    0    0  0.41840692016E+00 -0.16728684357E+00  0.59073011258E+00  0.74297480838E+00  0.51100000000E-03 0. -1.
        -11    1    4    4    0    0  0.16101377935E+02 -0.10306870685E+02  0.14340021997E+00  0.19118224777E+02  0.51100000000E-03 0.  1.
         12    1    4    4    0    0 -0.11622979601E+02 -0.10088487779E+02 -0.30883406033E+02  0.34505883682E+02  0.00000000000E+00 0. -1.
</event>
<event>
 8    1  0.2516265E-006  0.9118800E+02  0.7816164E-02  0.1184000E+00
        -11   -1    0    0    0    0  0.00000000000E+00  0.00000000000E+00  0.45593999997E+02  0.45594000000E+02  0.51100000000E-03 0. -1.
         11   -1    0    0    0    0 -0.00000000000E+00 -0.00000000000E+00 -0.45593999997E+02  0.45594000000E+02  0.51100000000E-03 0.  1.
         23    2    1    2    0    0 -0.17763568394E-14  0.44408920985E-15 -0.71054273576E-14  0.91188000000E+02  0.91188000000E+02 0.  0.
    9900012    2    3    3    0    0 -0.11627528266E+02  0.25917644131E+01 -0.34840522170E+02  0.54367100480E+02  0.40000037165E+02 0.  0.
         12    1    3    3    0    0  0.11627528266E+02 -0.25917644131E+01  0.34840522170E+02  0.36820899520E+02  0.00000000000E+00 0. -1.
         11    1    4    4    0    0  0.32351697752E+01  0.11067978398E+01  0.18429989715E+01  0.38843236737E+01  0.51100000000E-03 0. -1.
        -11    1    4    4    0    0  0.98207097586E+01 -0.42208415287E+00 -0.12155107347E+02  0.15632374422E+02  0.51100000000E-03 0.  1.
        -12    1    4    4    0    0 -0.24683407800E+02  0.19070507262E+01 -0.24528413794E+02  0.34850402385E+02  0.00000000000E+00 0.  1.
</event>
<event>
 8    1  0.2516265E-006  0.9118800E+02  0.7816164E-02  0.1184000E+00
        -11   -1    0    0    0    0  0.00000000000E+00  0.00000000000E+00  0.45593999997E+02  0.45594000000E+02  0.51100000000E-03 0.  1.
         11   -1    0    0    0    0 -0.00000000000E+00 -0.00000000000E+00 -0.45593999997E+02  0.45594000000E+02  0.51100000000E-03 0. -1.
         23    2    1    2    0    0 -0.35527136788E-14  0.00000000000E+00 -0.17763568394E-14  0.91188000000E+02  0.91188000000E+02 0.  0.
    9900012    2    3    3    0    0  0.24759904794E+02  0.24538792891E+02 -0.11856398997E+02  0.54367089648E+02  0.40000012471E+02 0.  0.
        -12    1    3    3    0    0 -0.24759904794E+02 -0.24538792891E+02  0.11856398997E+02  0.36820910352E+02  0.00000000000E+00 0.  1.
         11    1    4    4    0    0  0.16460264125E+02  0.22470010218E+02 -0.22450719020E+02  0.35775360781E+02  0.51100000000E-03 0. -1.
        -11    1    4    4    0    0  0.48020048849E+01  0.72771387297E+01  0.78942191259E+01  0.11761577057E+02  0.51100000000E-03 0.  1.
        -12    1    4    4    0    0  0.34976357846E+01 -0.52083560565E+01  0.27001008965E+01  0.68301518097E+01  0.00000000000E+00 0.  1.
</event>
<event>
 8    1  0.2516265E-006  0.9118800E+02  0.7816164E-02  0.1184000E+00
        -11   -1    0    0    0    0  0.00000000000E+00  0.00000000000E+00  0.45593999997E+02  0.45594000000E+02  0.51100000000E-03 0.  1.
         11   -1    0    0    0    0 -0.00000000000E+00 -0.00000000000E+00 -0.45593999997E+02  0.45594000000E+02  0.51100000000E-03 0. -1.
         23    2    1    2    0    0 -0.99920072216E-15  0.00000000000E+00  0.55511151231E-15  0.91188000000E+02  0.91188000000E+02 0.  0.
    9900012    2    3    3    0    0  0.77998953384E+00  0.36808980728E+02 -0.51888533748E+00  0.54367099849E+02  0.40000035726E+02 0.  0.
         12    1    3    3    0    0 -0.77998953384E+00 -0.36808980728E+02  0.51888533748E+00  0.36820900151E+02  0.00000000000E+00 0. -1.
         11    1    4    4    0    0 -0.13806426553E+01  0.94585310438E+01  0.21608891106E+01  0.97999706968E+01  0.51100000000E-03 0. -1.
        -11    1    4    4    0    0  0.16422237044E+02  0.20153877690E+02 -0.88204665898E+01  0.27453037839E+02  0.51100000000E-03 0.  1.
         12    1    4    4    0    0 -0.14261604855E+02  0.71965719941E+01  0.61406921418E+01  0.17114091313E+02  0.00000000000E+00 0. -1.
</event>
<event>
 8    1  0.2516265E-006  0.9118800E+02  0.7816164E-02  0.1184000E+00
        -11   -1    0    0    0    0  0.00000000000E+00  0.00000000000E+00  0.45593999997E+02  0.45594000000E+02  0.51100000000E-03 0.  1.
         11   -1    0    0    0    0 -0.00000000000E+00 -0.00000000000E+00 -0.45593999997E+02  0.45594000000E+02  0.51100000000E-03 0. -1.
         23    2    1    2    0    0  0.00000000000E+00  0.00000000000E+00 -0.35527136788E-14  0.91188000000E+02  0.91188000000E+02 0.  0.
    9900012    2    3    3    0    0 -0.16849308917E+02 -0.24209112851E+02  0.22040620880E+02  0.54367226994E+02  0.40000325577E+02 0.  0.
         12    1    3    3    0    0  0.16849308917E+02  0.24209112851E+02 -0.22040620880E+02  0.36820773006E+02  0.00000000000E+00 0. -1.
         11    1    4    4    0    0 -0.10805900613E+01 -0.10850384783E+01  0.41478874370E+01  0.44215329730E+01  0.51100000000E-03 0. -1.
        -11    1    4    4    0    0 -0.15921971807E+01 -0.16877106501E+02  0.27069760659E+02  0.31939689386E+02  0.51100000000E-03 0.  1.
        -12    1    4    4    0    0 -0.14176521675E+02 -0.62469678713E+01 -0.91770272159E+01  0.18006004635E+02  0.00000000000E+00 0.  1.
</event>
<event>
 8    1  0.2516265E-006  0.9118800E+02  0.7816164E-02  0.1184000E+00
        -11   -1    0    0    0    0  0.00000000000E+00  0.00000000000E+00  0.45593999997E+02  0.45594000000E+02  0.51100000000E-03 0.  1.
         11   -1    0    0    0    0 -0.00000000000E+00 -0.00000000000E+00 -0.45593999997E+02  0.45594000000E+02  0.51100000000E-03 0. -1.
         23    2    1    2    0    0  0.35527136788E-14 -0.35527136788E-14  0.00000000000E+00  0.91188000000E+02  0.91188000000E+02 0.  0.
    9900012    2    3    3    0    0 -0.21703778710E+02  0.26571152340E+02  0.13367791513E+02  0.54367109233E+02  0.40000057118E+02 0.  0.
         12    1    3    3    0    0  0.21703778710E+02 -0.26571152340E+02 -0.13367791513E+02  0.36820890767E+02  0.00000000000E+00 0. -1.
         11    1    4    4    0    0 -0.23771658476E+02  0.10716875193E+01  0.14023718164E+02  0.27620733738E+02  0.51100000000E-03 0. -1.
        -11    1    4    4    0    0  0.20124369579E+01  0.11659729653E+01 -0.64209653635E+00  0.24128165468E+01  0.51100000000E-03 0.  1.
        -12    1    4    4    0    0  0.55442808121E-01  0.24333491855E+02 -0.13830114678E-01  0.24333558948E+02  0.00000000000E+00 0.  1.
</event>
<event>
 8    1  0.2516265E-006  0.9118800E+02  0.7816164E-02  0.1184000E+00
        -11   -1    0    0    0    0  0.00000000000E+00  0.00000000000E+00  0.45593999997E+02  0.45594000000E+02  0.51100000000E-03 0.  1.
         11   -1    0    0    0    0 -0.00000000000E+00 -0.00000000000E+00 -0.45593999997E+02  0.45594000000E+02  0.51100000000E-03 0. -1.
         23    2    1    2    0    0 -0.71054273576E-14  0.00000000000E+00 -0.35527136788E-14  0.91188000000E+02  0.91188000000E+02 0.  0.
    9900012    2    3    3    0    0  0.33033688767E+02  0.86962011056E+01  0.13745251112E+02  0.54367076120E+02  0.39999981630E+02 0.  0.
         12    1    3    3    0    0 -0.33033688767E+02 -0.86962011056E+01 -0.13745251112E+02  0.36820923880E+02  0.00000000000E+00 0. -1.
         11    1    4    4    0    0  0.13413330980E+02  0.39686300783E+01  0.43627629155E+01  0.14652684846E+02  0.51100000000E-03 0. -1.
        -11    1    4    4    0    0  0.10430328542E+01  0.13195468682E+02 -0.56183895327E+01  0.14379659678E+02  0.51100000000E-03 0.  1.
        -12    1    4    4    0    0  0.18577324933E+02 -0.84678976544E+01  0.15000877730E+02  0.25334731595E+02  0.00000000000E+00 0.  1.
</event>
<event>
 8    1  0.2516265E-006  0.9118800E+02  0.7816164E-02  0.1184000E+00
        -11   -1    0    0    0    0  0.00000000000E+00  0.00000000000E+00  0.45593999997E+02  0.45594000000E+02  0.51100000000E-03 0.  1.
         11   -1    0    0    0    0 -0.00000000000E+00 -0.00000000000E+00 -0.45593999997E+02  0.45594000000E+02  0.51100000000E-03 0. -1.
         23    2    1    2    0    0  0.35527136788E-14  0.66613381478E-15  0.35527136788E-14  0.91188000000E+02  0.91188000000E+02 0.  0.
    9900012    2    3    3    0    0  0.31078478395E+02 -0.59107129727E+00  0.19737290916E+02  0.54367057082E+02  0.39999938231E+02 0.  0.
        -12    1    3    3    0    0 -0.31078478395E+02  0.59107129727E+00 -0.19737290916E+02  0.36820942918E+02  0.00000000000E+00 0.  1.
         11    1    4    4    0    0  0.15495370538E+02 -0.39552759998E+01 -0.85285180450E+01  0.18124192027E+02  0.51100000000E-03 0. -1.
        -11    1    4    4    0    0  0.14503455407E+02  0.83090849453E+01  0.16747486941E+02  0.23661560187E+02  0.51100000000E-03 0.  1.
        -12    1    4    4    0    0  0.10796524504E+01 -0.49448802428E+01  0.11518322020E+02  0.12581304868E+02  0.00000000000E+00 0.  1.
</event>
<event>
 8    1  0.2516265E-006  0.9118800E+02  0.7816164E-02  0.1184000E+00
        -11   -1    0    0    0    0  0.00000000000E+00  0.00000000000E+00  0.45593999997E+02  0.45594000000E+02  0.51100000000E-03 0.  1.
         11   -1    0    0    0    0 -0.00000000000E+00 -0.00000000000E+00 -0.45593999997E+02  0.45594000000E+02  0.51100000000E-03 0. -1.
         23    2    1    2    0    0  0.88817841970E-15  0.00000000000E+00  0.17763568394E-14  0.91188000000E+02  0.91188000000E+02 0.  0.
    9900012    2    3    3    0    0  0.67469560211E+01 -0.32739956646E+02 -0.15438780909E+02  0.54367053072E+02  0.39999929088E+02 0.  0.
        -12    1    3    3    0    0 -0.67469560211E+01  0.32739956646E+02  0.15438780909E+02  0.36820946928E+02  0.00000000000E+00 0.  1.
         11    1    4    4    0    0  0.48680575102E+00 -0.13159675754E+02 -0.13001254061E+02  0.18505314189E+02  0.51100000000E-03 0. -1.
        -11    1    4    4    0    0  0.77927499702E+01 -0.26569243221E+02  0.14356122614E+01  0.27725667174E+02  0.51100000000E-03 0.  1.
         12    1    4    4    0    0 -0.15325997001E+01  0.69889623297E+01 -0.38731391097E+01  0.81360717088E+01  0.00000000000E+00 0. -1.
</event>
<event>
 8    1  0.2516265E-006  0.9118800E+02  0.7816164E-02  0.1184000E+00
        -11   -1    0    0    0    0  0.00000000000E+00  0.00000000000E+00  0.45593999997E+02  0.45594000000E+02  0.51100000000E-03 0.  1.
         11   -1    0    0    0    0 -0.00000000000E+00 -0.00000000000E+00 -0.45593999997E+02  0.45594000000E+02  0.51100000000E-03 0. -1.
         23    2    1    2    0    0  0.00000000000E+00  0.17763568394E-14  0.00000000000E+00  0.91188000000E+02  0.91188000000E+02 0.  0.
    9900012    2    3    3    0    0  0.21857112539E+02  0.12037632197E+02 -0.27076658405E+02  0.54367036028E+02  0.39999890233E+02 0.  0.
        -12    1    3    3    0    0 -0.21857112539E+02 -0.12037632197E+02  0.27076658405E+02  0.36820963972E+02  0.00000000000E+00 0.  1.
         11    1    4    4    0    0  0.31273171119E+01  0.51184962405E+01 -0.10897581218E+02  0.12439308371E+02  0.51100000000E-03 0. -1.
        -11    1    4    4    0    0  0.24977285943E+02  0.14417741967E+02 -0.10896286876E+02  0.30829615055E+02  0.51100000000E-03 0.  1.
         12    1    4    4    0    0 -0.62474905164E+01 -0.74986060103E+01 -0.52827903110E+01  0.11098112602E+02  0.00000000000E+00 0. -1.
</event>
<event>
 8    1  0.2516265E-006  0.9118800E+02  0.7816164E-02  0.1184000E+00
        -11   -1    0    0    0    0  0.00000000000E+00  0.00000000000E+00  0.45593999997E+02  0.45594000000E+02  0.51100000000E-03 0.  1.
         11   -1    0    0    0    0 -0.00000000000E+00 -0.00000000000E+00 -0.45593999997E+02  0.45594000000E+02  0.51100000000E-03 0. -1.
         23    2    1    2    0    0  0.00000000000E+00  0.35527136788E-14  0.88817841970E-15  0.91188000000E+02  0.91188000000E+02 0.  0.
    9900012    2    3    3    0    0 -0.24413086537E+02 -0.27455843355E+02  0.24403162956E+01  0.54367119073E+02  0.40000079551E+02 0.  0.
         12    1    3    3    0    0  0.24413086537E+02  0.27455843355E+02 -0.24403162956E+01  0.36820880927E+02  0.00000000000E+00 0. -1.
         11    1    4    4    0    0  0.42959442309E+01 -0.11008002880E+02 -0.69068658256E+01  0.13687076387E+02  0.51100000000E-03 0. -1.
        -11    1    4    4    0    0  0.15120781100E+01 -0.35767965412E+01  0.66766730964E+01  0.77238473318E+01  0.51100000000E-03 0.  1.
        -12    1    4    4    0    0 -0.30221108878E+02 -0.12871043934E+02  0.26705090247E+01  0.32956195354E+02  0.00000000000E+00 0.  1.
</event>
<event>
 8    1  0.2516265E-006  0.9118800E+02  0.7816164E-02  0.1184000E+00
        -11   -1    0    0    0    0  0.00000000000E+00  0.00000000000E+00  0.45593999997E+02  0.45594000000E+02  0.51100000000E-03 0.  1.
         11   -1    0    0    0    0 -0.00000000000E+00 -0.00000000000E+00 -0.45593999997E+02  0.45594000000E+02  0.51100000000E-03 0. -1.
         23    2    1    2    0    0 -0.35527136788E-14 -0.17763568394E-14 -0.35527136788E-14  0.91188000000E+02  0.91188000000E+02 0.  0.
    9900012    2    3    3    0    0  0.27250618830E+02  0.15728423921E+02  0.19125947857E+02  0.54367062654E+02  0.39999950931E+02 0.  0.
         12    1    3    3    0    0 -0.27250618830E+02 -0.15728423921E+02 -0.19125947857E+02  0.36820937346E+02  0.00000000000E+00 0. -1.
         11    1    4    4    0    0 -0.17825076345E+01 -0.93736028091E+00 -0.13975138670E+01  0.24513308697E+01  0.51100000000E-03 0. -1.
        -11    1    4    4    0    0  0.12771138256E+02  0.37860187973E+01  0.27063953664E+02  0.30164440968E+02  0.51100000000E-03 0.  1.
         12    1    4    4    0    0  0.16261988208E+02  0.12879765404E+02 -0.65404919400E+01  0.21751290816E+02  0.00000000000E+00 0. -1.
</event>
<event>
 8    1  0.2516265E-006  0.9118800E+02  0.7816164E-02  0.1184000E+00
        -11   -1    0    0    0    0  0.00000000000E+00  0.00000000000E+00  0.45593999997E+02  0.45594000000E+02  0.51100000000E-03 0.  1.
         11   -1    0    0    0    0 -0.00000000000E+00 -0.00000000000E+00 -0.45593999997E+02  0.45594000000E+02  0.51100000000E-03 0. -1.
         23    2    1    2    0    0  0.00000000000E+00  0.00000000000E+00  0.00000000000E+00  0.91188000000E+02  0.91188000000E+02 0.  0.
    9900012    2    3    3    0    0 -0.33756614714E+02 -0.95148476617E+01  0.11213490489E+02  0.54367031355E+02  0.39999879580E+02 0.  0.
         12    1    3    3    0    0  0.33756614714E+02  0.95148476617E+01 -0.11213490489E+02  0.36820968645E+02  0.00000000000E+00 0. -1.
         11    1    4    4    0    0 -0.18568878862E+02 -0.45156695621E+01 -0.12516483848E+02  0.22844187487E+02  0.51100000000E-03 0. -1.
        -11    1    4    4    0    0 -0.38911323672E+01 -0.62639120955E+01  0.31634533570E+01  0.80240228840E+01  0.51100000000E-03 0.  1.
        -12    1    4    4    0    0 -0.11296603485E+02  0.12647339958E+01  0.20566520980E+02  0.23498820984E+02  0.00000000000E+00 0.  1.
</event>
<event>
 8    1  0.2516265E-006  0.9118800E+02  0.7816164E-02  0.1184000E+00
        -11   -1    0    0    0    0  0.00000000000E+00  0.00000000000E+00  0.45593999997E+02  0.45594000000E+02  0.51100000000E-03 0. -1.
         11   -1    0    0    0    0 -0.00000000000E+00 -0.00000000000E+00 -0.45593999997E+02  0.45594000000E+02  0.51100000000E-03 0.  1.
         23    2    1    2    0    0  0.00000000000E+00  0.00000000000E+00  0.00000000000E+00  0.91188000000E+02  0.91188000000E+02 0.  0.
    9900012    2    3    3    0    0 -0.12945202743E+02 -0.16091914257E+02  0.30483591860E+02  0.54367118001E+02  0.40000077106E+02 0.  0.
        -12    1    3    3    0    0  0.12945202743E+02  0.16091914257E+02 -0.30483591860E+02  0.36820881999E+02  0.00000000000E+00 0.  1.
         11    1    4    4    0    0  0.28342649407E+01 -0.81270313549E+01  0.70491565845E+01  0.11125300230E+02  0.51100000000E-03 0. -1.
        -11    1    4    4    0    0 -0.14406796963E+01  0.98391517806E+01 -0.73853696351E+00  0.99714544003E+01  0.51100000000E-03 0.  1.
         12    1    4    4    0    0 -0.14338787987E+02 -0.17804034682E+02  0.24172972240E+02  0.33270363370E+02  0.00000000000E+00 0. -1.
</event>
<event>
 8    1  0.2516265E-006  0.9118800E+02  0.7816164E-02  0.1184000E+00
        -11   -1    0    0    0    0  0.00000000000E+00  0.00000000000E+00  0.45593999997E+02  0.45594000000E+02  0.51100000000E-03 0.  1.
         11   -1    0    0    0    0 -0.00000000000E+00 -0.00000000000E+00 -0.45593999997E+02  0.45594000000E+02  0.51100000000E-03 0. -1.
         23    2    1    2    0    0  0.88817841970E-15  0.00000000000E+00  0.00000000000E+00  0.91188000000E+02  0.91188000000E+02 0.  0.
    9900012    2    3    3    0    0  0.35080889054E+01  0.12331983244E+02 -0.34516587235E+02  0.54367091634E+02  0.40000016998E+02 0.  0.
        -12    1    3    3    0    0 -0.35080889054E+01 -0.12331983244E+02  0.34516587235E+02  0.36820908366E+02  0.00000000000E+00 0.  1.
         11    1    4    4    0    0  0.13271452682E+02  0.12275682302E+01 -0.18828675936E+02  0.23068537401E+02  0.51100000000E-03 0.  1.
        -11    1    4    4    0    0 -0.16787715481E+02  0.58423705185E+01 -0.13307592442E+02  0.22204790051E+02  0.51100000000E-03 0. -1.
         12    1    4    4    0    0  0.70243517044E+01  0.52620444956E+01 -0.23803188572E+01  0.90937641823E+01  0.00000000000E+00 0. -1.
</event>
<event>
 8    1  0.2516265E-006  0.9118800E+02  0.7816164E-02  0.1184000E+00
        -11   -1    0    0    0    0  0.00000000000E+00  0.00000000000E+00  0.45593999997E+02  0.45594000000E+02  0.51100000000E-03 0.  1.
         11   -1    0    0    0    0 -0.00000000000E+00 -0.00000000000E+00 -0.45593999997E+02  0.45594000000E+02  0.51100000000E-03 0. -1.
         23    2    1    2    0    0  0.35527136788E-14  0.00000000000E+00 -0.35527136788E-14  0.91188000000E+02  0.91188000000E+02 0.  0.
    9900012    2    3    3    0    0 -0.23109899263E+02 -0.21517423905E+02 -0.18939767255E+02  0.54367058145E+02  0.39999940652E+02 0.  0.
        -12    1    3    3    0    0  0.23109899263E+02  0.21517423905E+02  0.18939767255E+02  0.36820941855E+02  0.00000000000E+00 0.  1.
         11    1    4    4    0    0 -0.49636899051E+01 -0.24157344465E+02 -0.98696928541E+01  0.26563628261E+02  0.51100000000E-03 0. -1.
        -11    1    4    4    0    0 -0.84870062082E+00 -0.14593190319E+01 -0.98656409154E+01  0.10009034704E+02  0.51100000000E-03 0.  1.
         12    1    4    4    0    0 -0.17297508737E+02  0.40992395922E+01  0.79556651415E+00  0.17794395180E+02  0.00000000000E+00 0. -1.
</event>
<event>
 8    1  0.2516265E-006  0.9118800E+02  0.7816164E-02  0.1184000E+00
        -11   -1    0    0    0    0  0.00000000000E+00  0.00000000000E+00  0.45593999997E+02  0.45594000000E+02  0.51100000000E-03 0.  1.
         11   -1    0    0    0    0 -0.00000000000E+00 -0.00000000000E+00 -0.45593999997E+02  0.45594000000E+02  0.51100000000E-03 0. -1.
         23    2    1    2    0    0  0.00000000000E+00  0.00000000000E+00  0.73552275381E-15  0.91188000000E+02  0.91188000000E+02 0.  0.
    9900012    2    3    3    0    0  0.28005120203E+02  0.23905852435E+02  0.62922344322E-01  0.54367075277E+02  0.39999979709E+02 0.  0.
         12    1    3    3    0    0 -0.28005120203E+02 -0.23905852435E+02 -0.62922344322E-01  0.36820924723E+02  0.00000000000E+00 0. -1.
         11    1    4    4    0    0 -0.15151369505E+01 -0.40584493143E+01  0.89462397845E+01  0.99399123416E+01  0.51100000000E-03 0. -1.
        -11    1    4    4    0    0  0.21944266158E+02  0.10395161980E+02 -0.33624594337E+01  0.24513595075E+02  0.51100000000E-03 0.  1.
         12    1    4    4    0    0  0.75759909958E+01  0.17569139770E+02 -0.55208580065E+01  0.19913567861E+02  0.00000000000E+00 0. -1.
</event>
<event>
 8    1  0.2516265E-006  0.9118800E+02  0.7816164E-02  0.1184000E+00
        -11   -1    0    0    0    0  0.00000000000E+00  0.00000000000E+00  0.45593999997E+02  0.45594000000E+02  0.51100000000E-03 0.  1.
         11   -1    0    0    0    0 -0.00000000000E+00 -0.00000000000E+00 -0.45593999997E+02  0.45594000000E+02  0.51100000000E-03 0. -1.
         23    2    1    2    0    0  0.00000000000E+00 -0.35527136788E-14  0.00000000000E+00  0.91188000000E+02  0.91188000000E+02 0.  0.
    9900012    2    3    3    0    0  0.76280713429E+01 -0.21614810279E+02 -0.28816573954E+02  0.54367049031E+02  0.39999919875E+02 0.  0.
        -12    1    3    3    0    0 -0.76280713429E+01  0.21614810279E+02  0.28816573954E+02  0.36820950969E+02  0.00000000000E+00 0.  1.
         11    1    4    4    0    0  0.59920008203E+00 -0.13727985127E+02 -0.47972138263E+01  0.14554376563E+02  0.51100000000E-03 0. -1.
        -11    1    4    4    0    0  0.33420433150E+01  0.40297551332E+01  0.56047248309E+01  0.76694928545E+01  0.51100000000E-03 0.  1.
        -12    1    4    4    0    0  0.36868279458E+01 -0.11916580285E+02 -0.29624084959E+02  0.32143179613E+02  0.00000000000E+00 0.  1.
</event>
<event>
 8    1  0.2516265E-006  0.9118800E+02  0.7816164E-02  0.1184000E+00
        -11   -1    0    0    0    0  0.00000000000E+00  0.00000000000E+00  0.45593999997E+02  0.45594000000E+02  0.51100000000E-03 0.  1.
         11   -1    0    0    0    0 -0.00000000000E+00 -0.00000000000E+00 -0.45593999997E+02  0.45594000000E+02  0.51100000000E-03 0. -1.
         23    2    1    2    0    0 -0.44408920985E-15  0.00000000000E+00  0.00000000000E+00  0.91188000000E+02  0.91188000000E+02 0.  0.
    9900012    2    3    3    0    0  0.23784391402E+01  0.80559692101E+01 -0.35850029446E+02  0.54367078991E+02  0.39999988176E+02 0.  0.
        -12    1    3    3    0    0 -0.23784391402E+01 -0.80559692101E+01  0.35850029446E+02  0.36820921009E+02  0.00000000000E+00 0.  1.
         11    1    4    4    0    0  0.11337619587E+02 -0.48928350580E+01 -0.43776559300E+01  0.13101348194E+02  0.51100000000E-03 0. -1.
        -11    1    4    4    0    0 -0.66532556189E+01  0.44586834140E+01 -0.31464701615E+02  0.32468032218E+02  0.51100000000E-03 0.  1.
        -12    1    4    4    0    0 -0.23059248281E+01  0.84901208542E+01 -0.76719010551E-02  0.87976985791E+01  0.00000000000E+00 0.  1.
</event>
<event>
 8    1  0.2516265E-006  0.9118800E+02  0.7816164E-02  0.1184000E+00
        -11   -1    0    0    0    0  0.00000000000E+00  0.00000000000E+00  0.45593999997E+02  0.45594000000E+02  0.51100000000E-03 0. -1.
         11   -1    0    0    0    0 -0.00000000000E+00 -0.00000000000E+00 -0.45593999997E+02  0.45594000000E+02  0.51100000000E-03 0.  1.
         23    2    1    2    0    0  0.00000000000E+00  0.00000000000E+00  0.00000000000E+00  0.91188000000E+02  0.91188000000E+02 0.  0.
    9900012    2    3    3    0    0  0.11095688039E+02 -0.66431489993E+01 -0.34475135948E+02  0.54367072250E+02  0.39999972809E+02 0.  0.
         12    1    3    3    0    0 -0.11095688039E+02  0.66431489993E+01  0.34475135948E+02  0.36820927750E+02  0.00000000000E+00 0. -1.
         11    1    4    4    0    0  0.16586104519E+02 -0.67537951200E+01 -0.20166241868E+02  0.26970167278E+02  0.51100000000E-03 0. -1.
        -11    1    4    4    0    0 -0.51737141603E+01 -0.67196151272E-01 -0.20526557305E+02  0.21168641634E+02  0.51100000000E-03 0.  1.
         12    1    4    4    0    0 -0.31670231982E+00  0.17784227197E+00  0.62176632254E+01  0.62282633388E+01  0.00000000000E+00 0. -1.
</event>
<event>
 8    1  0.2516265E-006  0.9118800E+02  0.7816164E-02  0.1184000E+00
        -11   -1    0    0    0    0  0.00000000000E+00  0.00000000000E+00  0.45593999997E+02  0.45594000000E+02  0.51100000000E-03 0.  1.
         11   -1    0    0    0    0 -0.00000000000E+00 -0.00000000000E+00 -0.45593999997E+02  0.45594000000E+02  0.51100000000E-03 0. -1.
         23    2    1    2    0    0  0.00000000000E+00 -0.15543122345E-14  0.00000000000E+00  0.91188000000E+02  0.91188000000E+02 0.  0.
    9900012    2    3    3    0    0  0.19626845388E+02  0.15860454597E+01  0.31113521447E+02  0.54367084518E+02  0.40000000777E+02 0.  0.
         12    1    3    3    0    0 -0.19626845388E+02 -0.15860454597E+01 -0.31113521447E+02  0.36820915482E+02  0.00000000000E+00 0. -1.
         11    1    4    4    0    0  0.66287934324E+01  0.10174618587E+02 -0.55522010638E+01  0.13352554163E+02  0.51100000000E-03 0. -1.
        -11    1    4    4    0    0  0.34574745017E+01 -0.61102618651E+01  0.23756760955E+02  0.24772426634E+02  0.51100000000E-03 0.  1.
         12    1    4    4    0    0  0.95405774538E+01 -0.24783112621E+01  0.12908961556E+02  0.16242103722E+02  0.00000000000E+00 0. -1.
</event>
<event>
 8    1  0.2516265E-006  0.9118800E+02  0.7816164E-02  0.1184000E+00
        -11   -1    0    0    0    0  0.00000000000E+00  0.00000000000E+00  0.45593999997E+02  0.45594000000E+02  0.51100000000E-03 0.  1.
         11   -1    0    0    0    0 -0.00000000000E+00 -0.00000000000E+00 -0.45593999997E+02  0.45594000000E+02  0.51100000000E-03 0. -1.
         23    2    1    2    0    0  0.88817841970E-15 -0.35527136788E-14  0.00000000000E+00  0.91188000000E+02  0.91188000000E+02 0.  0.
    9900012    2    3    3    0    0 -0.65816937862E+01  0.18507561532E+02  0.31143681854E+02  0.54367116708E+02  0.40000074159E+02 0.  0.
         12    1    3    3    0    0  0.65816937862E+01 -0.18507561532E+02 -0.31143681854E+02  0.36820883292E+02  0.00000000000E+00 0. -1.
         11    1    4    4    0    0 -0.19542627990E+02  0.35517278296E+01  0.90643097629E+01  0.21833249668E+02  0.51100000000E-03 0. -1.
        -11    1    4    4    0    0  0.36790872744E+01  0.26557474197E+01  0.14822277276E+02  0.15501244513E+02  0.51100000000E-03 0.  1.
        -12    1    4    4    0    0  0.92818469296E+01  0.12300086283E+02  0.72570948153E+01  0.17032622527E+02  0.00000000000E+00 0.  1.
</event>
<event>
 8    1  0.2516265E-006  0.9118800E+02  0.7816164E-02  0.1184000E+00
        -11   -1    0    0    0    0  0.00000000000E+00  0.00000000000E+00  0.45593999997E+02  0.45594000000E+02  0.51100000000E-03 0.  1.
         11   -1    0    0    0    0 -0.00000000000E+00 -0.00000000000E+00 -0.45593999997E+02  0.45594000000E+02  0.51100000000E-03 0. -1.
         23    2    1    2    0    0  0.00000000000E+00  0.00000000000E+00  0.17763568394E-14  0.91188000000E+02  0.91188000000E+02 0.  0.
    9900012    2    3    3    0    0 -0.13251366379E+02 -0.32720433658E+02  0.10466815026E+02  0.54367086018E+02  0.40000004195E+02 0.  0.
        -12    1    3    3    0    0  0.13251366379E+02  0.32720433658E+02 -0.10466815026E+02  0.36820913982E+02  0.00000000000E+00 0.  1.
         11    1    4    4    0    0 -0.37809611473E+01 -0.99013432447E+01 -0.51015400636E+01  0.11762566749E+02  0.51100000000E-03 0. -1.
        -11    1    4    4    0    0  0.69412216119E+01 -0.22171127192E+02  0.89393646163E+01  0.24892803748E+02  0.51100000000E-03 0.  1.
        -12    1    4    4    0    0 -0.16411626844E+02 -0.64796322101E+00  0.66289904734E+01  0.17711715521E+02  0.00000000000E+00 0.  1.
</event>
<event>
 8    1  0.2516265E-006  0.9118800E+02  0.7816164E-02  0.1184000E+00
        -11   -1    0    0    0    0  0.00000000000E+00  0.00000000000E+00  0.45593999997E+02  0.45594000000E+02  0.51100000000E-03 0.  1.
         11   -1    0    0    0    0 -0.00000000000E+00 -0.00000000000E+00 -0.45593999997E+02  0.45594000000E+02  0.51100000000E-03 0. -1.
         23    2    1    2    0    0  0.00000000000E+00 -0.71054273576E-14  0.00000000000E+00  0.91188000000E+02  0.91188000000E+02 0.  0.
    9900012    2    3    3    0    0  0.97838495726E+01  0.32487691102E+02  0.14304020162E+02  0.54367098621E+02  0.40000032926E+02 0.  0.
         12    1    3    3    0    0 -0.97838495726E+01 -0.32487691102E+02 -0.14304020162E+02  0.36820901379E+02  0.00000000000E+00 0. -1.
         11    1    4    4    0    0  0.16283392053E+01  0.44758781258E+01 -0.93177077730E+00  0.48531608882E+01  0.51100000000E-03 0. -1.
        -11    1    4    4    0    0  0.81389693505E+01  0.33806435705E+02  0.17275257326E+01  0.34815259048E+02  0.51100000000E-03 0.  1.
         12    1    4    4    0    0  0.16541016820E-01 -0.57946227292E+01  0.13508265207E+02  0.14698678684E+02  0.00000000000E+00 0. -1.
</event>
<event>
 8    1  0.2516265E-006  0.9118800E+02  0.7816164E-02  0.1184000E+00
        -11   -1    0    0    0    0  0.00000000000E+00  0.00000000000E+00  0.45593999997E+02  0.45594000000E+02  0.51100000000E-03 0.  1.
         11   -1    0    0    0    0 -0.00000000000E+00 -0.00000000000E+00 -0.45593999997E+02  0.45594000000E+02  0.51100000000E-03 0. -1.
         23    2    1    2    0    0  0.00000000000E+00 -0.35527136788E-14  0.00000000000E+00  0.91188000000E+02  0.91188000000E+02 0.  0.
    9900012    2    3    3    0    0 -0.86512860774E+01  0.21250538035E+02 -0.28798414027E+02  0.54367098761E+02  0.40000033246E+02 0.  0.
        -12    1    3    3    0    0  0.86512860774E+01 -0.21250538035E+02  0.28798414027E+02  0.36820901239E+02  0.00000000000E+00 0.  1.
         11    1    4    4    0    0  0.43025592467E+01  0.87219371265E+01 -0.23292018096E+01  0.10000469221E+02  0.51100000000E-03 0. -1.
        -11    1    4    4    0    0 -0.43799573306E+01 -0.89114444434E+01 -0.98682371916E+00  0.99785614995E+01  0.51100000000E-03 0.  1.
         12    1    4    4    0    0 -0.85738879935E+01  0.21440045352E+02 -0.25482388498E+02  0.34388068041E+02  0.00000000000E+00 0. -1.
</event>
<event>
 8    1  0.2516265E-006  0.9118800E+02  0.7816164E-02  0.1184000E+00
        -11   -1    0    0    0    0  0.00000000000E+00  0.00000000000E+00  0.45593999997E+02  0.45594000000E+02  0.51100000000E-03 0. -1.
         11   -1    0    0    0    0 -0.00000000000E+00 -0.00000000000E+00 -0.45593999997E+02  0.45594000000E+02  0.51100000000E-03 0.  1.
         23    2    1    2    0    0 -0.17763568394E-14 -0.88817841970E-15  0.00000000000E+00  0.91188000000E+02  0.91188000000E+02 0.  0.
    9900012    2    3    3    0    0 -0.15083399540E+02 -0.24989287134E+01  0.33496707495E+02  0.54367041302E+02  0.39999902257E+02 0.  0.
        -12    1    3    3    0    0  0.15083399540E+02  0.24989287134E+01 -0.33496707495E+02  0.36820958698E+02  0.00000000000E+00 0.  1.
         11    1    4    4    0    0 -0.74655178315E+01  0.44247694718E+01  0.15261228393E+02  0.17556128095E+02  0.51100000000E-03 0.  1.
        -11    1    4    4    0    0  0.42693906372E+01 -0.13048432711E+02 -0.56384246661E+00  0.13740713636E+02  0.51100000000E-03 0. -1.
         12    1    4    4    0    0 -0.11887272346E+02  0.61247345258E+01  0.18799321569E+02  0.23070199572E+02  0.00000000000E+00 0. -1.
</event>
<event>
 8    1  0.2516265E-006  0.9118800E+02  0.7816164E-02  0.1184000E+00
        -11   -1    0    0    0    0  0.00000000000E+00  0.00000000000E+00  0.45593999997E+02  0.45594000000E+02  0.51100000000E-03 0.  1.
         11   -1    0    0    0    0 -0.00000000000E+00 -0.00000000000E+00 -0.45593999997E+02  0.45594000000E+02  0.51100000000E-03 0. -1.
         23    2    1    2    0    0  0.00000000000E+00  0.00000000000E+00  0.00000000000E+00  0.91188000000E+02  0.91188000000E+02 0.  0.
    9900012    2    3    3    0    0 -0.10565200236E+02  0.32949884587E+02 -0.12588014387E+02  0.54367130149E+02  0.40000104802E+02 0.  0.
        -12    1    3    3    0    0  0.10565200236E+02 -0.32949884587E+02  0.12588014387E+02  0.36820869851E+02  0.00000000000E+00 0.  1.
         11    1    4    4    0    0 -0.69491459394E+01  0.11903583568E+02 -0.56070831182E+01  0.14880366676E+02  0.51100000000E-03 0. -1.
        -11    1    4    4    0    0 -0.13456239069E+02  0.24558487735E+02 -0.76120528709E+01  0.29019528578E+02  0.51100000000E-03 0.  1.
        -12    1    4    4    0    0  0.98401847724E+01 -0.35121867158E+01  0.63112160260E+00  0.10467234896E+02  0.00000000000E+00 0.  1.
</event>
<event>
 8    1  0.2516265E-006  0.9118800E+02  0.7816164E-02  0.1184000E+00
        -11   -1    0    0    0    0  0.00000000000E+00  0.00000000000E+00  0.45593999997E+02  0.45594000000E+02  0.51100000000E-03 0. -1.
         11   -1    0    0    0    0 -0.00000000000E+00 -0.00000000000E+00 -0.45593999997E+02  0.45594000000E+02  0.51100000000E-03 0.  1.
         23    2    1    2    0    0  0.00000000000E+00  0.17763568394E-14  0.71054273576E-14  0.91188000000E+02  0.91188000000E+02 0.  0.
    9900012    2    3    3    0    0 -0.53588506254E+01  0.13982867862E+02 -0.33638366504E+02  0.54367114965E+02  0.40000070187E+02 0.  0.
         12    1    3    3    0    0  0.53588506254E+01 -0.13982867862E+02  0.33638366504E+02  0.36820885035E+02  0.00000000000E+00 0. -1.
         11    1    4    4    0    0  0.68564017587E+01 -0.10876408279E+02 -0.89699731377E+01  0.15676955077E+02  0.51100000000E-03 0. -1.
        -11    1    4    4    0    0 -0.74282686528E+01  0.44486190920E+01 -0.92226839876E+01  0.12650189216E+02  0.51100000000E-03 0.  1.
        -12    1    4    4    0    0 -0.47869837314E+01  0.20410657049E+02 -0.15445709379E+02  0.26039970673E+02  0.00000000000E+00 0.  1.
</event>
<event>
 8    1  0.2516265E-006  0.9118800E+02  0.7816164E-02  0.1184000E+00
        -11   -1    0    0    0    0  0.00000000000E+00  0.00000000000E+00  0.45593999997E+02  0.45594000000E+02  0.51100000000E-03 0.  1.
         11   -1    0    0    0    0 -0.00000000000E+00 -0.00000000000E+00 -0.45593999997E+02  0.45594000000E+02  0.51100000000E-03 0. -1.
         23    2    1    2    0    0  0.71054273576E-14 -0.17763568394E-14 -0.26645352591E-14  0.91188000000E+02  0.91188000000E+02 0.  0.
    9900012    2    3    3    0    0 -0.33602065939E+02  0.14034155615E+02  0.54518814006E+01  0.54367090587E+02  0.40000014612E+02 0.  0.
         12    1    3    3    0    0  0.33602065939E+02 -0.14034155615E+02 -0.54518814006E+01  0.36820909413E+02  0.00000000000E+00 0. -1.
         11    1    4    4    0    0 -0.87405411914E+01  0.86725144759E+01 -0.71132589744E+01  0.14219986679E+02  0.51100000000E-03 0. -1.
        -11    1    4    4    0    0 -0.15546593995E+02  0.16528934859E+02  0.11820875534E+02  0.25585843177E+02  0.51100000000E-03 0.  1.
         12    1    4    4    0    0 -0.93149307522E+01 -0.11167293720E+02  0.74426484120E+00  0.14561260732E+02  0.00000000000E+00 0. -1.
</event>
<event>
 8    1  0.2516265E-006  0.9118800E+02  0.7816164E-02  0.1184000E+00
        -11   -1    0    0    0    0  0.00000000000E+00  0.00000000000E+00  0.45593999997E+02  0.45594000000E+02  0.51100000000E-03 0.  1.
         11   -1    0    0    0    0 -0.00000000000E+00 -0.00000000000E+00 -0.45593999997E+02  0.45594000000E+02  0.51100000000E-03 0. -1.
         23    2    1    2    0    0 -0.71054273576E-14  0.00000000000E+00 -0.35527136788E-14  0.91188000000E+02  0.91188000000E+02 0.  0.
    9900012    2    3    3    0    0 -0.26468864867E+02 -0.16513424151E+02 -0.19557264534E+02  0.54367074148E+02  0.39999977135E+02 0.  0.
        -12    1    3    3    0    0  0.26468864867E+02  0.16513424151E+02  0.19557264534E+02  0.36820925852E+02  0.00000000000E+00 0.  1.
         11    1    4    4    0    0  0.72797088194E+01 -0.67736360345E+01 -0.16681773399E+01  0.10082614816E+02  0.51100000000E-03 0. -1.
        -11    1    4    4    0    0 -0.46593711391E+01  0.48900659952E+01  0.70043823433E+00  0.67906626209E+01  0.51100000000E-03 0.  1.
         12    1    4    4    0    0 -0.29089202548E+02 -0.14629854111E+02 -0.18589525429E+02  0.37493796711E+02  0.00000000000E+00 0. -1.
</event>
<event>
 8    1  0.2516265E-006  0.9118800E+02  0.7816164E-02  0.1184000E+00
        -11   -1    0    0    0    0  0.00000000000E+00  0.00000000000E+00  0.45593999997E+02  0.45594000000E+02  0.51100000000E-03 0.  1.
         11   -1    0    0    0    0 -0.00000000000E+00 -0.00000000000E+00 -0.45593999997E+02  0.45594000000E+02  0.51100000000E-03 0. -1.
         23    2    1    2    0    0  0.00000000000E+00  0.35527136788E-14  0.35527136788E-14  0.91188000000E+02  0.91188000000E+02 0.  0.
    9900012    2    3    3    0    0  0.24666387664E+02 -0.44831634039E+01 -0.26967600454E+02  0.54367069692E+02  0.39999966977E+02 0.  0.
        -12    1    3    3    0    0 -0.24666387664E+02  0.44831634039E+01  0.26967600454E+02  0.36820930308E+02  0.00000000000E+00 0.  1.
         11    1    4    4    0    0  0.89324935506E+01  0.71585305107E-01 -0.96907757504E+01  0.13179745839E+02  0.51100000000E-03 0. -1.
        -11    1    4    4    0    0  0.10331086632E+02  0.12937055500E+02 -0.15693237626E+02  0.22811761516E+02  0.51100000000E-03 0.  1.
        -12    1    4    4    0    0  0.54028074813E+01 -0.17491804209E+02 -0.15835870773E+01  0.18375562337E+02  0.00000000000E+00 0.  1.
</event>
<event>
 8    1  0.2516265E-006  0.9118800E+02  0.7816164E-02  0.1184000E+00
        -11   -1    0    0    0    0  0.00000000000E+00  0.00000000000E+00  0.45593999997E+02  0.45594000000E+02  0.51100000000E-03 0. -1.
         11   -1    0    0    0    0 -0.00000000000E+00 -0.00000000000E+00 -0.45593999997E+02  0.45594000000E+02  0.51100000000E-03 0.  1.
         23    2    1    2    0    0  0.00000000000E+00  0.00000000000E+00  0.88817841970E-15  0.91188000000E+02  0.91188000000E+02 0.  0.
    9900012    2    3    3    0    0 -0.80805553352E+01 -0.35539730474E+02  0.52356235086E+01  0.54367087869E+02  0.40000008414E+02 0.  0.
        -12    1    3    3    0    0  0.80805553352E+01  0.35539730474E+02 -0.52356235086E+01  0.36820912131E+02  0.00000000000E+00 0.  1.
         11    1    4    4    0    0  0.49531991250E+00 -0.41812822385E+00  0.93191444621E+01  0.93416608156E+01  0.51100000000E-03 0. -1.
        -11    1    4    4    0    0  0.29076117856E+01  0.30587183021E+01  0.20411167264E+01  0.46878696334E+01  0.51100000000E-03 0.  1.
         12    1    4    4    0    0 -0.11483487033E+02 -0.38180320552E+02 -0.61246376798E+01  0.40337557420E+02  0.00000000000E+00 0. -1.
</event>
<event>
 8    1  0.2516265E-006  0.9118800E+02  0.7816164E-02  0.1184000E+00
        -11   -1    0    0    0    0  0.00000000000E+00  0.00000000000E+00  0.45593999997E+02  0.45594000000E+02  0.51100000000E-03 0.  1.
         11   -1    0    0    0    0 -0.00000000000E+00 -0.00000000000E+00 -0.45593999997E+02  0.45594000000E+02  0.51100000000E-03 0. -1.
         23    2    1    2    0    0  0.14571677198E-14  0.00000000000E+00  0.00000000000E+00  0.91188000000E+02  0.91188000000E+02 0.  0.
    9900012    2    3    3    0    0  0.92817987713E-01 -0.36280791627E+02 -0.62827060830E+01  0.54367124780E+02  0.40000092560E+02 0.  0.
        -12    1    3    3    0    0 -0.92817987713E-01  0.36280791627E+02  0.62827060830E+01  0.36820875220E+02  0.00000000000E+00 0.  1.
         11    1    4    4    0    0 -0.54837381140E+01  0.14003168679E+00 -0.42933431648E+01  0.69659018345E+01  0.51100000000E-03 0. -1.
        -11    1    4    4    0    0 -0.19108984030E+01 -0.61419364556E+01  0.11689729322E+02  0.13342589255E+02  0.51100000000E-03 0.  1.
         12    1    4    4    0    0  0.74874545047E+01 -0.30278886858E+02 -0.13679092241E+02  0.34058633690E+02  0.00000000000E+00 0. -1.
</event>
<event>
 8    1  0.2516265E-006  0.9118800E+02  0.7816164E-02  0.1184000E+00
        -11   -1    0    0    0    0  0.00000000000E+00  0.00000000000E+00  0.45593999997E+02  0.45594000000E+02  0.51100000000E-03 0. -1.
         11   -1    0    0    0    0 -0.00000000000E+00 -0.00000000000E+00 -0.45593999997E+02  0.45594000000E+02  0.51100000000E-03 0.  1.
         23    2    1    2    0    0  0.00000000000E+00  0.00000000000E+00  0.00000000000E+00  0.91188000000E+02  0.91188000000E+02 0.  0.
    9900012    2    3    3    0    0  0.22721725702E+02  0.76458035154E+01 -0.27947187666E+02  0.54367076210E+02  0.39999981837E+02 0.  0.
         12    1    3    3    0    0 -0.22721725702E+02 -0.76458035154E+01  0.27947187666E+02  0.36820923790E+02  0.00000000000E+00 0. -1.
         11    1    4    4    0    0  0.10508727844E+02 -0.39424551075E+01 -0.13802342591E+02  0.17789912153E+02  0.51100000000E-03 0. -1.
        -11    1    4    4    0    0  0.16317355079E+02 -0.29430403814E+01 -0.13637950362E+02  0.21468843793E+02  0.51100000000E-03 0.  1.
        -12    1    4    4    0    0 -0.41043572210E+01  0.14531299004E+02 -0.50689471356E+00  0.15108320264E+02  0.00000000000E+00 0.  1.
</event>
<event>
 8    1  0.2516265E-006  0.9118800E+02  0.7816164E-02  0.1184000E+00
        -11   -1    0    0    0    0  0.00000000000E+00  0.00000000000E+00  0.45593999997E+02  0.45594000000E+02  0.51100000000E-03 0.  1.
         11   -1    0    0    0    0 -0.00000000000E+00 -0.00000000000E+00 -0.45593999997E+02  0.45594000000E+02  0.51100000000E-03 0. -1.
         23    2    1    2    0    0  0.35527136788E-14  0.00000000000E+00  0.00000000000E+00  0.91188000000E+02  0.91188000000E+02 0.  0.
    9900012    2    3    3    0    0 -0.21576822033E+02 -0.95866182153E+01 -0.28254650673E+02  0.54366976352E+02  0.39999754188E+02 0.  0.
         12    1    3    3    0    0  0.21576822033E+02  0.95866182153E+01  0.28254650673E+02  0.36821023648E+02  0.00000000000E+00 0. -1.
         11    1    4    4    0    0  0.66343143624E+01 -0.26886363694E+01 -0.10213127845E+02  0.12472003577E+02  0.51100000000E-03 0. -1.
        -11    1    4    4    0    0 -0.20483273136E+02 -0.15894883321E+02 -0.13067752055E+02  0.29034082355E+02  0.51100000000E-03 0.  1.
        -12    1    4    4    0    0 -0.77278632585E+01  0.89969014747E+01 -0.49737707734E+01  0.12860890420E+02  0.00000000000E+00 0.  1.
</event>
<event>
 8    1  0.2516265E-006  0.9118800E+02  0.7816164E-02  0.1184000E+00
        -11   -1    0    0    0    0  0.00000000000E+00  0.00000000000E+00  0.45593999997E+02  0.45594000000E+02  0.51100000000E-03 0.  1.
         11   -1    0    0    0    0 -0.00000000000E+00 -0.00000000000E+00 -0.45593999997E+02  0.45594000000E+02  0.51100000000E-03 0. -1.
         23    2    1    2    0    0  0.00000000000E+00  0.00000000000E+00 -0.35527136788E-14  0.91188000000E+02  0.91188000000E+02 0.  0.
    9900012    2    3    3    0    0 -0.54875106545E+01  0.23805175864E+02  0.27549585566E+02  0.54367097839E+02  0.40000031143E+02 0.  0.
         12    1    3    3    0    0  0.54875106545E+01 -0.23805175864E+02 -0.27549585566E+02  0.36820902161E+02  0.00000000000E+00 0. -1.
         11    1    4    4    0    0 -0.56284978122E+01  0.44543539608E+00  0.66144010955E+01  0.86964764375E+01  0.51100000000E-03 0. -1.
        -11    1    4    4    0    0 -0.57855054124E+01  0.16009845878E+02  0.28751704390E+02  0.33413286931E+02  0.51100000000E-03 0.  1.
         12    1    4    4    0    0  0.59264925701E+01  0.73498945898E+01 -0.78165199196E+01  0.12257334470E+02  0.00000000000E+00 0. -1.
</event>
<event>
 8    1  0.2516265E-006  0.9118800E+02  0.7816164E-02  0.1184000E+00
        -11   -1    0    0    0    0  0.00000000000E+00  0.00000000000E+00  0.45593999997E+02  0.45594000000E+02  0.51100000000E-03 0.  1.
         11   -1    0    0    0    0 -0.00000000000E+00 -0.00000000000E+00 -0.45593999997E+02  0.45594000000E+02  0.51100000000E-03 0. -1.
         23    2    1    2    0    0  0.00000000000E+00  0.88817841970E-15  0.00000000000E+00  0.91188000000E+02  0.91188000000E+02 0.  0.
    9900012    2    3    3    0    0 -0.23576698469E+02  0.25034374977E+01 -0.28171834195E+02  0.54367079969E+02  0.39999990405E+02 0.  0.
        -12    1    3    3    0    0  0.23576698469E+02 -0.25034374977E+01  0.28171834195E+02  0.36820920031E+02  0.00000000000E+00 0.  1.
         11    1    4    4    0    0 -0.63924497597E+01 -0.35747213840E+01 -0.11009379257E+01  0.74063561540E+01  0.51100000000E-03 0. -1.
        -11    1    4    4    0    0 -0.21094752549E+02  0.91798287434E+01 -0.32349706649E+02  0.39695860759E+02  0.51100000000E-03 0.  1.
        -12    1    4    4    0    0  0.39105038392E+01 -0.31016698618E+01  0.52788103792E+01  0.72648630563E+01  0.00000000000E+00 0.  1.
</event>
<event>
 8    1  0.2516265E-006  0.9118800E+02  0.7816164E-02  0.1184000E+00
        -11   -1    0    0    0    0  0.00000000000E+00  0.00000000000E+00  0.45593999997E+02  0.45594000000E+02  0.51100000000E-03 0. -1.
         11   -1    0    0    0    0 -0.00000000000E+00 -0.00000000000E+00 -0.45593999997E+02  0.45594000000E+02  0.51100000000E-03 0.  1.
         23    2    1    2    0    0  0.00000000000E+00  0.17763568394E-14  0.35527136788E-14  0.91188000000E+02  0.91188000000E+02 0.  0.
    9900012    2    3    3    0    0 -0.19859390455E+02 -0.15998337009E+02 -0.26560085973E+02  0.54367077372E+02  0.39999984484E+02 0.  0.
         12    1    3    3    0    0  0.19859390455E+02  0.15998337009E+02  0.26560085973E+02  0.36820922628E+02  0.00000000000E+00 0. -1.
         11    1    4    4    0    0 -0.22130251376E+01  0.60289013278E+01 -0.15015065073E+02  0.16330869875E+02  0.51100000000E-03 0. -1.
        -11    1    4    4    0    0  0.27084909555E+00 -0.13866706760E+02  0.21753712963E+01  0.14038915775E+02  0.51100000000E-03 0.  1.
        -12    1    4    4    0    0 -0.17917214413E+02 -0.81605315772E+01 -0.13720392197E+02  0.23997291722E+02  0.00000000000E+00 0.  1.
</event>
<event>
 8    1  0.2516265E-006  0.9118800E+02  0.7816164E-02  0.1184000E+00
        -11   -1    0    0    0    0  0.00000000000E+00  0.00000000000E+00  0.45593999997E+02  0.45594000000E+02  0.51100000000E-03 0. -1.
         11   -1    0    0    0    0 -0.00000000000E+00 -0.00000000000E+00 -0.45593999997E+02  0.45594000000E+02  0.51100000000E-03 0.  1.
         23    2    1    2    0    0  0.00000000000E+00 -0.17763568394E-14  0.00000000000E+00  0.91188000000E+02  0.91188000000E+02 0.  0.
    9900012    2    3    3    0    0 -0.20926417332E+01  0.13755533156E+02 -0.34090843381E+02  0.54367089579E+02  0.40000012312E+02 0.  0.
         12    1    3    3    0    0  0.20926417332E+01 -0.13755533156E+02  0.34090843381E+02  0.36820910421E+02  0.00000000000E+00 0. -1.
         11    1    4    4    0    0  0.17004425072E+01  0.17602769093E+00 -0.58593220486E+01  0.61036174191E+01  0.51100000000E-03 0. -1.
        -11    1    4    4    0    0 -0.52874936157E+00  0.25734950863E+02 -0.23383927791E+02  0.34776074405E+02  0.51100000000E-03 0.  1.
        -12    1    4    4    0    0 -0.32643348789E+01 -0.12155445399E+02 -0.48475935421E+01  0.13487397755E+02  0.00000000000E+00 0.  1.
</event>
<event>
 8    1  0.2516265E-006  0.9118800E+02  0.7816164E-02  0.1184000E+00
        -11   -1    0    0    0    0  0.00000000000E+00  0.00000000000E+00  0.45593999997E+02  0.45594000000E+02  0.51100000000E-03 0.  1.
         11   -1    0    0    0    0 -0.00000000000E+00 -0.00000000000E+00 -0.45593999997E+02  0.45594000000E+02  0.51100000000E-03 0. -1.
         23    2    1    2    0    0 -0.71054273576E-14 -0.17763568394E-14  0.00000000000E+00  0.91188000000E+02  0.91188000000E+02 0.  0.
    9900012    2    3    3    0    0 -0.34136491638E+02  0.10071343331E+02  0.94365410605E+01  0.54367077618E+02  0.39999985046E+02 0.  0.
         12    1    3    3    0    0  0.34136491638E+02 -0.10071343331E+02 -0.94365410605E+01  0.36820922382E+02  0.00000000000E+00 0. -1.
         11    1    4    4    0    0 -0.61435056793E+00 -0.46244113415E+01 -0.98117500210E+00  0.47671072488E+01  0.51100000000E-03 0. -1.
        -11    1    4    4    0    0 -0.12125937210E+02 -0.33362054353E+01 -0.90659943709E+01  0.15503576172E+02  0.51100000000E-03 0.  1.
        -12    1    4    4    0    0 -0.21396203860E+02  0.18031960108E+02  0.19483710434E+02  0.34096394197E+02  0.00000000000E+00 0.  1.
</event>
<event>
 8    1  0.2516265E-006  0.9118800E+02  0.7816164E-02  0.1184000E+00
        -11   -1    0    0    0    0  0.00000000000E+00  0.00000000000E+00  0.45593999997E+02  0.45594000000E+02  0.51100000000E-03 0.  1.
         11   -1    0    0    0    0 -0.00000000000E+00 -0.00000000000E+00 -0.45593999997E+02  0.45594000000E+02  0.51100000000E-03 0. -1.
         23    2    1    2    0    0 -0.44408920985E-15  0.00000000000E+00  0.00000000000E+00  0.91188000000E+02  0.91188000000E+02 0.  0.
    9900012    2    3    3    0    0  0.39269072369E+01  0.65469417797E+00  0.36605084900E+02  0.54367062132E+02  0.39999949743E+02 0.  0.
         12    1    3    3    0    0 -0.39269072369E+01 -0.65469417797E+00 -0.36605084900E+02  0.36820937868E+02  0.00000000000E+00 0. -1.
         11    1    4    4    0    0  0.11422957751E+02 -0.15185578932E+01  0.12811783461E+01  0.11594455575E+02  0.51100000000E-03 0.  1.
        -11    1    4    4    0    0  0.42441172626E+01  0.11396918387E+01 -0.10658868981E+01  0.45218960588E+01  0.51100000000E-03 0. -1.
        -12    1    4    4    0    0 -0.11740167777E+02  0.10335602325E+01  0.36389793452E+02  0.38250710499E+02  0.00000000000E+00 0.  1.
</event>
<event>
 8    1  0.2516265E-006  0.9118800E+02  0.7816164E-02  0.1184000E+00
        -11   -1    0    0    0    0  0.00000000000E+00  0.00000000000E+00  0.45593999997E+02  0.45594000000E+02  0.51100000000E-03 0. -1.
         11   -1    0    0    0    0 -0.00000000000E+00 -0.00000000000E+00 -0.45593999997E+02  0.45594000000E+02  0.51100000000E-03 0.  1.
         23    2    1    2    0    0 -0.35527136788E-14  0.00000000000E+00 -0.17763568394E-14  0.91188000000E+02  0.91188000000E+02 0.  0.
    9900012    2    3    3    0    0 -0.20585692046E+02 -0.26108992182E+02 -0.15821838340E+02  0.54367071736E+02  0.39999971636E+02 0.  0.
         12    1    3    3    0    0  0.20585692046E+02  0.26108992182E+02  0.15821838340E+02  0.36820928264E+02  0.00000000000E+00 0. -1.
         11    1    4    4    0    0 -0.12111458137E+01  0.30612609045E+01  0.45954586094E+01  0.56530020873E+01  0.51100000000E-03 0. -1.
        -11    1    4    4    0    0 -0.10560984494E+02 -0.29035001809E+02 -0.54921934537E+01  0.31380406510E+02  0.51100000000E-03 0.  1.
        -12    1    4    4    0    0 -0.88135617382E+01 -0.13525127746E+00 -0.14925103496E+02  0.17333663138E+02  0.00000000000E+00 0.  1.
</event>
<event>
 8    1  0.2516265E-006  0.9118800E+02  0.7816164E-02  0.1184000E+00
        -11   -1    0    0    0    0  0.00000000000E+00  0.00000000000E+00  0.45593999997E+02  0.45594000000E+02  0.51100000000E-03 0.  1.
         11   -1    0    0    0    0 -0.00000000000E+00 -0.00000000000E+00 -0.45593999997E+02  0.45594000000E+02  0.51100000000E-03 0. -1.
         23    2    1    2    0    0  0.00000000000E+00  0.53290705182E-14  0.35527136788E-14  0.91188000000E+02  0.91188000000E+02 0.  0.
    9900012    2    3    3    0    0 -0.19618483714E+02 -0.15475163119E+02  0.27044644425E+02  0.54367104182E+02  0.40000045603E+02 0.  0.
         12    1    3    3    0    0  0.19618483714E+02  0.15475163119E+02 -0.27044644425E+02  0.36820895818E+02  0.00000000000E+00 0. -1.
         11    1    4    4    0    0 -0.75915541365E+01  0.10968795375E+02 -0.11833872164E+01  0.13392033892E+02  0.51100000000E-03 0. -1.
        -11    1    4    4    0    0 -0.10451734808E+02 -0.15834671812E+02  0.18269348398E+02  0.26339033449E+02  0.51100000000E-03 0.  1.
         12    1    4    4    0    0 -0.15751947696E+01 -0.10609286682E+02  0.99586832434E+01  0.14636036841E+02  0.00000000000E+00 0. -1.
</event>
<event>
 8    1  0.2516265E-006  0.9118800E+02  0.7816164E-02  0.1184000E+00
        -11   -1    0    0    0    0  0.00000000000E+00  0.00000000000E+00  0.45593999997E+02  0.45594000000E+02  0.51100000000E-03 0.  1.
         11   -1    0    0    0    0 -0.00000000000E+00 -0.00000000000E+00 -0.45593999997E+02  0.45594000000E+02  0.51100000000E-03 0. -1.
         23    2    1    2    0    0  0.00000000000E+00  0.00000000000E+00  0.35527136788E-14  0.91188000000E+02  0.91188000000E+02 0.  0.
    9900012    2    3    3    0    0  0.18899344601E+02  0.16152184801E+02  0.27160677192E+02  0.54367072721E+02  0.39999973881E+02 0.  0.
         12    1    3    3    0    0 -0.18899344601E+02 -0.16152184801E+02 -0.27160677192E+02  0.36820927279E+02  0.00000000000E+00 0. -1.
         11    1    4    4    0    0  0.97500253313E+01 -0.41608986851E+01  0.37401513993E+01  0.11241210103E+02  0.51100000000E-03 0. -1.
        -11    1    4    4    0    0 -0.22511586711E+01 -0.54154413493E+01  0.10788544512E+02  0.12279552651E+02  0.51100000000E-03 0.  1.
        -12    1    4    4    0    0  0.11400477940E+02  0.25728524835E+02  0.12631981281E+02  0.30846309967E+02  0.00000000000E+00 0.  1.
</event>
<event>
 8    1  0.2516265E-006  0.9118800E+02  0.7816164E-02  0.1184000E+00
        -11   -1    0    0    0    0  0.00000000000E+00  0.00000000000E+00  0.45593999997E+02  0.45594000000E+02  0.51100000000E-03 0.  1.
         11   -1    0    0    0    0 -0.00000000000E+00 -0.00000000000E+00 -0.45593999997E+02  0.45594000000E+02  0.51100000000E-03 0. -1.
         23    2    1    2    0    0  0.00000000000E+00 -0.35527136788E-14 -0.35527136788E-14  0.91188000000E+02  0.91188000000E+02 0.  0.
    9900012    2    3    3    0    0 -0.22613965100E+02 -0.88152645975E+01  0.27689016304E+02  0.54367055806E+02  0.39999935320E+02 0.  0.
         12    1    3    3    0    0  0.22613965100E+02  0.88152645975E+01 -0.27689016304E+02  0.36820944194E+02  0.00000000000E+00 0. -1.
         11    1    4    4    0    0  0.11253061550E+01  0.91405323082E+01 -0.27663650325E+01  0.96160501545E+01  0.51100000000E-03 0. -1.
        -11    1    4    4    0    0 -0.10379451773E+02 -0.12839244449E+02  0.23816920183E+02  0.28979732649E+02  0.51100000000E-03 0.  1.
         12    1    4    4    0    0 -0.13359819482E+02 -0.51165524566E+01  0.66384611536E+01  0.15771273003E+02  0.00000000000E+00 0. -1.
</event>
<event>
 8    1  0.2516265E-006  0.9118800E+02  0.7816164E-02  0.1184000E+00
        -11   -1    0    0    0    0  0.00000000000E+00  0.00000000000E+00  0.45593999997E+02  0.45594000000E+02  0.51100000000E-03 0.  1.
         11   -1    0    0    0    0 -0.00000000000E+00 -0.00000000000E+00 -0.45593999997E+02  0.45594000000E+02  0.51100000000E-03 0. -1.
         23    2    1    2    0    0  0.00000000000E+00  0.00000000000E+00 -0.17763568394E-14  0.91188000000E+02  0.91188000000E+02 0.  0.
    9900012    2    3    3    0    0  0.32312434771E+02 -0.11823798370E+02 -0.13110433176E+02  0.54367094161E+02  0.40000022759E+02 0.  0.
         12    1    3    3    0    0 -0.32312434771E+02  0.11823798370E+02  0.13110433176E+02  0.36820905839E+02  0.00000000000E+00 0. -1.
         11    1    4    4    0    0  0.71202210836E+01 -0.68120785395E+01  0.58011373932E+01  0.11434822151E+02  0.51100000000E-03 0. -1.
        -11    1    4    4    0    0  0.12451858610E+02 -0.20916708652E+01  0.66147801243E+01  0.14254093665E+02  0.51100000000E-03 0.  1.
         12    1    4    4    0    0  0.12740355078E+02 -0.29200489651E+01 -0.25526350694E+02  0.28678178345E+02  0.00000000000E+00 0. -1.
</event>
<event>
 8    1  0.2516265E-006  0.9118800E+02  0.7816164E-02  0.1184000E+00
        -11   -1    0    0    0    0  0.00000000000E+00  0.00000000000E+00  0.45593999997E+02  0.45594000000E+02  0.51100000000E-03 0.  1.
         11   -1    0    0    0    0 -0.00000000000E+00 -0.00000000000E+00 -0.45593999997E+02  0.45594000000E+02  0.51100000000E-03 0. -1.
         23    2    1    2    0    0  0.17763568394E-14 -0.44408920985E-15  0.00000000000E+00  0.91188000000E+02  0.91188000000E+02 0.  0.
    9900012    2    3    3    0    0  0.14873485866E+02 -0.11419451592E+01  0.33663849544E+02  0.54367090361E+02  0.40000014095E+02 0.  0.
         12    1    3    3    0    0 -0.14873485866E+02  0.11419451592E+01 -0.33663849544E+02  0.36820909639E+02  0.00000000000E+00 0. -1.
         11    1    4    4    0    0  0.18256249808E+01 -0.11603804914E+02  0.86497453811E+01  0.14587641704E+02  0.51100000000E-03 0. -1.
        -11    1    4    4    0    0  0.19807212151E+02  0.84638263773E+01  0.11215273597E+02  0.24284653019E+02  0.51100000000E-03 0.  1.
        -12    1    4    4    0    0 -0.67593512652E+01  0.19980333774E+01  0.13798830565E+02  0.15494795638E+02  0.00000000000E+00 0.  1.
</event>
<event>
 8    1  0.2516265E-006  0.9118800E+02  0.7816164E-02  0.1184000E+00
        -11   -1    0    0    0    0  0.00000000000E+00  0.00000000000E+00  0.45593999997E+02  0.45594000000E+02  0.51100000000E-03 0.  1.
         11   -1    0    0    0    0 -0.00000000000E+00 -0.00000000000E+00 -0.45593999997E+02  0.45594000000E+02  0.51100000000E-03 0. -1.
         23    2    1    2    0    0  0.17763568394E-14  0.00000000000E+00 -0.88817841970E-15  0.91188000000E+02  0.91188000000E+02 0.  0.
    9900012    2    3    3    0    0 -0.14181414194E+02 -0.33730271332E+02 -0.41150114679E+01  0.54367122335E+02  0.40000086986E+02 0.  0.
        -12    1    3    3    0    0  0.14181414194E+02  0.33730271332E+02  0.41150114679E+01  0.36820877665E+02  0.00000000000E+00 0.  1.
         11    1    4    4    0    0  0.50051361840E+00 -0.10133530261E+02 -0.78493300227E+01  0.12827740701E+02  0.51100000000E-03 0. -1.
        -11    1    4    4    0    0 -0.84319216228E+01 -0.95701504928E+00 -0.10939970775E+02  0.13845437547E+02  0.51100000000E-03 0.  1.
        -12    1    4    4    0    0 -0.62500061895E+01 -0.22639726022E+02  0.14674289330E+02  0.27693944086E+02  0.00000000000E+00 0.  1.
</event>
<event>
 8    1  0.2516265E-006  0.9118800E+02  0.7816164E-02  0.1184000E+00
        -11   -1    0    0    0    0  0.00000000000E+00  0.00000000000E+00  0.45593999997E+02  0.45594000000E+02  0.51100000000E-03 0. -1.
         11   -1    0    0    0    0 -0.00000000000E+00 -0.00000000000E+00 -0.45593999997E+02  0.45594000000E+02  0.51100000000E-03 0.  1.
         23    2    1    2    0    0  0.00000000000E+00 -0.15543122345E-14  0.00000000000E+00  0.91188000000E+02  0.91188000000E+02 0.  0.
    9900012    2    3    3    0    0  0.99790585297E+01  0.12877280999E+01 -0.35419480195E+02  0.54367089771E+02  0.40000012751E+02 0.  0.
         12    1    3    3    0    0 -0.99790585297E+01 -0.12877280999E+01  0.35419480195E+02  0.36820910229E+02  0.00000000000E+00 0. -1.
         11    1    4    4    0    0  0.75582338944E+01 -0.95915713860E+01  0.39210725891E+00  0.12217974039E+02  0.51100000000E-03 0. -1.
        -11    1    4    4    0    0  0.88597463335E+01  0.19668333414E+01 -0.25532637216E+02  0.27097584799E+02  0.51100000000E-03 0.  1.
         12    1    4    4    0    0 -0.64389216982E+01  0.89124661445E+01 -0.10278950238E+02  0.15051530932E+02  0.00000000000E+00 0. -1.
</event>
<event>
 8    1  0.2516265E-006  0.9118800E+02  0.7816164E-02  0.1184000E+00
        -11   -1    0    0    0    0  0.00000000000E+00  0.00000000000E+00  0.45593999997E+02  0.45594000000E+02  0.51100000000E-03 0. -1.
         11   -1    0    0    0    0 -0.00000000000E+00 -0.00000000000E+00 -0.45593999997E+02  0.45594000000E+02  0.51100000000E-03 0.  1.
         23    2    1    2    0    0  0.00000000000E+00  0.00000000000E+00  0.35527136788E-14  0.91188000000E+02  0.91188000000E+02 0.  0.
    9900012    2    3    3    0    0  0.10823368754E+02 -0.27138100461E+02 -0.22408834314E+02  0.54367113765E+02  0.40000067451E+02 0.  0.
         12    1    3    3    0    0 -0.10823368754E+02  0.27138100461E+02  0.22408834314E+02  0.36820886235E+02  0.00000000000E+00 0. -1.
         11    1    4    4    0    0  0.14579016621E+02 -0.19420740261E+02 -0.33958095535E+01  0.24520285494E+02  0.51100000000E-03 0.  1.
        -11    1    4    4    0    0 -0.12303592875E+02 -0.68537402998E+01 -0.92896108395E+01  0.16871544788E+02  0.51100000000E-03 0. -1.
         12    1    4    4    0    0  0.85479450081E+01 -0.86361989992E+00 -0.97234139211E+01  0.12975283483E+02  0.00000000000E+00 0. -1.
</event>
<event>
 8    1  0.2516265E-006  0.9118800E+02  0.7816164E-02  0.1184000E+00
        -11   -1    0    0    0    0  0.00000000000E+00  0.00000000000E+00  0.45593999997E+02  0.45594000000E+02  0.51100000000E-03 0. -1.
         11   -1    0    0    0    0 -0.00000000000E+00 -0.00000000000E+00 -0.45593999997E+02  0.45594000000E+02  0.51100000000E-03 0.  1.
         23    2    1    2    0    0  0.00000000000E+00  0.35527136788E-14  0.00000000000E+00  0.91188000000E+02  0.91188000000E+02 0.  0.
    9900012    2    3    3    0    0  0.10186902177E+02  0.31292860152E+02  0.16515516256E+02  0.54367104443E+02  0.40000046198E+02 0.  0.
        -12    1    3    3    0    0 -0.10186902177E+02 -0.31292860152E+02 -0.16515516256E+02  0.36820895557E+02  0.00000000000E+00 0.  1.
         11    1    4    4    0    0  0.64557072046E+01  0.11073633785E+01  0.16293000260E+02  0.17560303724E+02  0.51100000000E-03 0. -1.
        -11    1    4    4    0    0  0.87817995638E+01  0.55883699864E+01 -0.43536582646E+01  0.11282917319E+02  0.51100000000E-03 0.  1.
         12    1    4    4    0    0 -0.50506045913E+01  0.24597126787E+02  0.45761742609E+01  0.25523883399E+02  0.00000000000E+00 0. -1.
</event>
<event>
 8    1  0.2516265E-006  0.9118800E+02  0.7816164E-02  0.1184000E+00
        -11   -1    0    0    0    0  0.00000000000E+00  0.00000000000E+00  0.45593999997E+02  0.45594000000E+02  0.51100000000E-03 0.  1.
         11   -1    0    0    0    0 -0.00000000000E+00 -0.00000000000E+00 -0.45593999997E+02  0.45594000000E+02  0.51100000000E-03 0. -1.
         23    2    1    2    0    0  0.00000000000E+00 -0.71054273576E-14  0.00000000000E+00  0.91188000000E+02  0.91188000000E+02 0.  0.
    9900012    2    3    3    0    0 -0.71565575451E+01 -0.18833929560E+02  0.30819587498E+02  0.54367079423E+02  0.39999989161E+02 0.  0.
         12    1    3    3    0    0  0.71565575451E+01  0.18833929560E+02 -0.30819587498E+02  0.36820920577E+02  0.00000000000E+00 0. -1.
         11    1    4    4    0    0 -0.93659032415E+01  0.12884239808E+01 -0.22856204206E+01  0.97264711407E+01  0.51100000000E-03 0. -1.
        -11    1    4    4    0    0 -0.99531698198E+01 -0.10078721056E+02  0.15126502731E+02  0.20723351387E+02  0.51100000000E-03 0.  1.
        -12    1    4    4    0    0  0.12162515516E+02 -0.10043632485E+02  0.17978705187E+02  0.23917256895E+02  0.00000000000E+00 0.  1.
</event>
<event>
 8    1  0.2516265E-006  0.9118800E+02  0.7816164E-02  0.1184000E+00
        -11   -1    0    0    0    0  0.00000000000E+00  0.00000000000E+00  0.45593999997E+02  0.45594000000E+02  0.51100000000E-03 0. -1.
         11   -1    0    0    0    0 -0.00000000000E+00 -0.00000000000E+00 -0.45593999997E+02  0.45594000000E+02  0.51100000000E-03 0.  1.
         23    2    1    2    0    0  0.35527136788E-14  0.00000000000E+00  0.00000000000E+00  0.91188000000E+02  0.91188000000E+02 0.  0.
    9900012    2    3    3    0    0  0.17514918502E+02  0.30806509340E+02 -0.99983606887E+01  0.54367073826E+02  0.39999976401E+02 0.  0.
         12    1    3    3    0    0 -0.17514918502E+02 -0.30806509340E+02  0.99983606887E+01  0.36820926174E+02  0.00000000000E+00 0. -1.
         11    1    4    4    0    0  0.87960062254E+01  0.10032032584E+02  0.38247699263E+01  0.13879490932E+02  0.51100000000E-03 0. -1.
        -11    1    4    4    0    0 -0.61475568660E+01  0.22227865469E+02 -0.94490477151E+01  0.24922980595E+02  0.51100000000E-03 0.  1.
        -12    1    4    4    0    0  0.14866469143E+02 -0.14533887126E+01 -0.43740828999E+01  0.15564602300E+02  0.00000000000E+00 0.  1.
</event>
<event>
 8    1  0.2516265E-006  0.9118800E+02  0.7816164E-02  0.1184000E+00
        -11   -1    0    0    0    0  0.00000000000E+00  0.00000000000E+00  0.45593999997E+02  0.45594000000E+02  0.51100000000E-03 0.  1.
         11   -1    0    0    0    0 -0.00000000000E+00 -0.00000000000E+00 -0.45593999997E+02  0.45594000000E+02  0.51100000000E-03 0. -1.
         23    2    1    2    0    0  0.00000000000E+00  0.00000000000E+00 -0.17763568394E-14  0.91188000000E+02  0.91188000000E+02 0.  0.
    9900012    2    3    3    0    0  0.34601084421E+01  0.34189169246E+02  0.13225228746E+02  0.54367104852E+02  0.40000047130E+02 0.  0.
         12    1    3    3    0    0 -0.34601084421E+01 -0.34189169246E+02 -0.13225228746E+02  0.36820895148E+02  0.00000000000E+00 0. -1.
         11    1    4    4    0    0  0.20446851416E+01 -0.29827667264E+01 -0.37966839394E+01  0.52433237425E+01  0.51100000000E-03 0. -1.
        -11    1    4    4    0    0 -0.20185629443E+01  0.30265537829E+02 -0.11294436372E+00  0.30332987541E+02  0.51100000000E-03 0.  1.
         12    1    4    4    0    0  0.34339862448E+01  0.69063981432E+01  0.17134857049E+02  0.18790793569E+02  0.00000000000E+00 0. -1.
</event>
<event>
 8    1  0.2516265E-006  0.9118800E+02  0.7816164E-02  0.1184000E+00
        -11   -1    0    0    0    0  0.00000000000E+00  0.00000000000E+00  0.45593999997E+02  0.45594000000E+02  0.51100000000E-03 0.  1.
         11   -1    0    0    0    0 -0.00000000000E+00 -0.00000000000E+00 -0.45593999997E+02  0.45594000000E+02  0.51100000000E-03 0. -1.
         23    2    1    2    0    0  0.88817841970E-15  0.00000000000E+00  0.00000000000E+00  0.91188000000E+02  0.91188000000E+02 0.  0.
    9900012    2    3    3    0    0 -0.36016884101E+01  0.36145057845E+02 -0.60281458728E+01  0.54367137589E+02  0.40000121761E+02 0.  0.
        -12    1    3    3    0    0  0.36016884101E+01 -0.36145057845E+02  0.60281458728E+01  0.36820862411E+02  0.00000000000E+00 0.  1.
         11    1    4    4    0    0 -0.33140417849E+01  0.29488406831E+02  0.63019627199E+01  0.30335849168E+02  0.51100000000E-03 0. -1.
        -11    1    4    4    0    0  0.83388955857E+01  0.68784682551E+01 -0.27831025535E+01  0.11162265237E+02  0.51100000000E-03 0.  1.
         12    1    4    4    0    0 -0.86265422108E+01 -0.22181724068E+00 -0.95470060391E+01  0.12869023184E+02  0.00000000000E+00 0. -1.
</event>
<event>
 8    1  0.2516265E-006  0.9118800E+02  0.7816164E-02  0.1184000E+00
        -11   -1    0    0    0    0  0.00000000000E+00  0.00000000000E+00  0.45593999997E+02  0.45594000000E+02  0.51100000000E-03 0. -1.
         11   -1    0    0    0    0 -0.00000000000E+00 -0.00000000000E+00 -0.45593999997E+02  0.45594000000E+02  0.51100000000E-03 0.  1.
         23    2    1    2    0    0  0.00000000000E+00  0.00000000000E+00 -0.22204460493E-15  0.91188000000E+02  0.91188000000E+02 0.  0.
    9900012    2    3    3    0    0  0.32325718640E+02 -0.17540790902E+02 -0.17742591742E+01  0.54367089817E+02  0.40000012857E+02 0.  0.
         12    1    3    3    0    0 -0.32325718640E+02  0.17540790902E+02  0.17742591742E+01  0.36820910183E+02  0.00000000000E+00 0. -1.
         11    1    4    4    0    0  0.81536991486E+01  0.59538170505E+01 -0.60350006680E+01  0.11762311873E+02  0.51100000000E-03 0. -1.
        -11    1    4    4    0    0  0.18522729689E+02 -0.26954075164E+02  0.96129048746E+01  0.34088438267E+02  0.51100000000E-03 0.  1.
        -12    1    4    4    0    0  0.56492898020E+01  0.34594672110E+01 -0.53521633808E+01  0.85163396777E+01  0.00000000000E+00 0.  1.
</event>
<event>
 8    1  0.2516265E-006  0.9118800E+02  0.7816164E-02  0.1184000E+00
        -11   -1    0    0    0    0  0.00000000000E+00  0.00000000000E+00  0.45593999997E+02  0.45594000000E+02  0.51100000000E-03 0.  1.
         11   -1    0    0    0    0 -0.00000000000E+00 -0.00000000000E+00 -0.45593999997E+02  0.45594000000E+02  0.51100000000E-03 0. -1.
         23    2    1    2    0    0  0.00000000000E+00 -0.22204460493E-15  0.00000000000E+00  0.91188000000E+02  0.91188000000E+02 0.  0.
    9900012    2    3    3    0    0 -0.26585329541E+02  0.15305680955E+01 -0.25429465702E+02  0.54367080520E+02  0.39999991661E+02 0.  0.
        -12    1    3    3    0    0  0.26585329541E+02 -0.15305680955E+01  0.25429465702E+02  0.36820919480E+02  0.00000000000E+00 0.  1.
         11    1    4    4    0    0 -0.10272963882E+02  0.14606306857E+02 -0.21940525840E+02  0.28288949456E+02  0.51100000000E-03 0. -1.
        -11    1    4    4    0    0  0.15773886024E+01 -0.51953590947E+01  0.19795789355E+01  0.57791559893E+01  0.51100000000E-03 0.  1.
        -12    1    4    4    0    0 -0.17889754261E+02 -0.78803796673E+01 -0.54685187972E+01  0.20298975074E+02  0.00000000000E+00 0.  1.
</event>
<event>
 8    1  0.2516265E-006  0.9118800E+02  0.7816164E-02  0.1184000E+00
        -11   -1    0    0    0    0  0.00000000000E+00  0.00000000000E+00  0.45593999997E+02  0.45594000000E+02  0.51100000000E-03 0. -1.
         11   -1    0    0    0    0 -0.00000000000E+00 -0.00000000000E+00 -0.45593999997E+02  0.45594000000E+02  0.51100000000E-03 0.  1.
         23    2    1    2    0    0  0.00000000000E+00 -0.35527136788E-14  0.00000000000E+00  0.91188000000E+02  0.91188000000E+02 0.  0.
    9900012    2    3    3    0    0  0.84992599602E+01  0.31493669788E+02 -0.17078936802E+02  0.54367099157E+02  0.40000034148E+02 0.  0.
         12    1    3    3    0    0 -0.84992599602E+01 -0.31493669788E+02  0.17078936802E+02  0.36820900843E+02  0.00000000000E+00 0. -1.
         11    1    4    4    0    0  0.67099551749E+01 -0.21568984697E+01 -0.12110209389E+02  0.14011883569E+02  0.51100000000E-03 0. -1.
        -11    1    4    4    0    0 -0.71616807934E+01  0.66706103428E+01 -0.67252179027E+01  0.11874985062E+02  0.51100000000E-03 0.  1.
         12    1    4    4    0    0  0.89509855787E+01  0.26979957915E+02  0.17564904896E+01  0.28480230525E+02  0.00000000000E+00 0. -1.
</event>
<event>
 8    1  0.2516265E-006  0.9118800E+02  0.7816164E-02  0.1184000E+00
        -11   -1    0    0    0    0  0.00000000000E+00  0.00000000000E+00  0.45593999997E+02  0.45594000000E+02  0.51100000000E-03 0. -1.
         11   -1    0    0    0    0 -0.00000000000E+00 -0.00000000000E+00 -0.45593999997E+02  0.45594000000E+02  0.51100000000E-03 0.  1.
         23    2    1    2    0    0  0.17763568394E-14  0.00000000000E+00 -0.35527136788E-14  0.91188000000E+02  0.91188000000E+02 0.  0.
    9900012    2    3    3    0    0 -0.85895816827E+01 -0.18725221329E+02  0.30518263152E+02  0.54367092717E+02  0.40000019467E+02 0.  0.
        -12    1    3    3    0    0  0.85895816827E+01  0.18725221329E+02 -0.30518263152E+02  0.36820907283E+02  0.00000000000E+00 0.  1.
         11    1    4    4    0    0 -0.12416338359E+02 -0.36760963088E+01  0.29838076201E+02  0.32526757200E+02  0.51100000000E-03 0. -1.
        -11    1    4    4    0    0 -0.11893819540E+01 -0.15820045988E+01 -0.57612729972E+01  0.60917677888E+01  0.51100000000E-03 0.  1.
         12    1    4    4    0    0  0.50161386300E+01 -0.13467120422E+02  0.64414599483E+01  0.15748567728E+02  0.00000000000E+00 0. -1.
</event>
<event>
 8    1  0.2516265E-006  0.9118800E+02  0.7816164E-02  0.1184000E+00
        -11   -1    0    0    0    0  0.00000000000E+00  0.00000000000E+00  0.45593999997E+02  0.45594000000E+02  0.51100000000E-03 0. -1.
         11   -1    0    0    0    0 -0.00000000000E+00 -0.00000000000E+00 -0.45593999997E+02  0.45594000000E+02  0.51100000000E-03 0.  1.
         23    2    1    2    0    0  0.00000000000E+00  0.26645352591E-14  0.00000000000E+00  0.91188000000E+02  0.91188000000E+02 0.  0.
    9900012    2    3    3    0    0  0.19455148021E+02  0.23412714152E+01  0.31173591177E+02  0.54367121097E+02  0.40000084165E+02 0.  0.
        -12    1    3    3    0    0 -0.19455148021E+02 -0.23412714152E+01 -0.31173591177E+02  0.36820878903E+02  0.00000000000E+00 0.  1.
         11    1    4    4    0    0  0.20156767310E+01  0.35070885207E+01  0.14730277899E+02  0.15275591963E+02  0.51100000000E-03 0. -1.
        -11    1    4    4    0    0 -0.40377443801E+01 -0.76607077482E+01 -0.32378750737E+01  0.92451964898E+01  0.51100000000E-03 0.  1.
        -12    1    4    4    0    0  0.21477215670E+02  0.64948906426E+01  0.19681188351E+02  0.29846332644E+02  0.00000000000E+00 0.  1.
</event>
<event>
 8    1  0.2516265E-006  0.9118800E+02  0.7816164E-02  0.1184000E+00
        -11   -1    0    0    0    0  0.00000000000E+00  0.00000000000E+00  0.45593999997E+02  0.45594000000E+02  0.51100000000E-03 0. -1.
         11   -1    0    0    0    0 -0.00000000000E+00 -0.00000000000E+00 -0.45593999997E+02  0.45594000000E+02  0.51100000000E-03 0.  1.
         23    2    1    2    0    0  0.00000000000E+00  0.00000000000E+00  0.00000000000E+00  0.91188000000E+02  0.91188000000E+02 0.  0.
    9900012    2    3    3    0    0  0.26030247658E+02  0.10718782415E+02  0.23734070359E+02  0.54367188149E+02  0.40000237022E+02 0.  0.
        -12    1    3    3    0    0 -0.26030247658E+02 -0.10718782415E+02 -0.23734070359E+02  0.36820811851E+02  0.00000000000E+00 0.  1.
         11    1    4    4    0    0  0.22088826611E+02  0.19033266656E+01  0.23387326263E+02  0.32225858304E+02  0.51100000000E-03 0. -1.
        -11    1    4    4    0    0  0.11000623965E+02  0.38956747806E+01  0.45989344595E+01  0.12543532519E+02  0.51100000000E-03 0.  1.
        -12    1    4    4    0    0 -0.70592029185E+01  0.49197809683E+01 -0.42521903635E+01  0.95977973259E+01  0.00000000000E+00 0.  1.
</event>
<event>
 8    1  0.2516265E-006  0.9118800E+02  0.7816164E-02  0.1184000E+00
        -11   -1    0    0    0    0  0.00000000000E+00  0.00000000000E+00  0.45593999997E+02  0.45594000000E+02  0.51100000000E-03 0. -1.
         11   -1    0    0    0    0 -0.00000000000E+00 -0.00000000000E+00 -0.45593999997E+02  0.45594000000E+02  0.51100000000E-03 0.  1.
         23    2    1    2    0    0  0.00000000000E+00  0.00000000000E+00  0.00000000000E+00  0.91188000000E+02  0.91188000000E+02 0.  0.
    9900012    2    3    3    0    0 -0.94809098398E+01 -0.26189049423E+02 -0.24083419047E+02  0.54367285259E+02  0.40000458402E+02 0.  0.
         12    1    3    3    0    0  0.94809098398E+01  0.26189049423E+02  0.24083419047E+02  0.36820714741E+02  0.00000000000E+00 0. -1.
         11    1    4    4    0    0  0.18002091702E+00 -0.11506265438E+02 -0.36251786932E+01  0.12065176032E+02  0.51100000000E-03 0. -1.
        -11    1    4    4    0    0 -0.14184880634E+02 -0.18889907948E+02 -0.30362273816E+01  0.23817181568E+02  0.51100000000E-03 0.  1.
        -12    1    4    4    0    0  0.45239498776E+01  0.42071239635E+01 -0.17422012972E+02  0.18484927658E+02  0.00000000000E+00 0.  1.
</event>
<event>
 8    1  0.2516265E-006  0.9118800E+02  0.7816164E-02  0.1184000E+00
        -11   -1    0    0    0    0  0.00000000000E+00  0.00000000000E+00  0.45593999997E+02  0.45594000000E+02  0.51100000000E-03 0. -1.
         11   -1    0    0    0    0 -0.00000000000E+00 -0.00000000000E+00 -0.45593999997E+02  0.45594000000E+02  0.51100000000E-03 0.  1.
         23    2    1    2    0    0 -0.35527136788E-14  0.88817841970E-15 -0.35527136788E-14  0.91188000000E+02  0.91188000000E+02 0.  0.
    9900012    2    3    3    0    0  0.31401336326E+02  0.64308210129E+01  0.18121223798E+02  0.54367107372E+02  0.40000052876E+02 0.  0.
        -12    1    3    3    0    0 -0.31401336326E+02 -0.64308210129E+01 -0.18121223798E+02  0.36820892628E+02  0.00000000000E+00 0.  1.
         11    1    4    4    0    0  0.77778689032E+01  0.16608831847E+02 -0.21484537271E+01  0.18465221192E+02  0.51100000000E-03 0. -1.
        -11    1    4    4    0    0  0.41159147625E+01  0.20321697482E+01 -0.84745092076E+00  0.46678304962E+01  0.51100000000E-03 0.  1.
        -12    1    4    4    0    0  0.19507552661E+02 -0.12210180582E+02  0.21117128446E+02  0.31234055684E+02  0.00000000000E+00 0.  1.
</event>
<event>
 8    1  0.2516265E-006  0.9118800E+02  0.7816164E-02  0.1184000E+00
        -11   -1    0    0    0    0  0.00000000000E+00  0.00000000000E+00  0.45593999997E+02  0.45594000000E+02  0.51100000000E-03 0.  1.
         11   -1    0    0    0    0 -0.00000000000E+00 -0.00000000000E+00 -0.45593999997E+02  0.45594000000E+02  0.51100000000E-03 0. -1.
         23    2    1    2    0    0  0.17763568394E-14 -0.71054273576E-14 -0.17763568394E-14  0.91188000000E+02  0.91188000000E+02 0.  0.
    9900012    2    3    3    0    0 -0.12592804661E+02  0.34137740502E+02  0.56408324122E+01  0.54367040668E+02  0.39999900812E+02 0.  0.
        -12    1    3    3    0    0  0.12592804661E+02 -0.34137740502E+02 -0.56408324122E+01  0.36820959332E+02  0.00000000000E+00 0.  1.
         11    1    4    4    0    0 -0.43692235825E+01  0.11170888620E+02  0.22116890306E+00  0.11996990590E+02  0.51100000000E-03 0. -1.
        -11    1    4    4    0    0 -0.78316664956E+01  0.21987972221E+02  0.18167860544E+02  0.29578321107E+02  0.51100000000E-03 0.  1.
        -12    1    4    4    0    0 -0.39191458337E+00  0.97887966090E+00 -0.12748197035E+02  0.12791728972E+02  0.00000000000E+00 0.  1.
</event>
<event>
 8    1  0.2516265E-006  0.9118800E+02  0.7816164E-02  0.1184000E+00
        -11   -1    0    0    0    0  0.00000000000E+00  0.00000000000E+00  0.45593999997E+02  0.45594000000E+02  0.51100000000E-03 0.  1.
         11   -1    0    0    0    0 -0.00000000000E+00 -0.00000000000E+00 -0.45593999997E+02  0.45594000000E+02  0.51100000000E-03 0. -1.
         23    2    1    2    0    0  0.00000000000E+00 -0.17763568394E-14  0.00000000000E+00  0.91188000000E+02  0.91188000000E+02 0.  0.
    9900012    2    3    3    0    0 -0.19895973915E+02 -0.13618739861E+02 -0.27829110616E+02  0.54367092202E+02  0.40000018292E+02 0.  0.
        -12    1    3    3    0    0  0.19895973915E+02  0.13618739861E+02  0.27829110616E+02  0.36820907798E+02  0.00000000000E+00 0.  1.
         11    1    4    4    0    0  0.17496559919E+01 -0.14616717334E+02 -0.19156835725E+02  0.24159761526E+02  0.51100000000E-03 0. -1.
        -11    1    4    4    0    0 -0.23728010474E+02  0.79769657423E+00 -0.11746838955E+02  0.26488545195E+02  0.51100000000E-03 0.  1.
         12    1    4    4    0    0  0.20823805673E+01  0.20028089906E+00  0.30745640640E+01  0.37187854804E+01  0.00000000000E+00 0. -1.
</event>
<event>
 8    1  0.2516265E-006  0.9118800E+02  0.7816164E-02  0.1184000E+00
        -11   -1    0    0    0    0  0.00000000000E+00  0.00000000000E+00  0.45593999997E+02  0.45594000000E+02  0.51100000000E-03 0.  1.
         11   -1    0    0    0    0 -0.00000000000E+00 -0.00000000000E+00 -0.45593999997E+02  0.45594000000E+02  0.51100000000E-03 0. -1.
         23    2    1    2    0    0  0.88817841970E-15  0.00000000000E+00  0.71054273576E-14  0.91188000000E+02  0.91188000000E+02 0.  0.
    9900012    2    3    3    0    0 -0.48955287742E+01 -0.81350734182E+01 -0.35575733409E+02  0.54367103364E+02  0.40000043739E+02 0.  0.
        -12    1    3    3    0    0  0.48955287742E+01  0.81350734182E+01  0.35575733409E+02  0.36820896636E+02  0.00000000000E+00 0.  1.
         11    1    4    4    0    0  0.32115077654E+01 -0.34127427785E+01 -0.98663847570E+01  0.10922735181E+02  0.51100000000E-03 0. -1.
        -11    1    4    4    0    0 -0.68641625738E+00 -0.18167611414E+02 -0.20080935435E+02  0.27088322945E+02  0.51100000000E-03 0.  1.
        -12    1    4    4    0    0 -0.74206202822E+01  0.13445280775E+02 -0.56284132174E+01  0.16356045238E+02  0.00000000000E+00 0.  1.
</event>
<event>
 8    1  0.2516265E-006  0.9118800E+02  0.7816164E-02  0.1184000E+00
        -11   -1    0    0    0    0  0.00000000000E+00  0.00000000000E+00  0.45593999997E+02  0.45594000000E+02  0.51100000000E-03 0. -1.
         11   -1    0    0    0    0 -0.00000000000E+00 -0.00000000000E+00 -0.45593999997E+02  0.45594000000E+02  0.51100000000E-03 0.  1.
         23    2    1    2    0    0  0.71054273576E-14  0.44408920985E-15 -0.35527136788E-14  0.91188000000E+02  0.91188000000E+02 0.  0.
    9900012    2    3    3    0    0 -0.35724054340E+02  0.39218084790E+01  0.80118527492E+01  0.54367103424E+02  0.40000043875E+02 0.  0.
        -12    1    3    3    0    0  0.35724054340E+02 -0.39218084790E+01 -0.80118527492E+01  0.36820896576E+02  0.00000000000E+00 0.  1.
         11    1    4    4    0    0 -0.35143849749E+01  0.83588265709E+01 -0.66076771614E+01  0.11219727320E+02  0.51100000000E-03 0. -1.
        -11    1    4    4    0    0  0.39980472448E+01  0.58218333965E+00  0.13655959250E+01  0.42647592786E+01  0.51100000000E-03 0.  1.
         12    1    4    4    0    0 -0.36207716610E+02 -0.50192014316E+01  0.13253933986E+02  0.38882616825E+02  0.00000000000E+00 0. -1.
</event>
<event>
 8    1  0.2516265E-006  0.9118800E+02  0.7816164E-02  0.1184000E+00
        -11   -1    0    0    0    0  0.00000000000E+00  0.00000000000E+00  0.45593999997E+02  0.45594000000E+02  0.51100000000E-03 0. -1.
         11   -1    0    0    0    0 -0.00000000000E+00 -0.00000000000E+00 -0.45593999997E+02  0.45594000000E+02  0.51100000000E-03 0.  1.
         23    2    1    2    0    0  0.00000000000E+00  0.00000000000E+00  0.00000000000E+00  0.91188000000E+02  0.91188000000E+02 0.  0.
    9900012    2    3    3    0    0 -0.29321295564E+02  0.14076430086E+02 -0.17259548617E+02  0.54367132602E+02  0.40000110393E+02 0.  0.
         12    1    3    3    0    0  0.29321295564E+02 -0.14076430086E+02  0.17259548617E+02  0.36820867398E+02  0.00000000000E+00 0. -1.
         11    1    4    4    0    0 -0.14517593752E+02 -0.40193717621E+01 -0.26217222535E+01  0.15290170226E+02  0.51100000000E-03 0. -1.
        -11    1    4    4    0    0 -0.17566997425E+02  0.25877442672E+01 -0.27350884283E+00  0.17758677492E+02  0.51100000000E-03 0.  1.
        -12    1    4    4    0    0  0.27632956133E+01  0.15508057580E+02 -0.14364317520E+02  0.21318284884E+02  0.00000000000E+00 0.  1.
</event>
<event>
 8    1  0.2516265E-006  0.9118800E+02  0.7816164E-02  0.1184000E+00
        -11   -1    0    0    0    0  0.00000000000E+00  0.00000000000E+00  0.45593999997E+02  0.45594000000E+02  0.51100000000E-03 0.  1.
         11   -1    0    0    0    0 -0.00000000000E+00 -0.00000000000E+00 -0.45593999997E+02  0.45594000000E+02  0.51100000000E-03 0. -1.
         23    2    1    2    0    0  0.17763568394E-14 -0.17763568394E-14  0.00000000000E+00  0.91188000000E+02  0.91188000000E+02 0.  0.
    9900012    2    3    3    0    0 -0.87896412657E+01 -0.14539843048E+02  0.32666738875E+02  0.54367073095E+02  0.39999974734E+02 0.  0.
         12    1    3    3    0    0  0.87896412657E+01  0.14539843048E+02 -0.32666738875E+02  0.36820926905E+02  0.00000000000E+00 0. -1.
         11    1    4    4    0    0 -0.21822188392E+02 -0.60839001686E+01  0.13354037029E+02  0.26297377297E+02  0.51100000000E-03 0. -1.
        -11    1    4    4    0    0  0.23549413979E+01 -0.85402283693E+00  0.13501579459E+02  0.13731997384E+02  0.51100000000E-03 0.  1.
        -12    1    4    4    0    0  0.10677605728E+02 -0.76019200422E+01  0.58111223870E+01  0.14337698414E+02  0.00000000000E+00 0.  1.
</event>
<event>
 8    1  0.2516265E-006  0.9118800E+02  0.7816164E-02  0.1184000E+00
        -11   -1    0    0    0    0  0.00000000000E+00  0.00000000000E+00  0.45593999997E+02  0.45594000000E+02  0.51100000000E-03 0.  1.
         11   -1    0    0    0    0 -0.00000000000E+00 -0.00000000000E+00 -0.45593999997E+02  0.45594000000E+02  0.51100000000E-03 0. -1.
         23    2    1    2    0    0  0.88817841970E-15  0.00000000000E+00  0.00000000000E+00  0.91188000000E+02  0.91188000000E+02 0.  0.
    9900012    2    3    3    0    0  0.32410742360E+01 -0.20775169277E+02  0.30226941144E+02  0.54367079430E+02  0.39999989177E+02 0.  0.
         12    1    3    3    0    0 -0.32410742360E+01  0.20775169277E+02 -0.30226941144E+02  0.36820920570E+02  0.00000000000E+00 0. -1.
         11    1    4    4    0    0 -0.24285725903E+01 -0.51300881511E+01  0.65548994818E+01  0.86707829371E+01  0.51100000000E-03 0. -1.
        -11    1    4    4    0    0 -0.12947643655E+02 -0.15704024858E+02  0.14118811117E+02  0.24770924500E+02  0.51100000000E-03 0.  1.
         12    1    4    4    0    0  0.18617290481E+02  0.58943732498E-01  0.95532305455E+01  0.20925371994E+02  0.00000000000E+00 0. -1.
</event>
<event>
 8    1  0.2516265E-006  0.9118800E+02  0.7816164E-02  0.1184000E+00
        -11   -1    0    0    0    0  0.00000000000E+00  0.00000000000E+00  0.45593999997E+02  0.45594000000E+02  0.51100000000E-03 0. -1.
         11   -1    0    0    0    0 -0.00000000000E+00 -0.00000000000E+00 -0.45593999997E+02  0.45594000000E+02  0.51100000000E-03 0.  1.
         23    2    1    2    0    0 -0.35527136788E-14  0.00000000000E+00  0.88817841970E-15  0.91188000000E+02  0.91188000000E+02 0.  0.
    9900012    2    3    3    0    0 -0.27981518071E+02  0.23891595052E+02  0.14166086920E+01  0.54367075950E+02  0.39999981244E+02 0.  0.
        -12    1    3    3    0    0  0.27981518071E+02 -0.23891595052E+02 -0.14166086920E+01  0.36820924050E+02  0.00000000000E+00 0.  1.
         11    1    4    4    0    0 -0.93498497505E+01  0.17645729320E+02 -0.10053478759E+02  0.22357636034E+02  0.51100000000E-03 0. -1.
        -11    1    4    4    0    0 -0.24399708468E+01  0.11972546666E+02  0.76476473411E+01  0.14414639833E+02  0.51100000000E-03 0.  1.
         12    1    4    4    0    0 -0.16191697473E+02 -0.57266809340E+01  0.38224401096E+01  0.17594800084E+02  0.00000000000E+00 0. -1.
</event>
<event>
 8    1  0.2516265E-006  0.9118800E+02  0.7816164E-02  0.1184000E+00
        -11   -1    0    0    0    0  0.00000000000E+00  0.00000000000E+00  0.45593999997E+02  0.45594000000E+02  0.51100000000E-03 0.  1.
         11   -1    0    0    0    0 -0.00000000000E+00 -0.00000000000E+00 -0.45593999997E+02  0.45594000000E+02  0.51100000000E-03 0. -1.
         23    2    1    2    0    0  0.00000000000E+00  0.00000000000E+00  0.00000000000E+00  0.91188000000E+02  0.91188000000E+02 0.  0.
    9900012    2    3    3    0    0  0.20607243032E+02 -0.27624386652E+02 -0.12962034795E+02  0.54367088152E+02  0.40000009061E+02 0.  0.
         12    1    3    3    0    0 -0.20607243032E+02  0.27624386652E+02  0.12962034795E+02  0.36820911848E+02  0.00000000000E+00 0. -1.
         11    1    4    4    0    0 -0.69168869640E+01  0.97714787071E+00  0.26383117000E+01  0.74671836807E+01  0.51100000000E-03 0. -1.
        -11    1    4    4    0    0  0.23022777311E+02 -0.10678972797E+02 -0.12001407595E+02  0.28073519901E+02  0.51100000000E-03 0.  1.
         12    1    4    4    0    0  0.45013526844E+01 -0.17922561725E+02 -0.35989389003E+01  0.18826384570E+02  0.00000000000E+00 0. -1.
</event>
<event>
 8    1  0.2516265E-006  0.9118800E+02  0.7816164E-02  0.1184000E+00
        -11   -1    0    0    0    0  0.00000000000E+00  0.00000000000E+00  0.45593999997E+02  0.45594000000E+02  0.51100000000E-03 0. -1.
         11   -1    0    0    0    0 -0.00000000000E+00 -0.00000000000E+00 -0.45593999997E+02  0.45594000000E+02  0.51100000000E-03 0.  1.
         23    2    1    2    0    0  0.00000000000E+00 -0.35527136788E-14  0.35527136788E-14  0.91188000000E+02  0.91188000000E+02 0.  0.
    9900012    2    3    3    0    0  0.24259113606E+02  0.18555559116E+02  0.20566176529E+02  0.54367068669E+02  0.39999964646E+02 0.  0.
        -12    1    3    3    0    0 -0.24259113606E+02 -0.18555559116E+02 -0.20566176529E+02  0.36820931331E+02  0.00000000000E+00 0.  1.
         11    1    4    4    0    0  0.89901964070E+01  0.10643497777E+02 -0.25618987273E+01  0.14165839252E+02  0.51100000000E-03 0. -1.
        -11    1    4    4    0    0 -0.79947195754E+01  0.49582391087E+00  0.87611182942E+01  0.11870913043E+02  0.51100000000E-03 0.  1.
        -12    1    4    4    0    0  0.23263636774E+02  0.74162374283E+01  0.14366956962E+02  0.28330316375E+02  0.00000000000E+00 0.  1.
</event>
<event>
 8    1  0.2516265E-006  0.9118800E+02  0.7816164E-02  0.1184000E+00
        -11   -1    0    0    0    0  0.00000000000E+00  0.00000000000E+00  0.45593999997E+02  0.45594000000E+02  0.51100000000E-03 0.  1.
         11   -1    0    0    0    0 -0.00000000000E+00 -0.00000000000E+00 -0.45593999997E+02  0.45594000000E+02  0.51100000000E-03 0. -1.
         23    2    1    2    0    0  0.17763568394E-14  0.00000000000E+00  0.00000000000E+00  0.91188000000E+02  0.91188000000E+02 0.  0.
    9900012    2    3    3    0    0  0.14644836762E+02 -0.22205301062E+02 -0.25460418606E+02  0.54367088080E+02  0.40000008896E+02 0.  0.
        -12    1    3    3    0    0 -0.14644836762E+02  0.22205301062E+02  0.25460418606E+02  0.36820911920E+02  0.00000000000E+00 0.  1.
         11    1    4    4    0    0  0.29907086373E+01 -0.17132695872E+02 -0.15988659988E+02  0.23624369928E+02  0.51100000000E-03 0. -1.
        -11    1    4    4    0    0 -0.48878229283E+01 -0.54171189066E+00 -0.12403392898E+02  0.13342729121E+02  0.51100000000E-03 0.  1.
        -12    1    4    4    0    0  0.16541951053E+02 -0.45308932994E+01  0.29316342806E+01  0.17399989031E+02  0.00000000000E+00 0.  1.
</event>
<event>
 8    1  0.2516265E-006  0.9118800E+02  0.7816164E-02  0.1184000E+00
        -11   -1    0    0    0    0  0.00000000000E+00  0.00000000000E+00  0.45593999997E+02  0.45594000000E+02  0.51100000000E-03 0.  1.
         11   -1    0    0    0    0 -0.00000000000E+00 -0.00000000000E+00 -0.45593999997E+02  0.45594000000E+02  0.51100000000E-03 0. -1.
         23    2    1    2    0    0  0.00000000000E+00  0.00000000000E+00  0.00000000000E+00  0.91188000000E+02  0.91188000000E+02 0.  0.
    9900012    2    3    3    0    0 -0.59868502947E+00  0.26663902402E+02  0.25386179016E+02  0.54367079315E+02  0.39999988914E+02 0.  0.
         12    1    3    3    0    0  0.59868502947E+00 -0.26663902402E+02 -0.25386179016E+02  0.36820920685E+02  0.00000000000E+00 0. -1.
         11    1    4    4    0    0  0.37564107897E+01 -0.28616438448E+01 -0.19044364856E+01  0.50918077443E+01  0.51100000000E-03 0. -1.
        -11    1    4    4    0    0  0.32174029900E+01  0.83819230047E+01  0.25162070963E+02  0.26715877876E+02  0.51100000000E-03 0.  1.
        -12    1    4    4    0    0 -0.75724988092E+01  0.21143623242E+02  0.21285445382E+01  0.22559393695E+02  0.00000000000E+00 0.  1.
</event>
<event>
 8    1  0.2516265E-006  0.9118800E+02  0.7816164E-02  0.1184000E+00
        -11   -1    0    0    0    0  0.00000000000E+00  0.00000000000E+00  0.45593999997E+02  0.45594000000E+02  0.51100000000E-03 0. -1.
         11   -1    0    0    0    0 -0.00000000000E+00 -0.00000000000E+00 -0.45593999997E+02  0.45594000000E+02  0.51100000000E-03 0.  1.
         23    2    1    2    0    0  0.22204460493E-15  0.00000000000E+00  0.35527136788E-14  0.91188000000E+02  0.91188000000E+02 0.  0.
    9900012    2    3    3    0    0 -0.10609634111E+01  0.29120488715E+02  0.22508879908E+02  0.54367106732E+02  0.40000051417E+02 0.  0.
        -12    1    3    3    0    0  0.10609634111E+01 -0.29120488715E+02 -0.22508879908E+02  0.36820893268E+02  0.00000000000E+00 0.  1.
         11    1    4    4    0    0 -0.10145377839E+02  0.24036442930E+02  0.98428126180E-01  0.26090016646E+02  0.51100000000E-03 0. -1.
        -11    1    4    4    0    0  0.18318781559E+01 -0.15607272191E+01 -0.12076412460E+01  0.26925906987E+01  0.51100000000E-03 0.  1.
         12    1    4    4    0    0  0.72525362723E+01  0.66447730040E+01  0.23618093028E+02  0.25584499388E+02  0.00000000000E+00 0. -1.
</event>
<event>
 8    1  0.2516265E-006  0.9118800E+02  0.7816164E-02  0.1184000E+00
        -11   -1    0    0    0    0  0.00000000000E+00  0.00000000000E+00  0.45593999997E+02  0.45594000000E+02  0.51100000000E-03 0.  1.
         11   -1    0    0    0    0 -0.00000000000E+00 -0.00000000000E+00 -0.45593999997E+02  0.45594000000E+02  0.51100000000E-03 0. -1.
         23    2    1    2    0    0  0.00000000000E+00  0.00000000000E+00  0.00000000000E+00  0.91188000000E+02  0.91188000000E+02 0.  0.
    9900012    2    3    3    0    0  0.22673118259E+02 -0.18567706272E+02  0.22292375088E+02  0.54367082102E+02  0.39999995268E+02 0.  0.
         12    1    3    3    0    0 -0.22673118259E+02  0.18567706272E+02 -0.22292375088E+02  0.36820917898E+02  0.00000000000E+00 0. -1.
         11    1    4    4    0    0  0.78733842014E+00  0.20694955216E+01 -0.44557575082E+01  0.49755892851E+01  0.51100000000E-03 0. -1.
        -11    1    4    4    0    0  0.14425426810E+02 -0.16276729135E+02  0.49712574361E+00  0.21754815197E+02  0.51100000000E-03 0.  1.
         12    1    4    4    0    0  0.74603530291E+01 -0.43604726587E+01  0.26251006852E+02  0.27636677620E+02  0.00000000000E+00 0. -1.
</event>
<event>
 8    1  0.2516265E-006  0.9118800E+02  0.7816164E-02  0.1184000E+00
        -11   -1    0    0    0    0  0.00000000000E+00  0.00000000000E+00  0.45593999997E+02  0.45594000000E+02  0.51100000000E-03 0. -1.
         11   -1    0    0    0    0 -0.00000000000E+00 -0.00000000000E+00 -0.45593999997E+02  0.45594000000E+02  0.51100000000E-03 0.  1.
         23    2    1    2    0    0 -0.88817841970E-15  0.00000000000E+00  0.35527136788E-14  0.91188000000E+02  0.91188000000E+02 0.  0.
    9900012    2    3    3    0    0  0.25690148347E+01 -0.30204652855E+02  0.20901247808E+02  0.54367040599E+02  0.39999900654E+02 0.  0.
        -12    1    3    3    0    0 -0.25690148347E+01  0.30204652855E+02 -0.20901247808E+02  0.36820959401E+02  0.00000000000E+00 0.  1.
         11    1    4    4    0    0  0.13599867586E+02 -0.78190404963E+01 -0.31522239451E+01  0.16000947119E+02  0.51100000000E-03 0. -1.
        -11    1    4    4    0    0 -0.90226924271E+01 -0.24970213287E+02  0.20571671153E+02  0.33587411102E+02  0.51100000000E-03 0.  1.
         12    1    4    4    0    0 -0.20081603245E+01  0.25846009291E+01  0.34818005997E+01  0.47786823778E+01  0.00000000000E+00 0. -1.
</event>
<event>
 8    1  0.2516265E-006  0.9118800E+02  0.7816164E-02  0.1184000E+00
        -11   -1    0    0    0    0  0.00000000000E+00  0.00000000000E+00  0.45593999997E+02  0.45594000000E+02  0.51100000000E-03 0. -1.
         11   -1    0    0    0    0 -0.00000000000E+00 -0.00000000000E+00 -0.45593999997E+02  0.45594000000E+02  0.51100000000E-03 0.  1.
         23    2    1    2    0    0  0.00000000000E+00  0.00000000000E+00  0.71054273576E-14  0.91188000000E+02  0.91188000000E+02 0.  0.
    9900012    2    3    3    0    0 -0.10927195727E+02 -0.75652076412E+01  0.34338631976E+02  0.54367114363E+02  0.40000068814E+02 0.  0.
        -12    1    3    3    0    0  0.10927195727E+02  0.75652076412E+01 -0.34338631976E+02  0.36820885637E+02  0.00000000000E+00 0.  1.
         11    1    4    4    0    0 -0.76500118389E+01 -0.55650690193E+01 -0.71095451603E+00  0.94867344703E+01  0.51100000000E-03 0.  1.
        -11    1    4    4    0    0 -0.25332902301E+01  0.59859715263E+01 -0.21342165624E+01  0.68413664643E+01  0.51100000000E-03 0. -1.
         12    1    4    4    0    0 -0.74389365789E+00 -0.79861101482E+01  0.37183803054E+02  0.38039013429E+02  0.00000000000E+00 0. -1.
</event>
<event>
 8    1  0.2516265E-006  0.9118800E+02  0.7816164E-02  0.1184000E+00
        -11   -1    0    0    0    0  0.00000000000E+00  0.00000000000E+00  0.45593999997E+02  0.45594000000E+02  0.51100000000E-03 0.  1.
         11   -1    0    0    0    0 -0.00000000000E+00 -0.00000000000E+00 -0.45593999997E+02  0.45594000000E+02  0.51100000000E-03 0. -1.
         23    2    1    2    0    0  0.00000000000E+00 -0.88817841970E-15  0.00000000000E+00  0.91188000000E+02  0.91188000000E+02 0.  0.
    9900012    2    3    3    0    0 -0.30231872521E+01  0.59343076634E+01 -0.36213598058E+02  0.54367077240E+02  0.39999984184E+02 0.  0.
        -12    1    3    3    0    0  0.30231872521E+01 -0.59343076634E+01  0.36213598058E+02  0.36820922760E+02  0.00000000000E+00 0.  1.
         11    1    4    4    0    0  0.39204894127E+01  0.63711943071E+01 -0.86140312892E+01  0.11408939015E+02  0.51100000000E-03 0. -1.
        -11    1    4    4    0    0  0.24428571433E+01 -0.76962993311E+01  0.41391372138E+01  0.90737550965E+01  0.51100000000E-03 0.  1.
         12    1    4    4    0    0 -0.93865338082E+01  0.72594126874E+01 -0.31738703983E+02  0.33884383128E+02  0.00000000000E+00 0. -1.
</event>
<event>
 8    1  0.2516265E-006  0.9118800E+02  0.7816164E-02  0.1184000E+00
        -11   -1    0    0    0    0  0.00000000000E+00  0.00000000000E+00  0.45593999997E+02  0.45594000000E+02  0.51100000000E-03 0. -1.
         11   -1    0    0    0    0 -0.00000000000E+00 -0.00000000000E+00 -0.45593999997E+02  0.45594000000E+02  0.51100000000E-03 0.  1.
         23    2    1    2    0    0  0.35527136788E-14  0.35527136788E-14  0.17763568394E-14  0.91188000000E+02  0.91188000000E+02 0.  0.
    9900012    2    3    3    0    0 -0.21545037900E+02 -0.28218407491E+02  0.97628454265E+01  0.54367077548E+02  0.39999984886E+02 0.  0.
         12    1    3    3    0    0  0.21545037900E+02  0.28218407491E+02 -0.97628454265E+01  0.36820922452E+02  0.00000000000E+00 0. -1.
         11    1    4    4    0    0 -0.16755122239E+02  0.14442423886E+01 -0.67410085899E+01  0.18117978761E+02  0.51100000000E-03 0. -1.
        -11    1    4    4    0    0 -0.39926269973E+01 -0.98988778380E+01  0.11812433355E+02  0.15920503598E+02  0.51100000000E-03 0.  1.
         12    1    4    4    0    0 -0.79728866329E+00 -0.19763772041E+02  0.46914206610E+01  0.20328595188E+02  0.00000000000E+00 0. -1.
</event>
<event>
 8    1  0.2516265E-006  0.9118800E+02  0.7816164E-02  0.1184000E+00
        -11   -1    0    0    0    0  0.00000000000E+00  0.00000000000E+00  0.45593999997E+02  0.45594000000E+02  0.51100000000E-03 0.  1.
         11   -1    0    0    0    0 -0.00000000000E+00 -0.00000000000E+00 -0.45593999997E+02  0.45594000000E+02  0.51100000000E-03 0. -1.
         23    2    1    2    0    0 -0.71054273576E-14  0.35527136788E-14 -0.88817841970E-15  0.91188000000E+02  0.91188000000E+02 0.  0.
    9900012    2    3    3    0    0  0.30495753848E+02  0.20047177010E+02 -0.48887044556E+01  0.54367085561E+02  0.40000003154E+02 0.  0.
        -12    1    3    3    0    0 -0.30495753848E+02 -0.20047177010E+02  0.48887044556E+01  0.36820914439E+02  0.00000000000E+00 0.  1.
         11    1    4    4    0    0 -0.56415837782E+01  0.16536272774E+01  0.45807034245E+01  0.74528380382E+01  0.51100000000E-03 0. -1.
        -11    1    4    4    0    0  0.10127348823E+01  0.95439627047E+01 -0.56834811598E+00  0.96143577993E+01  0.51100000000E-03 0.  1.
         12    1    4    4    0    0  0.35124602744E+02  0.88495870284E+01 -0.89010597641E+01  0.37299889724E+02  0.00000000000E+00 0. -1.
</event>
<event>
 8    1  0.2516265E-006  0.9118800E+02  0.7816164E-02  0.1184000E+00
        -11   -1    0    0    0    0  0.00000000000E+00  0.00000000000E+00  0.45593999997E+02  0.45594000000E+02  0.51100000000E-03 0.  1.
         11   -1    0    0    0    0 -0.00000000000E+00 -0.00000000000E+00 -0.45593999997E+02  0.45594000000E+02  0.51100000000E-03 0. -1.
         23    2    1    2    0    0 -0.35527136788E-14  0.35527136788E-14  0.00000000000E+00  0.91188000000E+02  0.91188000000E+02 0.  0.
    9900012    2    3    3    0    0  0.26538537139E+02  0.20424277913E+02 -0.15308344017E+02  0.54366939745E+02  0.39999670735E+02 0.  0.
        -12    1    3    3    0    0 -0.26538537139E+02 -0.20424277913E+02  0.15308344017E+02  0.36821060255E+02  0.00000000000E+00 0.  1.
         11    1    4    4    0    0  0.23696246343E+02  0.73425197943E+01 -0.15082207855E+02  0.29032700214E+02  0.51100000000E-03 0. -1.
        -11    1    4    4    0    0  0.24933064804E+01 -0.40869465022E+00 -0.89268897187E+01  0.92775518771E+01  0.51100000000E-03 0.  1.
        -12    1    4    4    0    0  0.34898431540E+00  0.13490452769E+02  0.87007535562E+01  0.16056687653E+02  0.00000000000E+00 0.  1.
</event>
<event>
 8    1  0.2516265E-006  0.9118800E+02  0.7816164E-02  0.1184000E+00
        -11   -1    0    0    0    0  0.00000000000E+00  0.00000000000E+00  0.45593999997E+02  0.45594000000E+02  0.51100000000E-03 0.  1.
         11   -1    0    0    0    0 -0.00000000000E+00 -0.00000000000E+00 -0.45593999997E+02  0.45594000000E+02  0.51100000000E-03 0. -1.
         23    2    1    2    0    0  0.00000000000E+00 -0.26645352591E-14  0.00000000000E+00  0.91188000000E+02  0.91188000000E+02 0.  0.
    9900012    2    3    3    0    0 -0.49270812718E+01 -0.68141065633E+01 -0.35847891112E+02  0.54367089157E+02  0.40000011351E+02 0.  0.
        -12    1    3    3    0    0  0.49270812718E+01  0.68141065633E+01  0.35847891112E+02  0.36820910843E+02  0.00000000000E+00 0.  1.
         11    1    4    4    0    0 -0.11902524005E+02  0.68059421279E+01 -0.32919994413E+01  0.14100644898E+02  0.51100000000E-03 0. -1.
        -11    1    4    4    0    0  0.81909580849E+01  0.13362889964E+01 -0.82531353221E+01  0.11704345583E+02  0.51100000000E-03 0.  1.
        -12    1    4    4    0    0 -0.12155153515E+01 -0.14956337688E+02 -0.24302756349E+02  0.28562098676E+02  0.00000000000E+00 0.  1.
</event>
<event>
 8    1  0.2516265E-006  0.9118800E+02  0.7816164E-02  0.1184000E+00
        -11   -1    0    0    0    0  0.00000000000E+00  0.00000000000E+00  0.45593999997E+02  0.45594000000E+02  0.51100000000E-03 0.  1.
         11   -1    0    0    0    0 -0.00000000000E+00 -0.00000000000E+00 -0.45593999997E+02  0.45594000000E+02  0.51100000000E-03 0. -1.
         23    2    1    2    0    0 -0.12212453271E-14  0.00000000000E+00  0.71054273576E-14  0.91188000000E+02  0.91188000000E+02 0.  0.
    9900012    2    3    3    0    0 -0.75648776619E+00 -0.17479263109E+02 -0.32398823761E+02  0.54367072613E+02  0.39999973635E+02 0.  0.
        -12    1    3    3    0    0  0.75648776619E+00  0.17479263109E+02  0.32398823761E+02  0.36820927387E+02  0.00000000000E+00 0.  1.
         11    1    4    4    0    0  0.41256304689E+01 -0.13160285935E+02 -0.27462273120E+02  0.30730935518E+02  0.51100000000E-03 0. -1.
        -11    1    4    4    0    0  0.25284762416E+00  0.89154223454E+01 -0.18578904767E+01  0.91104579908E+01  0.51100000000E-03 0.  1.
         12    1    4    4    0    0 -0.51349658592E+01 -0.13234399519E+02 -0.30786601647E+01  0.14525679104E+02  0.00000000000E+00 0. -1.
</event>
<event>
 8    1  0.2516265E-006  0.9118800E+02  0.7816164E-02  0.1184000E+00
        -11   -1    0    0    0    0  0.00000000000E+00  0.00000000000E+00  0.45593999997E+02  0.45594000000E+02  0.51100000000E-03 0.  1.
         11   -1    0    0    0    0 -0.00000000000E+00 -0.00000000000E+00 -0.45593999997E+02  0.45594000000E+02  0.51100000000E-03 0. -1.
         23    2    1    2    0    0  0.35527136788E-14  0.35527136788E-14 -0.94368957093E-15  0.91188000000E+02  0.91188000000E+02 0.  0.
    9900012    2    3    3    0    0 -0.21718577831E+02 -0.29729962349E+02  0.47482760798E+00  0.54366908958E+02  0.39999600550E+02 0.  0.
        -12    1    3    3    0    0  0.21718577831E+02  0.29729962349E+02 -0.47482760798E+00  0.36821091042E+02  0.00000000000E+00 0.  1.
         11    1    4    4    0    0 -0.14336987656E+02 -0.31719839973E+02  0.46417820787E+01  0.35117568311E+02  0.51100000000E-03 0. -1.
        -11    1    4    4    0    0 -0.35497840626E+01  0.23095541532E+01  0.65857098656E+01  0.78298519764E+01  0.51100000000E-03 0.  1.
         12    1    4    4    0    0 -0.38318061126E+01 -0.31967652842E+00 -0.10752664336E+02  0.11419488671E+02  0.00000000000E+00 0. -1.
</event>
<event>
 8    1  0.2516265E-006  0.9118800E+02  0.7816164E-02  0.1184000E+00
        -11   -1    0    0    0    0  0.00000000000E+00  0.00000000000E+00  0.45593999997E+02  0.45594000000E+02  0.51100000000E-03 0.  1.
         11   -1    0    0    0    0 -0.00000000000E+00 -0.00000000000E+00 -0.45593999997E+02  0.45594000000E+02  0.51100000000E-03 0. -1.
         23    2    1    2    0    0 -0.88817841970E-15  0.00000000000E+00  0.00000000000E+00  0.91188000000E+02  0.91188000000E+02 0.  0.
    9900012    2    3    3    0    0  0.47531265450E+01  0.33945456222E+02  0.13449664236E+02  0.54367086403E+02  0.40000005073E+02 0.  0.
        -12    1    3    3    0    0 -0.47531265450E+01 -0.33945456222E+02 -0.13449664236E+02  0.36820913597E+02  0.00000000000E+00 0.  1.
         11    1    4    4    0    0  0.70851774691E+01  0.11322477151E+02 -0.20895032866E+01  0.13519032985E+02  0.51100000000E-03 0. -1.
        -11    1    4    4    0    0 -0.11959778389E+02  0.25096678823E+02  0.12222715974E+02  0.30368970564E+02  0.51100000000E-03 0.  1.
        -12    1    4    4    0    0  0.96277274646E+01 -0.24736997519E+01  0.33164515481E+01  0.10479082854E+02  0.00000000000E+00 0.  1.
</event>
<event>
 8    1  0.2516265E-006  0.9118800E+02  0.7816164E-02  0.1184000E+00
        -11   -1    0    0    0    0  0.00000000000E+00  0.00000000000E+00  0.45593999997E+02  0.45594000000E+02  0.51100000000E-03 0.  1.
         11   -1    0    0    0    0 -0.00000000000E+00 -0.00000000000E+00 -0.45593999997E+02  0.45594000000E+02  0.51100000000E-03 0. -1.
         23    2    1    2    0    0  0.88817841970E-15  0.00000000000E+00  0.00000000000E+00  0.91188000000E+02  0.91188000000E+02 0.  0.
    9900012    2    3    3    0    0  0.60765735048E+01  0.12639583110E+02 -0.34045491088E+02  0.54367091942E+02  0.40000017701E+02 0.  0.
        -12    1    3    3    0    0 -0.60765735048E+01 -0.12639583110E+02  0.34045491088E+02  0.36820908058E+02  0.00000000000E+00 0.  1.
         11    1    4    4    0    0  0.83032643680E+01  0.13294668605E+02 -0.24856139687E+02  0.29385712394E+02  0.51100000000E-03 0. -1.
        -11    1    4    4    0    0  0.67846633879E+01 -0.70590237904E+01 -0.98737589002E+01  0.13905128163E+02  0.51100000000E-03 0.  1.
        -12    1    4    4    0    0 -0.90113542511E+01  0.64039382950E+01  0.68440749908E+00  0.11076251385E+02  0.00000000000E+00 0.  1.
</event>
<event>
 8    1  0.2516265E-006  0.9118800E+02  0.7816164E-02  0.1184000E+00
        -11   -1    0    0    0    0  0.00000000000E+00  0.00000000000E+00  0.45593999997E+02  0.45594000000E+02  0.51100000000E-03 0.  1.
         11   -1    0    0    0    0 -0.00000000000E+00 -0.00000000000E+00 -0.45593999997E+02  0.45594000000E+02  0.51100000000E-03 0. -1.
         23    2    1    2    0    0  0.17763568394E-14  0.35527136788E-14  0.00000000000E+00  0.91188000000E+02  0.91188000000E+02 0.  0.
    9900012    2    3    3    0    0 -0.13713709150E+02 -0.16554926858E+02 -0.29893928869E+02  0.54367103689E+02  0.40000044479E+02 0.  0.
        -12    1    3    3    0    0  0.13713709150E+02  0.16554926858E+02  0.29893928869E+02  0.36820896311E+02  0.00000000000E+00 0.  1.
         11    1    4    4    0    0 -0.25070928315E+01  0.46753548254E+01 -0.61208813310E+00  0.53403285810E+01  0.51100000000E-03 0. -1.
        -11    1    4    4    0    0  0.11460033228E+01 -0.16075775660E+02  0.76371322922E+00  0.16134656638E+02  0.51100000000E-03 0.  1.
         12    1    4    4    0    0 -0.12352619642E+02 -0.51545060240E+01 -0.30045553965E+02  0.32892118470E+02  0.00000000000E+00 0. -1.
</event>
<event>
 8    1  0.2516265E-006  0.9118800E+02  0.7816164E-02  0.1184000E+00
        -11   -1    0    0    0    0  0.00000000000E+00  0.00000000000E+00  0.45593999997E+02  0.45594000000E+02  0.51100000000E-03 0. -1.
         11   -1    0    0    0    0 -0.00000000000E+00 -0.00000000000E+00 -0.45593999997E+02  0.45594000000E+02  0.51100000000E-03 0.  1.
         23    2    1    2    0    0  0.00000000000E+00  0.00000000000E+00  0.00000000000E+00  0.91188000000E+02  0.91188000000E+02 0.  0.
    9900012    2    3    3    0    0 -0.26830769309E+02  0.15435272250E+02 -0.19940940295E+02  0.54367096820E+02  0.40000028820E+02 0.  0.
         12    1    3    3    0    0  0.26830769309E+02 -0.15435272250E+02  0.19940940295E+02  0.36820903180E+02  0.00000000000E+00 0. -1.
         11    1    4    4    0    0  0.23100349291E+01 -0.44446790274E+01 -0.14965447214E+02  0.15781509548E+02  0.51100000000E-03 0. -1.
        -11    1    4    4    0    0 -0.84855773093E+01  0.11990690760E+02 -0.72077986373E+01  0.16362580745E+02  0.51100000000E-03 0.  1.
         12    1    4    4    0    0 -0.20655226929E+02  0.78892605172E+01  0.22323055562E+01  0.22223006527E+02  0.00000000000E+00 0. -1.
</event>
<event>
 8    1  0.2516265E-006  0.9118800E+02  0.7816164E-02  0.1184000E+00
        -11   -1    0    0    0    0  0.00000000000E+00  0.00000000000E+00  0.45593999997E+02  0.45594000000E+02  0.51100000000E-03 0. -1.
         11   -1    0    0    0    0 -0.00000000000E+00 -0.00000000000E+00 -0.45593999997E+02  0.45594000000E+02  0.51100000000E-03 0.  1.
         23    2    1    2    0    0 -0.88817841970E-15  0.00000000000E+00 -0.35527136788E-14  0.91188000000E+02  0.91188000000E+02 0.  0.
    9900012    2    3    3    0    0  0.71837298933E+01  0.20073829978E+02 -0.30020258213E+02  0.54367074858E+02  0.39999978753E+02 0.  0.
         12    1    3    3    0    0 -0.71837298933E+01 -0.20073829978E+02  0.30020258213E+02  0.36820925142E+02  0.00000000000E+00 0. -1.
         11    1    4    4    0    0 -0.31673655857E+01 -0.39823817461E+01  0.27775463299E+00  0.50959510421E+01  0.51100000000E-03 0. -1.
        -11    1    4    4    0    0  0.18871167215E+02  0.14483253764E+02 -0.11252662596E+02  0.26315546876E+02  0.51100000000E-03 0.  1.
        -12    1    4    4    0    0 -0.85200717355E+01  0.95729579600E+01 -0.19045350250E+02  0.22955576940E+02  0.00000000000E+00 0.  1.
</event>
<event>
 8    1  0.2516265E-006  0.9118800E+02  0.7816164E-02  0.1184000E+00
        -11   -1    0    0    0    0  0.00000000000E+00  0.00000000000E+00  0.45593999997E+02  0.45594000000E+02  0.51100000000E-03 0. -1.
         11   -1    0    0    0    0 -0.00000000000E+00 -0.00000000000E+00 -0.45593999997E+02  0.45594000000E+02  0.51100000000E-03 0.  1.
         23    2    1    2    0    0 -0.71054273576E-14  0.00000000000E+00  0.17763568394E-14  0.91188000000E+02  0.91188000000E+02 0.  0.
    9900012    2    3    3    0    0  0.34205562306E+02  0.56234454570E+01  0.12415177155E+02  0.54367078566E+02  0.39999987207E+02 0.  0.
        -12    1    3    3    0    0 -0.34205562306E+02 -0.56234454570E+01 -0.12415177155E+02  0.36820921434E+02  0.00000000000E+00 0.  1.
         11    1    4    4    0    0 -0.42300495780E+01  0.70804507258E+01  0.23174964707E+00  0.82510490287E+01  0.51100000000E-03 0. -1.
        -11    1    4    4    0    0  0.23666062029E+02  0.10092428374E+02  0.71245137332E+01  0.26696409845E+02  0.51100000000E-03 0.  1.
         12    1    4    4    0    0  0.14769549855E+02 -0.11549433643E+02  0.50589137748E+01  0.19419619692E+02  0.00000000000E+00 0. -1.
</event>
<event>
 8    1  0.2516265E-006  0.9118800E+02  0.7816164E-02  0.1184000E+00
        -11   -1    0    0    0    0  0.00000000000E+00  0.00000000000E+00  0.45593999997E+02  0.45594000000E+02  0.51100000000E-03 0.  1.
         11   -1    0    0    0    0 -0.00000000000E+00 -0.00000000000E+00 -0.45593999997E+02  0.45594000000E+02  0.51100000000E-03 0. -1.
         23    2    1    2    0    0  0.00000000000E+00  0.00000000000E+00 -0.35527136788E-14  0.91188000000E+02  0.91188000000E+02 0.  0.
    9900012    2    3    3    0    0 -0.53297461446E+01 -0.25353318778E+02  0.26164535198E+02  0.54367083809E+02  0.39999999160E+02 0.  0.
         12    1    3    3    0    0  0.53297461446E+01  0.25353318778E+02 -0.26164535198E+02  0.36820916191E+02  0.00000000000E+00 0. -1.
         11    1    4    4    0    0 -0.10358672081E+02 -0.29061547833E+01 -0.59406984713E+01  0.12289821866E+02  0.51100000000E-03 0. -1.
        -11    1    4    4    0    0  0.68552245593E+00 -0.19689327018E+02  0.16671317199E+02  0.25808377649E+02  0.51100000000E-03 0.  1.
         12    1    4    4    0    0  0.43434034803E+01 -0.27578369764E+01  0.15433916470E+02  0.16268884295E+02  0.00000000000E+00 0. -1.
</event>
<event>
 8    1  0.2516265E-006  0.9118800E+02  0.7816164E-02  0.1184000E+00
        -11   -1    0    0    0    0  0.00000000000E+00  0.00000000000E+00  0.45593999997E+02  0.45594000000E+02  0.51100000000E-03 0. -1.
         11   -1    0    0    0    0 -0.00000000000E+00 -0.00000000000E+00 -0.45593999997E+02  0.45594000000E+02  0.51100000000E-03 0.  1.
         23    2    1    2    0    0  0.00000000000E+00 -0.44408920985E-15  0.71054273576E-14  0.91188000000E+02  0.91188000000E+02 0.  0.
    9900012    2    3    3    0    0 -0.12515729353E+02  0.27081506432E+01  0.34522507273E+02  0.54367067509E+02  0.39999961999E+02 0.  0.
        -12    1    3    3    0    0  0.12515729353E+02 -0.27081506432E+01 -0.34522507273E+02  0.36820932491E+02  0.00000000000E+00 0.  1.
         11    1    4    4    0    0 -0.56661692030E+01  0.10392861964E+02  0.32217541884E+02  0.34323272841E+02  0.51100000000E-03 0. -1.
        -11    1    4    4    0    0  0.93588126414E+00  0.34058802425E+01 -0.37943506936E+01  0.51839166095E+01  0.51100000000E-03 0.  1.
         12    1    4    4    0    0 -0.77854414137E+01 -0.11090591563E+02  0.60993160829E+01  0.14859878058E+02  0.00000000000E+00 0. -1.
</event>
<event>
 8    1  0.2516265E-006  0.9118800E+02  0.7816164E-02  0.1184000E+00
        -11   -1    0    0    0    0  0.00000000000E+00  0.00000000000E+00  0.45593999997E+02  0.45594000000E+02  0.51100000000E-03 0.  1.
         11   -1    0    0    0    0 -0.00000000000E+00 -0.00000000000E+00 -0.45593999997E+02  0.45594000000E+02  0.51100000000E-03 0. -1.
         23    2    1    2    0    0  0.00000000000E+00  0.35527136788E-14  0.94368957093E-15  0.91188000000E+02  0.91188000000E+02 0.  0.
    9900012    2    3    3    0    0 -0.20898558105E+02 -0.30315218212E+02  0.13573531241E+00  0.54367073746E+02  0.39999976219E+02 0.  0.
         12    1    3    3    0    0  0.20898558105E+02  0.30315218212E+02 -0.13573531241E+00  0.36820926254E+02  0.00000000000E+00 0. -1.
         11    1    4    4    0    0 -0.37516485903E+01 -0.24044100950E+02  0.79220151759E+01  0.25592029665E+02  0.51100000000E-03 0.  1.
        -11    1    4    4    0    0 -0.11841862460E+02 -0.13522908510E+02 -0.82504048916E+01  0.19777966079E+02  0.51100000000E-03 0. -1.
         12    1    4    4    0    0 -0.53050470542E+01  0.72517912474E+01  0.46412502810E+00  0.89970780026E+01  0.00000000000E+00 0. -1.
</event>
<event>
 8    1  0.2516265E-006  0.9118800E+02  0.7816164E-02  0.1184000E+00
        -11   -1    0    0    0    0  0.00000000000E+00  0.00000000000E+00  0.45593999997E+02  0.45594000000E+02  0.51100000000E-03 0. -1.
         11   -1    0    0    0    0 -0.00000000000E+00 -0.00000000000E+00 -0.45593999997E+02  0.45594000000E+02  0.51100000000E-03 0.  1.
         23    2    1    2    0    0  0.71054273576E-14  0.35527136788E-14  0.17763568394E-14  0.91188000000E+02  0.91188000000E+02 0.  0.
    9900012    2    3    3    0    0  0.16982304220E+02  0.29568259854E+02 -0.13896036981E+02  0.54367075362E+02  0.39999979903E+02 0.  0.
         12    1    3    3    0    0 -0.16982304220E+02 -0.29568259854E+02  0.13896036981E+02  0.36820924638E+02  0.00000000000E+00 0. -1.
         11    1    4    4    0    0  0.33270083297E+01 -0.10537211752E+01 -0.13637191265E+01  0.37468710757E+01  0.51100000000E-03 0. -1.
        -11    1    4    4    0    0 -0.11037979358E+02  0.34948507452E+01 -0.69803714439E+01  0.13519488001E+02  0.51100000000E-03 0.  1.
        -12    1    4    4    0    0  0.24693275249E+02  0.27127130284E+02 -0.55519464108E+01  0.37100716286E+02  0.00000000000E+00 0.  1.
</event>
<event>
 8    1  0.2516265E-006  0.9118800E+02  0.7816164E-02  0.1184000E+00
        -11   -1    0    0    0    0  0.00000000000E+00  0.00000000000E+00  0.45593999997E+02  0.45594000000E+02  0.51100000000E-03 0.  1.
         11   -1    0    0    0    0 -0.00000000000E+00 -0.00000000000E+00 -0.45593999997E+02  0.45594000000E+02  0.51100000000E-03 0. -1.
         23    2    1    2    0    0 -0.17763568394E-14  0.13322676296E-14 -0.71054273576E-14  0.91188000000E+02  0.91188000000E+02 0.  0.
    9900012    2    3    3    0    0 -0.12044707864E+02  0.18735484109E+01  0.34744577439E+02  0.54367206519E+02  0.40000278899E+02 0.  0.
         12    1    3    3    0    0  0.12044707864E+02 -0.18735484109E+01 -0.34744577439E+02  0.36820793481E+02  0.00000000000E+00 0. -1.
         11    1    4    4    0    0 -0.74309631564E+00  0.92396841041E+01 -0.38247648840E+01  0.10027600967E+02  0.51100000000E-03 0. -1.
        -11    1    4    4    0    0 -0.90681334692E+01  0.41159553297E+01  0.14663775242E+02  0.17725643500E+02  0.51100000000E-03 0.  1.
         12    1    4    4    0    0 -0.22334780796E+01 -0.11482091023E+02  0.23905567081E+02  0.26613962051E+02  0.00000000000E+00 0. -1.
</event>
<event>
 8    1  0.2516265E-006  0.9118800E+02  0.7816164E-02  0.1184000E+00
        -11   -1    0    0    0    0  0.00000000000E+00  0.00000000000E+00  0.45593999997E+02  0.45594000000E+02  0.51100000000E-03 0. -1.
         11   -1    0    0    0    0 -0.00000000000E+00 -0.00000000000E+00 -0.45593999997E+02  0.45594000000E+02  0.51100000000E-03 0.  1.
         23    2    1    2    0    0  0.26645352591E-14  0.00000000000E+00  0.35527136788E-14  0.91188000000E+02  0.91188000000E+02 0.  0.
    9900012    2    3    3    0    0 -0.12727957398E+01  0.30842856860E+02 -0.20071821162E+02  0.54367084299E+02  0.40000000277E+02 0.  0.
         12    1    3    3    0    0  0.12727957398E+01 -0.30842856860E+02  0.20071821162E+02  0.36820915701E+02  0.00000000000E+00 0. -1.
         11    1    4    4    0    0 -0.82338598124E+00 -0.20123874379E+01  0.48120870515E+00  0.22269328129E+01  0.51100000000E-03 0. -1.
        -11    1    4    4    0    0  0.13393647541E+02  0.79789935031E+01  0.21364307541E+01  0.15735897445E+02  0.51100000000E-03 0.  1.
        -12    1    4    4    0    0 -0.13843057300E+02  0.24876250795E+02 -0.22689460621E+02  0.36404254041E+02  0.00000000000E+00 0.  1.
</event>
<event>
 8    1  0.2516265E-006  0.9118800E+02  0.7816164E-02  0.1184000E+00
        -11   -1    0    0    0    0  0.00000000000E+00  0.00000000000E+00  0.45593999997E+02  0.45594000000E+02  0.51100000000E-03 0.  1.
         11   -1    0    0    0    0 -0.00000000000E+00 -0.00000000000E+00 -0.45593999997E+02  0.45594000000E+02  0.51100000000E-03 0. -1.
         23    2    1    2    0    0 -0.17763568394E-14  0.00000000000E+00  0.71054273576E-14  0.91188000000E+02  0.91188000000E+02 0.  0.
    9900012    2    3    3    0    0  0.96494887834E+01  0.23228374669E+02  0.26890801256E+02  0.54367011206E+02  0.39999833647E+02 0.  0.
         12    1    3    3    0    0 -0.96494887834E+01 -0.23228374669E+02 -0.26890801256E+02  0.36820988794E+02  0.00000000000E+00 0. -1.
         11    1    4    4    0    0  0.15040361736E+01  0.29745574282E+01  0.25949470171E+02  0.26162666514E+02  0.51100000000E-03 0. -1.
        -11    1    4    4    0    0  0.13010258069E+02  0.87036652206E+01  0.33068912695E+00  0.15656626675E+02  0.51100000000E-03 0.  1.
        -12    1    4    4    0    0 -0.48648054590E+01  0.11550152020E+02  0.61064195824E+00  0.12547718017E+02  0.00000000000E+00 0.  1.
</event>
<event>
 8    1  0.2516265E-006  0.9118800E+02  0.7816164E-02  0.1184000E+00
        -11   -1    0    0    0    0  0.00000000000E+00  0.00000000000E+00  0.45593999997E+02  0.45594000000E+02  0.51100000000E-03 0. -1.
         11   -1    0    0    0    0 -0.00000000000E+00 -0.00000000000E+00 -0.45593999997E+02  0.45594000000E+02  0.51100000000E-03 0.  1.
         23    2    1    2    0    0  0.00000000000E+00 -0.35527136788E-14  0.88817841970E-15  0.91188000000E+02  0.91188000000E+02 0.  0.
    9900012    2    3    3    0    0  0.22111102709E+02  0.28445455892E+02  0.75978687448E+01  0.54367184781E+02  0.40000229345E+02 0.  0.
        -12    1    3    3    0    0 -0.22111102709E+02 -0.28445455892E+02 -0.75978687448E+01  0.36820815219E+02  0.00000000000E+00 0.  1.
         11    1    4    4    0    0 -0.53708978560E+01  0.19651729555E+02 -0.39828819638E+01  0.20758139784E+02  0.51100000000E-03 0. -1.
        -11    1    4    4    0    0  0.19901496451E+02  0.15304333517E+01  0.32855804023E+01  0.20228861216E+02  0.51100000000E-03 0.  1.
        -12    1    4    4    0    0  0.75805041137E+01  0.72632929855E+01  0.82951703063E+01  0.13380183781E+02  0.00000000000E+00 0.  1.
</event>
<event>
 8    1  0.2516265E-006  0.9118800E+02  0.7816164E-02  0.1184000E+00
        -11   -1    0    0    0    0  0.00000000000E+00  0.00000000000E+00  0.45593999997E+02  0.45594000000E+02  0.51100000000E-03 0.  1.
         11   -1    0    0    0    0 -0.00000000000E+00 -0.00000000000E+00 -0.45593999997E+02  0.45594000000E+02  0.51100000000E-03 0. -1.
         23    2    1    2    0    0  0.00000000000E+00  0.28865798640E-14  0.66613381478E-15  0.91188000000E+02  0.91188000000E+02 0.  0.
    9900012    2    3    3    0    0 -0.36737607315E+02  0.18804554424E+01 -0.16098859505E+01  0.54367086966E+02  0.40000006357E+02 0.  0.
        -12    1    3    3    0    0  0.36737607315E+02 -0.18804554424E+01  0.16098859505E+01  0.36820913034E+02  0.00000000000E+00 0.  1.
         11    1    4    4    0    0 -0.19897611489E+02 -0.11119189462E+02 -0.82348708449E+01  0.24235602228E+02  0.51100000000E-03 0. -1.
        -11    1    4    4    0    0 -0.83637266808E+01  0.11490448439E+02  0.13123649859E+02  0.19344573275E+02  0.51100000000E-03 0.  1.
         12    1    4    4    0    0 -0.84762691452E+01  0.15091964654E+01 -0.64986649648E+01  0.10786911463E+02  0.00000000000E+00 0. -1.
</event>
<event>
 8    1  0.2516265E-006  0.9118800E+02  0.7816164E-02  0.1184000E+00
        -11   -1    0    0    0    0  0.00000000000E+00  0.00000000000E+00  0.45593999997E+02  0.45594000000E+02  0.51100000000E-03 0. -1.
         11   -1    0    0    0    0 -0.00000000000E+00 -0.00000000000E+00 -0.45593999997E+02  0.45594000000E+02  0.51100000000E-03 0.  1.
         23    2    1    2    0    0  0.71054273576E-14  0.00000000000E+00  0.00000000000E+00  0.91188000000E+02  0.91188000000E+02 0.  0.
    9900012    2    3    3    0    0 -0.28554197463E+02  0.24093790677E+01 -0.23122135469E+02  0.54367075937E+02  0.39999981214E+02 0.  0.
         12    1    3    3    0    0  0.28554197463E+02 -0.24093790677E+01  0.23122135469E+02  0.36820924063E+02  0.00000000000E+00 0. -1.
         11    1    4    4    0    0  0.53766249326E+01 -0.49888122042E+01 -0.13744646144E+02  0.15579205395E+02  0.51100000000E-03 0. -1.
        -11    1    4    4    0    0 -0.62569884489E+01  0.11832216124E+01 -0.82241869483E+01  0.10401306123E+02  0.51100000000E-03 0.  1.
         12    1    4    4    0    0 -0.27673833946E+02  0.62149696594E+01 -0.11533023767E+01  0.28386564419E+02  0.00000000000E+00 0. -1.
</event>
<event>
 8    1  0.2516265E-006  0.9118800E+02  0.7816164E-02  0.1184000E+00
        -11   -1    0    0    0    0  0.00000000000E+00  0.00000000000E+00  0.45593999997E+02  0.45594000000E+02  0.51100000000E-03 0.  1.
         11   -1    0    0    0    0 -0.00000000000E+00 -0.00000000000E+00 -0.45593999997E+02  0.45594000000E+02  0.51100000000E-03 0. -1.
         23    2    1    2    0    0  0.17763568394E-14  0.00000000000E+00  0.00000000000E+00  0.91188000000E+02  0.91188000000E+02 0.  0.
    9900012    2    3    3    0    0 -0.11456958028E+02 -0.99450391868E+01  0.33550182866E+02  0.54367075758E+02  0.39999980806E+02 0.  0.
         12    1    3    3    0    0  0.11456958028E+02  0.99450391868E+01 -0.33550182866E+02  0.36820924242E+02  0.00000000000E+00 0. -1.
         11    1    4    4    0    0 -0.98343064744E+01  0.26660495086E+01 -0.49984518378E+01  0.11349269794E+02  0.51100000000E-03 0. -1.
        -11    1    4    4    0    0  0.50793680660E+01 -0.34883916290E+01  0.61807832944E+01  0.87275963759E+01  0.51100000000E-03 0.  1.
         12    1    4    4    0    0 -0.67020196195E+01 -0.91226970664E+01  0.32367851410E+02  0.34290209588E+02  0.00000000000E+00 0. -1.
</event>
<event>
 8    1  0.2516265E-006  0.9118800E+02  0.7816164E-02  0.1184000E+00
        -11   -1    0    0    0    0  0.00000000000E+00  0.00000000000E+00  0.45593999997E+02  0.45594000000E+02  0.51100000000E-03 0. -1.
         11   -1    0    0    0    0 -0.00000000000E+00 -0.00000000000E+00 -0.45593999997E+02  0.45594000000E+02  0.51100000000E-03 0.  1.
         23    2    1    2    0    0  0.00000000000E+00  0.00000000000E+00 -0.44408920985E-15  0.91188000000E+02  0.91188000000E+02 0.  0.
    9900012    2    3    3    0    0 -0.18316618990E+02  0.31774834372E+02 -0.32617888863E+01  0.54367110585E+02  0.40000060200E+02 0.  0.
         12    1    3    3    0    0  0.18316618990E+02 -0.31774834372E+02  0.32617888863E+01  0.36820889415E+02  0.00000000000E+00 0. -1.
         11    1    4    4    0    0 -0.26480883433E+02  0.12316247769E+02 -0.72384128490E+01  0.30088565391E+02  0.51100000000E-03 0. -1.
        -11    1    4    4    0    0  0.19664353295E+01  0.38309128769E+01 -0.38112440587E+01  0.57505080568E+01  0.51100000000E-03 0.  1.
        -12    1    4    4    0    0  0.61978291136E+01  0.15627673727E+02  0.77878680213E+01  0.18528037137E+02  0.00000000000E+00 0.  1.
</event>
<event>
 8    1  0.2516265E-006  0.9118800E+02  0.7816164E-02  0.1184000E+00
        -11   -1    0    0    0    0  0.00000000000E+00  0.00000000000E+00  0.45593999997E+02  0.45594000000E+02  0.51100000000E-03 0.  1.
         11   -1    0    0    0    0 -0.00000000000E+00 -0.00000000000E+00 -0.45593999997E+02  0.45594000000E+02  0.51100000000E-03 0. -1.
         23    2    1    2    0    0  0.00000000000E+00  0.00000000000E+00  0.00000000000E+00  0.91188000000E+02  0.91188000000E+02 0.  0.
    9900012    2    3    3    0    0  0.79710049890E+01  0.12604079611E+02  0.33665716818E+02  0.54367078879E+02  0.39999987920E+02 0.  0.
         12    1    3    3    0    0 -0.79710049890E+01 -0.12604079611E+02 -0.33665716818E+02  0.36820921121E+02  0.00000000000E+00 0. -1.
         11    1    4    4    0    0  0.15665865944E+02  0.51692955086E+01  0.14766581942E+02  0.22140300683E+02  0.51100000000E-03 0. -1.
        -11    1    4    4    0    0 -0.45069165270E+01 -0.44993186977E+01  0.18826037524E+02  0.19873999458E+02  0.51100000000E-03 0.  1.
         12    1    4    4    0    0 -0.31879444277E+01  0.11934102800E+02  0.73097350623E-01  0.12352778738E+02  0.00000000000E+00 0. -1.
</event>
<event>
 8    1  0.2516265E-006  0.9118800E+02  0.7816164E-02  0.1184000E+00
        -11   -1    0    0    0    0  0.00000000000E+00  0.00000000000E+00  0.45593999997E+02  0.45594000000E+02  0.51100000000E-03 0. -1.
         11   -1    0    0    0    0 -0.00000000000E+00 -0.00000000000E+00 -0.45593999997E+02  0.45594000000E+02  0.51100000000E-03 0.  1.
         23    2    1    2    0    0  0.00000000000E+00 -0.35527136788E-14 -0.17763568394E-14  0.91188000000E+02  0.91188000000E+02 0.  0.
    9900012    2    3    3    0    0  0.18785676992E+02  0.28911100447E+02  0.12923860854E+02  0.54367087891E+02  0.40000008466E+02 0.  0.
        -12    1    3    3    0    0 -0.18785676992E+02 -0.28911100447E+02 -0.12923860854E+02  0.36820912109E+02  0.00000000000E+00 0.  1.
         11    1    4    4    0    0  0.24334793022E+02  0.12279541598E+02  0.19380043493E+02  0.33444810948E+02  0.51100000000E-03 0. -1.
        -11    1    4    4    0    0 -0.42304396088E+00  0.13793461694E+01 -0.44850777552E+01  0.47114206753E+01  0.51100000000E-03 0.  1.
        -12    1    4    4    0    0 -0.51260720686E+01  0.15252212680E+02 -0.19711048835E+01  0.16210856268E+02  0.00000000000E+00 0.  1.
</event>
<event>
 8    1  0.2516265E-006  0.9118800E+02  0.7816164E-02  0.1184000E+00
        -11   -1    0    0    0    0  0.00000000000E+00  0.00000000000E+00  0.45593999997E+02  0.45594000000E+02  0.51100000000E-03 0.  1.
         11   -1    0    0    0    0 -0.00000000000E+00 -0.00000000000E+00 -0.45593999997E+02  0.45594000000E+02  0.51100000000E-03 0. -1.
         23    2    1    2    0    0  0.88817841970E-15  0.00000000000E+00 -0.35527136788E-14  0.91188000000E+02  0.91188000000E+02 0.  0.
    9900012    2    3    3    0    0  0.51393277007E+01  0.22425533299E+02 -0.28748255281E+02  0.54367089981E+02  0.40000013229E+02 0.  0.
        -12    1    3    3    0    0 -0.51393277007E+01 -0.22425533299E+02  0.28748255281E+02  0.36820910019E+02  0.00000000000E+00 0.  1.
         11    1    4    4    0    0  0.19545981416E+02  0.16897186077E+02 -0.14228550766E+02  0.29495964876E+02  0.51100000000E-03 0. -1.
        -11    1    4    4    0    0 -0.90001722450E+00  0.24645448749E+01  0.20107321116E+01  0.33056098273E+01  0.51100000000E-03 0.  1.
         12    1    4    4    0    0 -0.13506636490E+02  0.30638023470E+01 -0.16530436626E+02  0.21565515277E+02  0.00000000000E+00 0. -1.
</event>
<event>
 8    1  0.2516265E-006  0.9118800E+02  0.7816164E-02  0.1184000E+00
        -11   -1    0    0    0    0  0.00000000000E+00  0.00000000000E+00  0.45593999997E+02  0.45594000000E+02  0.51100000000E-03 0.  1.
         11   -1    0    0    0    0 -0.00000000000E+00 -0.00000000000E+00 -0.45593999997E+02  0.45594000000E+02  0.51100000000E-03 0. -1.
         23    2    1    2    0    0  0.00000000000E+00 -0.35527136788E-14  0.17763568394E-14  0.91188000000E+02  0.91188000000E+02 0.  0.
    9900012    2    3    3    0    0  0.22641167145E+02 -0.27393262198E+02  0.96315616982E+01  0.54367078715E+02  0.39999987546E+02 0.  0.
         12    1    3    3    0    0 -0.22641167145E+02  0.27393262198E+02 -0.96315616982E+01  0.36820921285E+02  0.00000000000E+00 0. -1.
         11    1    4    4    0    0  0.79095685591E+01 -0.15090989539E+02 -0.10768218082E+02  0.20155737669E+02  0.51100000000E-03 0. -1.
        -11    1    4    4    0    0  0.60816898691E+01 -0.16044654515E+02  0.17102864705E+02  0.24226553027E+02  0.51100000000E-03 0.  1.
         12    1    4    4    0    0  0.86499087172E+01  0.37423818560E+01  0.32969150752E+01  0.99847880190E+01  0.00000000000E+00 0. -1.
</event>
<event>
 8    1  0.2516265E-006  0.9118800E+02  0.7816164E-02  0.1184000E+00
        -11   -1    0    0    0    0  0.00000000000E+00  0.00000000000E+00  0.45593999997E+02  0.45594000000E+02  0.51100000000E-03 0. -1.
         11   -1    0    0    0    0 -0.00000000000E+00 -0.00000000000E+00 -0.45593999997E+02  0.45594000000E+02  0.51100000000E-03 0.  1.
         23    2    1    2    0    0  0.35527136788E-14  0.00000000000E+00 -0.35527136788E-14  0.91188000000E+02  0.91188000000E+02 0.  0.
    9900012    2    3    3    0    0 -0.18164115946E+02 -0.24666609407E+02  0.20430449694E+02  0.54367081999E+02  0.39999995034E+02 0.  0.
        -12    1    3    3    0    0  0.18164115946E+02  0.24666609407E+02 -0.20430449694E+02  0.36820918001E+02  0.00000000000E+00 0.  1.
         11    1    4    4    0    0 -0.46006635806E+01 -0.13500674922E+02 -0.59336724012E+00  0.14275377882E+02  0.51100000000E-03 0. -1.
        -11    1    4    4    0    0 -0.14200017156E+02  0.14474742056E+01 -0.14142553879E+01  0.14343492858E+02  0.51100000000E-03 0.  1.
         12    1    4    4    0    0  0.63656479067E+00 -0.12613408690E+02  0.22438072322E+02  0.25748211259E+02  0.00000000000E+00 0. -1.
</event>
<event>
 8    1  0.2516265E-006  0.9118800E+02  0.7816164E-02  0.1184000E+00
        -11   -1    0    0    0    0  0.00000000000E+00  0.00000000000E+00  0.45593999997E+02  0.45594000000E+02  0.51100000000E-03 0. -1.
         11   -1    0    0    0    0 -0.00000000000E+00 -0.00000000000E+00 -0.45593999997E+02  0.45594000000E+02  0.51100000000E-03 0.  1.
         23    2    1    2    0    0  0.00000000000E+00  0.00000000000E+00  0.35527136788E-14  0.91188000000E+02  0.91188000000E+02 0.  0.
    9900012    2    3    3    0    0 -0.22138510412E+02  0.18592667761E+02  0.22803083355E+02  0.54367061008E+02  0.39999947180E+02 0.  0.
        -12    1    3    3    0    0  0.22138510412E+02 -0.18592667761E+02 -0.22803083355E+02  0.36820938992E+02  0.00000000000E+00 0.  1.
         11    1    4    4    0    0 -0.73559812894E+01  0.23421386242E+01  0.17475326668E+02  0.19104531308E+02  0.51100000000E-03 0. -1.
        -11    1    4    4    0    0 -0.22787074797E+02  0.12695642973E+02  0.35501015987E+01  0.26325526584E+02  0.51100000000E-03 0.  1.
        -12    1    4    4    0    0  0.80045456744E+01  0.35548861634E+01  0.17776550885E+01  0.89370031164E+01  0.00000000000E+00 0.  1.
</event>
<event>
 8    1  0.2516265E-006  0.9118800E+02  0.7816164E-02  0.1184000E+00
        -11   -1    0    0    0    0  0.00000000000E+00  0.00000000000E+00  0.45593999997E+02  0.45594000000E+02  0.51100000000E-03 0. -1.
         11   -1    0    0    0    0 -0.00000000000E+00 -0.00000000000E+00 -0.45593999997E+02  0.45594000000E+02  0.51100000000E-03 0.  1.
         23    2    1    2    0    0  0.00000000000E+00  0.17763568394E-14  0.00000000000E+00  0.91188000000E+02  0.91188000000E+02 0.  0.
    9900012    2    3    3    0    0 -0.30162904055E+02  0.15824610231E+02 -0.13984281264E+02  0.54367092998E+02  0.40000020106E+02 0.  0.
         12    1    3    3    0    0  0.30162904055E+02 -0.15824610231E+02  0.13984281264E+02  0.36820907002E+02  0.00000000000E+00 0. -1.
         11    1    4    4    0    0 -0.19827219741E+01 -0.27635967319E+01 -0.14239448126E+02  0.14640031985E+02  0.51100000000E-03 0. -1.
        -11    1    4    4    0    0 -0.14971371154E+02  0.48747980181E-01 -0.59852710237E+01  0.16123516988E+02  0.51100000000E-03 0.  1.
        -12    1    4    4    0    0 -0.13208810927E+02  0.18539458983E+02  0.62404378856E+01  0.23603544024E+02  0.00000000000E+00 0.  1.
</event>
<event>
 8    1  0.2516265E-006  0.9118800E+02  0.7816164E-02  0.1184000E+00
        -11   -1    0    0    0    0  0.00000000000E+00  0.00000000000E+00  0.45593999997E+02  0.45594000000E+02  0.51100000000E-03 0.  1.
         11   -1    0    0    0    0 -0.00000000000E+00 -0.00000000000E+00 -0.45593999997E+02  0.45594000000E+02  0.51100000000E-03 0. -1.
         23    2    1    2    0    0  0.00000000000E+00 -0.35527136788E-14 -0.35527136788E-14  0.91188000000E+02  0.91188000000E+02 0.  0.
    9900012    2    3    3    0    0 -0.95869586953E+01  0.20921346261E+02  0.28743114090E+02  0.54367094064E+02  0.40000022537E+02 0.  0.
         12    1    3    3    0    0  0.95869586953E+01 -0.20921346261E+02 -0.28743114090E+02  0.36820905936E+02  0.00000000000E+00 0. -1.
         11    1    4    4    0    0 -0.19584685476E+02  0.79759632719E+01  0.20205550164E+02  0.29247908524E+02  0.51100000000E-03 0. -1.
        -11    1    4    4    0    0 -0.15195487183E+01 -0.30444153139E+01  0.32752316379E+01  0.47227783617E+01  0.51100000000E-03 0.  1.
        -12    1    4    4    0    0  0.11517275499E+02  0.15989798303E+02  0.52623322875E+01  0.20396407178E+02  0.00000000000E+00 0.  1.
</event>
<event>
 8    1  0.2516265E-006  0.9118800E+02  0.7816164E-02  0.1184000E+00
        -11   -1    0    0    0    0  0.00000000000E+00  0.00000000000E+00  0.45593999997E+02  0.45594000000E+02  0.51100000000E-03 0.  1.
         11   -1    0    0    0    0 -0.00000000000E+00 -0.00000000000E+00 -0.45593999997E+02  0.45594000000E+02  0.51100000000E-03 0. -1.
         23    2    1    2    0    0  0.00000000000E+00 -0.26645352591E-14  0.00000000000E+00  0.91188000000E+02  0.91188000000E+02 0.  0.
    9900012    2    3    3    0    0  0.16275794573E+02 -0.34061891788E+01  0.32852341555E+02  0.54367082584E+02  0.39999996366E+02 0.  0.
         12    1    3    3    0    0 -0.16275794573E+02  0.34061891788E+01 -0.32852341555E+02  0.36820917416E+02  0.00000000000E+00 0. -1.
         11    1    4    4    0    0  0.91642282194E+01  0.17144964961E+02  0.20303652005E+02  0.28109983767E+02  0.51100000000E-03 0. -1.
        -11    1    4    4    0    0  0.65319918574E+01 -0.17199162507E+02  0.13387964648E+02  0.22753366921E+02  0.51100000000E-03 0.  1.
         12    1    4    4    0    0  0.57957449626E+00 -0.33519916333E+01 -0.83927509779E+00  0.35037318956E+01  0.00000000000E+00 0. -1.
</event>
<event>
 8    1  0.2516265E-006  0.9118800E+02  0.7816164E-02  0.1184000E+00
        -11   -1    0    0    0    0  0.00000000000E+00  0.00000000000E+00  0.45593999997E+02  0.45594000000E+02  0.51100000000E-03 0.  1.
         11   -1    0    0    0    0 -0.00000000000E+00 -0.00000000000E+00 -0.45593999997E+02  0.45594000000E+02  0.51100000000E-03 0. -1.
         23    2    1    2    0    0 -0.35527136788E-14  0.00000000000E+00  0.16653345369E-14  0.91188000000E+02  0.91188000000E+02 0.  0.
    9900012    2    3    3    0    0 -0.23339732553E+02 -0.28471740987E+02 -0.62932227622E+00  0.54367092936E+02  0.40000019966E+02 0.  0.
         12    1    3    3    0    0  0.23339732553E+02  0.28471740987E+02  0.62932227622E+00  0.36820907064E+02  0.00000000000E+00 0. -1.
         11    1    4    4    0    0 -0.54149629103E+01 -0.80566300843E+01 -0.14981960691E+02  0.17851897883E+02  0.51100000000E-03 0. -1.
        -11    1    4    4    0    0  0.37694798249E+00 -0.79445360451E+01  0.11788640493E+02  0.14220752009E+02  0.51100000000E-03 0.  1.
         12    1    4    4    0    0 -0.18301717625E+02 -0.12470574858E+02  0.25639979213E+01  0.22294443044E+02  0.00000000000E+00 0. -1.
</event>
<event>
 8    1  0.2516265E-006  0.9118800E+02  0.7816164E-02  0.1184000E+00
        -11   -1    0    0    0    0  0.00000000000E+00  0.00000000000E+00  0.45593999997E+02  0.45594000000E+02  0.51100000000E-03 0. -1.
         11   -1    0    0    0    0 -0.00000000000E+00 -0.00000000000E+00 -0.45593999997E+02  0.45594000000E+02  0.51100000000E-03 0.  1.
         23    2    1    2    0    0  0.00000000000E+00 -0.71054273576E-14  0.00000000000E+00  0.91188000000E+02  0.91188000000E+02 0.  0.
    9900012    2    3    3    0    0 -0.64733057567E+01 -0.33119143874E+02 -0.14730827627E+02  0.54367100216E+02  0.40000036562E+02 0.  0.
         12    1    3    3    0    0  0.64733057567E+01  0.33119143874E+02  0.14730827627E+02  0.36820899784E+02  0.00000000000E+00 0. -1.
         11    1    4    4    0    0 -0.62405895258E+01  0.30725730725E+01 -0.35895920940E+00  0.69652361690E+01  0.51100000000E-03 0. -1.
        -11    1    4    4    0    0 -0.12484125470E+02 -0.96848958321E+01 -0.31052767527E+01  0.16102587991E+02  0.51100000000E-03 0.  1.
        -12    1    4    4    0    0  0.12251409239E+02 -0.26506821114E+02 -0.11266591665E+02  0.31299276056E+02  0.00000000000E+00 0.  1.
</event>
<event>
 8    1  0.2516265E-006  0.9118800E+02  0.7816164E-02  0.1184000E+00
        -11   -1    0    0    0    0  0.00000000000E+00  0.00000000000E+00  0.45593999997E+02  0.45594000000E+02  0.51100000000E-03 0.  1.
         11   -1    0    0    0    0 -0.00000000000E+00 -0.00000000000E+00 -0.45593999997E+02  0.45594000000E+02  0.51100000000E-03 0. -1.
         23    2    1    2    0    0  0.00000000000E+00  0.00000000000E+00  0.17763568394E-14  0.91188000000E+02  0.91188000000E+02 0.  0.
    9900012    2    3    3    0    0  0.22204696417E+02 -0.27732772202E+02  0.96759764357E+01  0.54367085875E+02  0.40000003870E+02 0.  0.
        -12    1    3    3    0    0 -0.22204696417E+02  0.27732772202E+02 -0.96759764357E+01  0.36820914125E+02  0.00000000000E+00 0.  1.
         11    1    4    4    0    0  0.21338055379E+02 -0.21345541115E+02  0.17875337286E+02  0.35078090258E+02  0.51100000000E-03 0. -1.
        -11    1    4    4    0    0 -0.22828517375E+00 -0.55668304550E+01  0.40976532605E+01  0.69161028000E+01  0.51100000000E-03 0.  1.
        -12    1    4    4    0    0  0.10949262122E+01 -0.82040063284E+00 -0.12297014111E+02  0.12372892817E+02  0.00000000000E+00 0.  1.
</event>
<event>
 8    1  0.2516265E-006  0.9118800E+02  0.7816164E-02  0.1184000E+00
        -11   -1    0    0    0    0  0.00000000000E+00  0.00000000000E+00  0.45593999997E+02  0.45594000000E+02  0.51100000000E-03 0.  1.
         11   -1    0    0    0    0 -0.00000000000E+00 -0.00000000000E+00 -0.45593999997E+02  0.45594000000E+02  0.51100000000E-03 0. -1.
         23    2    1    2    0    0  0.00000000000E+00  0.00000000000E+00  0.00000000000E+00  0.91188000000E+02  0.91188000000E+02 0.  0.
    9900012    2    3    3    0    0 -0.25903482503E+02 -0.22770782159E+02  0.12894967296E+02  0.54367094152E+02  0.40000022739E+02 0.  0.
        -12    1    3    3    0    0  0.25903482503E+02  0.22770782159E+02 -0.12894967296E+02  0.36820905848E+02  0.00000000000E+00 0.  1.
         11    1    4    4    0    0 -0.14688947116E+02 -0.21535445600E+02  0.11645717540E+02  0.28551065161E+02  0.51100000000E-03 0. -1.
        -11    1    4    4    0    0 -0.16996543108E+01 -0.52977000117E+01  0.10535200851E+02  0.11914063430E+02  0.51100000000E-03 0.  1.
         12    1    4    4    0    0 -0.95148810759E+01  0.40623634530E+01 -0.92859510948E+01  0.13901965561E+02  0.00000000000E+00 0. -1.
</event>
<event>
 8    1  0.2516265E-006  0.9118800E+02  0.7816164E-02  0.1184000E+00
        -11   -1    0    0    0    0  0.00000000000E+00  0.00000000000E+00  0.45593999997E+02  0.45594000000E+02  0.51100000000E-03 0.  1.
         11   -1    0    0    0    0 -0.00000000000E+00 -0.00000000000E+00 -0.45593999997E+02  0.45594000000E+02  0.51100000000E-03 0. -1.
         23    2    1    2    0    0  0.00000000000E+00  0.00000000000E+00 -0.35527136788E-14  0.91188000000E+02  0.91188000000E+02 0.  0.
    9900012    2    3    3    0    0 -0.24331035425E+02 -0.56454711525E+01 -0.27053815700E+02  0.54367087826E+02  0.40000008318E+02 0.  0.
        -12    1    3    3    0    0  0.24331035425E+02  0.56454711525E+01  0.27053815700E+02  0.36820912174E+02  0.00000000000E+00 0.  1.
         11    1    4    4    0    0  0.32223703750E+01 -0.61171588380E+01 -0.13408238457E+02  0.15085892810E+02  0.51100000000E-03 0. -1.
        -11    1    4    4    0    0 -0.40926001703E+01 -0.52075289935E+01 -0.13617476526E+02  0.15142767303E+02  0.51100000000E-03 0.  1.
        -12    1    4    4    0    0 -0.23460805629E+02  0.56792166790E+01 -0.28100716498E-01  0.24138427714E+02  0.00000000000E+00 0.  1.
</event>
<event>
 8    1  0.2516265E-006  0.9118800E+02  0.7816164E-02  0.1184000E+00
        -11   -1    0    0    0    0  0.00000000000E+00  0.00000000000E+00  0.45593999997E+02  0.45594000000E+02  0.51100000000E-03 0.  1.
         11   -1    0    0    0    0 -0.00000000000E+00 -0.00000000000E+00 -0.45593999997E+02  0.45594000000E+02  0.51100000000E-03 0. -1.
         23    2    1    2    0    0  0.00000000000E+00  0.88817841970E-15  0.00000000000E+00  0.91188000000E+02  0.91188000000E+02 0.  0.
    9900012    2    3    3    0    0  0.34371343003E+02  0.48007811223E+01  0.12302125076E+02  0.54367095603E+02  0.40000026046E+02 0.  0.
         12    1    3    3    0    0 -0.34371343003E+02 -0.48007811223E+01 -0.12302125076E+02  0.36820904397E+02  0.00000000000E+00 0. -1.
         11    1    4    4    0    0  0.17389303796E+02  0.35482110854E+01 -0.62526200125E+01  0.18816826132E+02  0.51100000000E-03 0. -1.
        -11    1    4    4    0    0  0.20499656535E+02  0.72330817893E+01  0.18603255148E+02  0.28611789399E+02  0.51100000000E-03 0.  1.
         12    1    4    4    0    0 -0.35176173276E+01 -0.59805117524E+01 -0.48510059358E-01  0.69384800720E+01  0.00000000000E+00 0. -1.
</event>
<event>
 8    1  0.2516265E-006  0.9118800E+02  0.7816164E-02  0.1184000E+00
        -11   -1    0    0    0    0  0.00000000000E+00  0.00000000000E+00  0.45593999997E+02  0.45594000000E+02  0.51100000000E-03 0. -1.
         11   -1    0    0    0    0 -0.00000000000E+00 -0.00000000000E+00 -0.45593999997E+02  0.45594000000E+02  0.51100000000E-03 0.  1.
         23    2    1    2    0    0  0.17763568394E-14  0.00000000000E+00  0.35527136788E-14  0.91188000000E+02  0.91188000000E+02 0.  0.
    9900012    2    3    3    0    0 -0.11191789899E+02 -0.18258906130E+02 -0.29952224815E+02  0.54367087660E+02  0.40000007938E+02 0.  0.
         12    1    3    3    0    0  0.11191789899E+02  0.18258906130E+02  0.29952224815E+02  0.36820912340E+02  0.00000000000E+00 0. -1.
         11    1    4    4    0    0 -0.44566936855E+01  0.38187688792E+01 -0.42595191324E+00  0.58844328233E+01  0.51100000000E-03 0. -1.
        -11    1    4    4    0    0 -0.17703139818E+02 -0.18817003624E+02 -0.14601585214E+02  0.29676372349E+02  0.51100000000E-03 0.  1.
        -12    1    4    4    0    0  0.10968043605E+02 -0.32606713843E+01 -0.14924687688E+02  0.18806282487E+02  0.00000000000E+00 0.  1.
</event>
<event>
 8    1  0.2516265E-006  0.9118800E+02  0.7816164E-02  0.1184000E+00
        -11   -1    0    0    0    0  0.00000000000E+00  0.00000000000E+00  0.45593999997E+02  0.45594000000E+02  0.51100000000E-03 0.  1.
         11   -1    0    0    0    0 -0.00000000000E+00 -0.00000000000E+00 -0.45593999997E+02  0.45594000000E+02  0.51100000000E-03 0. -1.
         23    2    1    2    0    0  0.00000000000E+00  0.00000000000E+00  0.00000000000E+00  0.91188000000E+02  0.91188000000E+02 0.  0.
    9900012    2    3    3    0    0 -0.17194553458E+02 -0.30928816169E+02  0.10175112866E+02  0.54367119238E+02  0.40000079926E+02 0.  0.
        -12    1    3    3    0    0  0.17194553458E+02  0.30928816169E+02 -0.10175112866E+02  0.36820880762E+02  0.00000000000E+00 0.  1.
         11    1    4    4    0    0 -0.25724440427E+02 -0.24037253427E+02 -0.48351348470E+01  0.35537514219E+02  0.51100000000E-03 0. -1.
        -11    1    4    4    0    0  0.80765226396E+01 -0.56939229076E+01  0.14247636459E+02  0.17339149949E+02  0.51100000000E-03 0.  1.
         12    1    4    4    0    0  0.45336432941E+00 -0.11976398348E+01  0.76261125417E+00  0.14904550695E+01  0.00000000000E+00 0. -1.
</event>
<event>
 8    1  0.2516265E-006  0.9118800E+02  0.7816164E-02  0.1184000E+00
        -11   -1    0    0    0    0  0.00000000000E+00  0.00000000000E+00  0.45593999997E+02  0.45594000000E+02  0.51100000000E-03 0.  1.
         11   -1    0    0    0    0 -0.00000000000E+00 -0.00000000000E+00 -0.45593999997E+02  0.45594000000E+02  0.51100000000E-03 0. -1.
         23    2    1    2    0    0 -0.17763568394E-14  0.00000000000E+00  0.00000000000E+00  0.91188000000E+02  0.91188000000E+02 0.  0.
    9900012    2    3    3    0    0 -0.91090405030E+01 -0.26674265953E+02  0.23691526533E+02  0.54367088652E+02  0.40000010200E+02 0.  0.
         12    1    3    3    0    0  0.91090405030E+01  0.26674265953E+02 -0.23691526533E+02  0.36820911348E+02  0.00000000000E+00 0. -1.
         11    1    4    4    0    0  0.49217692270E-02  0.34192745583E+00  0.12004099894E+02  0.12008969695E+02  0.51100000000E-03 0. -1.
        -11    1    4    4    0    0  0.53188347013E+01 -0.41142915060E+01  0.13650314869E+02  0.15216717566E+02  0.51100000000E-03 0.  1.
        -12    1    4    4    0    0 -0.14432796974E+02 -0.22901901903E+02 -0.19628882312E+01  0.27141401391E+02  0.00000000000E+00 0.  1.
</event>
<event>
 8    1  0.2516265E-006  0.9118800E+02  0.7816164E-02  0.1184000E+00
        -11   -1    0    0    0    0  0.00000000000E+00  0.00000000000E+00  0.45593999997E+02  0.45594000000E+02  0.51100000000E-03 0. -1.
         11   -1    0    0    0    0 -0.00000000000E+00 -0.00000000000E+00 -0.45593999997E+02  0.45594000000E+02  0.51100000000E-03 0.  1.
         23    2    1    2    0    0 -0.17763568394E-14 -0.35527136788E-14  0.00000000000E+00  0.91188000000E+02  0.91188000000E+02 0.  0.
    9900012    2    3    3    0    0  0.13019420997E+02 -0.31593414016E+02  0.13716062966E+02  0.54367088610E+02  0.40000010105E+02 0.  0.
        -12    1    3    3    0    0 -0.13019420997E+02  0.31593414016E+02 -0.13716062966E+02  0.36820911390E+02  0.00000000000E+00 0.  1.
         11    1    4    4    0    0  0.15486741834E+02 -0.35759293844E+02  0.12086263718E+02  0.40800049507E+02  0.51100000000E-03 0. -1.
        -11    1    4    4    0    0 -0.60709842957E+01  0.73505708828E-01  0.43542759703E+01  0.74714103685E+01  0.51100000000E-03 0.  1.
        -12    1    4    4    0    0  0.36036634593E+01  0.40923741193E+01 -0.27244767229E+01  0.60956287349E+01  0.00000000000E+00 0.  1.
</event>
<event>
 8    1  0.2516265E-006  0.9118800E+02  0.7816164E-02  0.1184000E+00
        -11   -1    0    0    0    0  0.00000000000E+00  0.00000000000E+00  0.45593999997E+02  0.45594000000E+02  0.51100000000E-03 0.  1.
         11   -1    0    0    0    0 -0.00000000000E+00 -0.00000000000E+00 -0.45593999997E+02  0.45594000000E+02  0.51100000000E-03 0. -1.
         23    2    1    2    0    0  0.13322676296E-14  0.35527136788E-14  0.00000000000E+00  0.91188000000E+02  0.91188000000E+02 0.  0.
    9900012    2    3    3    0    0  0.29194055112E+01  0.31140925170E+02  0.19429348015E+02  0.54367085925E+02  0.40000003984E+02 0.  0.
         12    1    3    3    0    0 -0.29194055112E+01 -0.31140925170E+02 -0.19429348015E+02  0.36820914075E+02  0.00000000000E+00 0. -1.
         11    1    4    4    0    0  0.14485838054E+02  0.26982262221E+02  0.16089877309E+02  0.34594307780E+02  0.51100000000E-03 0. -1.
        -11    1    4    4    0    0 -0.65834669027E+00  0.43088234675E+01  0.70168855600E+01  0.82605122881E+01  0.51100000000E-03 0.  1.
         12    1    4    4    0    0 -0.10908085853E+02 -0.15016051839E+00 -0.36774148542E+01  0.11512265857E+02  0.00000000000E+00 0. -1.
</event>
<event>
 8    1  0.2516265E-006  0.9118800E+02  0.7816164E-02  0.1184000E+00
        -11   -1    0    0    0    0  0.00000000000E+00  0.00000000000E+00  0.45593999997E+02  0.45594000000E+02  0.51100000000E-03 0.  1.
         11   -1    0    0    0    0 -0.00000000000E+00 -0.00000000000E+00 -0.45593999997E+02  0.45594000000E+02  0.51100000000E-03 0. -1.
         23    2    1    2    0    0  0.17763568394E-14  0.00000000000E+00 -0.22204460493E-14  0.91188000000E+02  0.91188000000E+02 0.  0.
    9900012    2    3    3    0    0  0.12805183225E+02  0.34487552710E+02  0.15542566901E+01  0.54367085790E+02  0.40000003676E+02 0.  0.
         12    1    3    3    0    0 -0.12805183225E+02 -0.34487552710E+02 -0.15542566901E+01  0.36820914210E+02  0.00000000000E+00 0. -1.
         11    1    4    4    0    0  0.84471708967E+00  0.55394056388E+01 -0.11505708510E+02  0.12797651752E+02  0.51100000000E-03 0. -1.
        -11    1    4    4    0    0  0.18631026127E+01 -0.18836483242E+01 -0.40893864957E+01  0.48726137265E+01  0.51100000000E-03 0.  1.
        -12    1    4    4    0    0  0.10097363523E+02  0.30831795396E+02  0.17149351696E+02  0.36696820312E+02  0.00000000000E+00 0.  1.
</event>
<event>
 8    1  0.2516265E-006  0.9118800E+02  0.7816164E-02  0.1184000E+00
        -11   -1    0    0    0    0  0.00000000000E+00  0.00000000000E+00  0.45593999997E+02  0.45594000000E+02  0.51100000000E-03 0.  1.
         11   -1    0    0    0    0 -0.00000000000E+00 -0.00000000000E+00 -0.45593999997E+02  0.45594000000E+02  0.51100000000E-03 0. -1.
         23    2    1    2    0    0  0.00000000000E+00  0.35527136788E-14 -0.53290705182E-14  0.91188000000E+02  0.91188000000E+02 0.  0.
    9900012    2    3    3    0    0 -0.14476311074E+02 -0.31880786208E+02  0.11394366553E+02  0.54367086097E+02  0.40000004375E+02 0.  0.
         12    1    3    3    0    0  0.14476311074E+02  0.31880786208E+02 -0.11394366553E+02  0.36820913903E+02  0.00000000000E+00 0. -1.
         11    1    4    4    0    0 -0.95322273804E+01  0.24971911263E+01  0.10675044269E+02  0.14527762827E+02  0.51100000000E-03 0.  1.
        -11    1    4    4    0    0  0.25304166829E+00 -0.23249651843E+02 -0.82061231233E+01  0.24656658287E+02  0.51100000000E-03 0. -1.
        -12    1    4    4    0    0 -0.51971253620E+01 -0.11128325490E+02  0.89254454067E+01  0.15182664982E+02  0.00000000000E+00 0.  1.
</event>
<event>
 8    1  0.2516265E-006  0.9118800E+02  0.7816164E-02  0.1184000E+00
        -11   -1    0    0    0    0  0.00000000000E+00  0.00000000000E+00  0.45593999997E+02  0.45594000000E+02  0.51100000000E-03 0. -1.
         11   -1    0    0    0    0 -0.00000000000E+00 -0.00000000000E+00 -0.45593999997E+02  0.45594000000E+02  0.51100000000E-03 0.  1.
         23    2    1    2    0    0  0.00000000000E+00  0.00000000000E+00  0.00000000000E+00  0.91188000000E+02  0.91188000000E+02 0.  0.
    9900012    2    3    3    0    0  0.91706067230E+01  0.11136978293E+02 -0.33876946207E+02  0.54367084782E+02  0.40000001378E+02 0.  0.
         12    1    3    3    0    0 -0.91706067230E+01 -0.11136978293E+02  0.33876946207E+02  0.36820915218E+02  0.00000000000E+00 0. -1.
         11    1    4    4    0    0  0.12979090344E+02  0.13462581383E+01 -0.16354485885E+02  0.20922198879E+02  0.51100000000E-03 0. -1.
        -11    1    4    4    0    0 -0.16056821316E+01 -0.76630290990E+01 -0.13171184710E+02  0.15322543425E+02  0.51100000000E-03 0.  1.
         12    1    4    4    0    0 -0.22028014894E+01  0.17453749254E+02 -0.43512756119E+01  0.18122342478E+02  0.00000000000E+00 0. -1.
</event>
<event>
 8    1  0.2516265E-006  0.9118800E+02  0.7816164E-02  0.1184000E+00
        -11   -1    0    0    0    0  0.00000000000E+00  0.00000000000E+00  0.45593999997E+02  0.45594000000E+02  0.51100000000E-03 0. -1.
         11   -1    0    0    0    0 -0.00000000000E+00 -0.00000000000E+00 -0.45593999997E+02  0.45594000000E+02  0.51100000000E-03 0.  1.
         23    2    1    2    0    0 -0.35527136788E-14  0.35527136788E-14  0.00000000000E+00  0.91188000000E+02  0.91188000000E+02 0.  0.
    9900012    2    3    3    0    0  0.16360121160E+02 -0.94961141574E+01 -0.31590347761E+02  0.54367084474E+02  0.40000000676E+02 0.  0.
         12    1    3    3    0    0 -0.16360121160E+02  0.94961141574E+01  0.31590347761E+02  0.36820915526E+02  0.00000000000E+00 0. -1.
         11    1    4    4    0    0 -0.47645658114E+01 -0.23012972444E+01 -0.19302592013E+01  0.56323136652E+01  0.51100000000E-03 0. -1.
        -11    1    4    4    0    0  0.37433303086E+01  0.30103091283E+01 -0.28112175779E+02  0.28519623247E+02  0.51100000000E-03 0.  1.
        -12    1    4    4    0    0  0.17381356663E+02 -0.10205126041E+02 -0.15479127803E+01  0.20215147562E+02  0.00000000000E+00 0.  1.
</event>
<event>
 8    1  0.2516265E-006  0.9118800E+02  0.7816164E-02  0.1184000E+00
        -11   -1    0    0    0    0  0.00000000000E+00  0.00000000000E+00  0.45593999997E+02  0.45594000000E+02  0.51100000000E-03 0. -1.
         11   -1    0    0    0    0 -0.00000000000E+00 -0.00000000000E+00 -0.45593999997E+02  0.45594000000E+02  0.51100000000E-03 0.  1.
         23    2    1    2    0    0 -0.35527136788E-14  0.00000000000E+00  0.00000000000E+00  0.91188000000E+02  0.91188000000E+02 0.  0.
    9900012    2    3    3    0    0  0.23225200708E+02  0.13851660519E+02 -0.24990022306E+02  0.54367086623E+02  0.40000005576E+02 0.  0.
         12    1    3    3    0    0 -0.23225200708E+02 -0.13851660519E+02  0.24990022306E+02  0.36820913377E+02  0.00000000000E+00 0. -1.
         11    1    4    4    0    0  0.65491183823E+01  0.12238344464E+02 -0.20782611385E+02  0.24991697883E+02  0.51100000000E-03 0.  1.
        -11    1    4    4    0    0 -0.37558243440E+01 -0.27285448054E+01 -0.68980109828E+01  0.83146695086E+01  0.51100000000E-03 0. -1.
         12    1    4    4    0    0  0.20431906670E+02  0.43418608598E+01  0.26906000622E+01  0.21060719232E+02  0.00000000000E+00 0. -1.
</event>
<event>
 8    1  0.2516265E-006  0.9118800E+02  0.7816164E-02  0.1184000E+00
        -11   -1    0    0    0    0  0.00000000000E+00  0.00000000000E+00  0.45593999997E+02  0.45594000000E+02  0.51100000000E-03 0.  1.
         11   -1    0    0    0    0 -0.00000000000E+00 -0.00000000000E+00 -0.45593999997E+02  0.45594000000E+02  0.51100000000E-03 0. -1.
         23    2    1    2    0    0 -0.17763568394E-14 -0.18873791419E-14  0.71054273576E-14  0.91188000000E+02  0.91188000000E+02 0.  0.
    9900012    2    3    3    0    0 -0.75025286665E+01 -0.48475637792E+00  0.36045197363E+02  0.54367093194E+02  0.40000020553E+02 0.  0.
         12    1    3    3    0    0  0.75025286665E+01  0.48475637792E+00 -0.36045197363E+02  0.36820906806E+02  0.00000000000E+00 0. -1.
         11    1    4    4    0    0  0.59063608173E+01  0.94257862166E+01  0.17206662444E+02  0.20489016000E+02  0.51100000000E-03 0. -1.
        -11    1    4    4    0    0 -0.10402631013E+02 -0.10283900074E+02  0.23875554455E+02  0.28000275597E+02  0.51100000000E-03 0.  1.
         12    1    4    4    0    0 -0.30062584704E+01  0.37335747954E+00 -0.50370195365E+01  0.58778015966E+01  0.00000000000E+00 0. -1.
</event>
<event>
 8    1  0.2516265E-006  0.9118800E+02  0.7816164E-02  0.1184000E+00
        -11   -1    0    0    0    0  0.00000000000E+00  0.00000000000E+00  0.45593999997E+02  0.45594000000E+02  0.51100000000E-03 0. -1.
         11   -1    0    0    0    0 -0.00000000000E+00 -0.00000000000E+00 -0.45593999997E+02  0.45594000000E+02  0.51100000000E-03 0.  1.
         23    2    1    2    0    0  0.00000000000E+00  0.00000000000E+00  0.00000000000E+00  0.91188000000E+02  0.91188000000E+02 0.  0.
    9900012    2    3    3    0    0 -0.30677317216E+02  0.13307096128E+02  0.15414377277E+02  0.54367087114E+02  0.40000006693E+02 0.  0.
        -12    1    3    3    0    0  0.30677317216E+02 -0.13307096128E+02 -0.15414377277E+02  0.36820912886E+02  0.00000000000E+00 0.  1.
         11    1    4    4    0    0 -0.83914815956E+01  0.11486545642E+02  0.21361800343E+02  0.25664843820E+02  0.51100000000E-03 0. -1.
        -11    1    4    4    0    0 -0.12986126180E+02  0.66824822616E+01 -0.97281750504E+01  0.17548003659E+02  0.51100000000E-03 0.  1.
         12    1    4    4    0    0 -0.92997094406E+01 -0.48619317753E+01  0.37807519846E+01  0.11154239635E+02  0.00000000000E+00 0. -1.
</event>
<event>
 8    1  0.2516265E-006  0.9118800E+02  0.7816164E-02  0.1184000E+00
        -11   -1    0    0    0    0  0.00000000000E+00  0.00000000000E+00  0.45593999997E+02  0.45594000000E+02  0.51100000000E-03 0. -1.
         11   -1    0    0    0    0 -0.00000000000E+00 -0.00000000000E+00 -0.45593999997E+02  0.45594000000E+02  0.51100000000E-03 0.  1.
         23    2    1    2    0    0  0.00000000000E+00  0.00000000000E+00 -0.35527136788E-14  0.91188000000E+02  0.91188000000E+02 0.  0.
    9900012    2    3    3    0    0  0.10365912636E+02 -0.21284200516E+02  0.28201241588E+02  0.54367090675E+02  0.40000014813E+02 0.  0.
        -12    1    3    3    0    0 -0.10365912636E+02  0.21284200516E+02 -0.28201241588E+02  0.36820909325E+02  0.00000000000E+00 0.  1.
         11    1    4    4    0    0  0.10259450814E+01 -0.43103501246E+01  0.26891014222E+02  0.27253592931E+02  0.51100000000E-03 0. -1.
        -11    1    4    4    0    0  0.42783971786E+01 -0.19905105264E+02  0.38777467075E+01  0.20725704277E+02  0.51100000000E-03 0.  1.
        -12    1    4    4    0    0  0.50615703763E+01  0.29312548728E+01 -0.25675193420E+01  0.63877934668E+01  0.00000000000E+00 0.  1.
</event>
<event>
 8    1  0.2516265E-006  0.9118800E+02  0.7816164E-02  0.1184000E+00
        -11   -1    0    0    0    0  0.00000000000E+00  0.00000000000E+00  0.45593999997E+02  0.45594000000E+02  0.51100000000E-03 0.  1.
         11   -1    0    0    0    0 -0.00000000000E+00 -0.00000000000E+00 -0.45593999997E+02  0.45594000000E+02  0.51100000000E-03 0. -1.
         23    2    1    2    0    0 -0.17763568394E-14 -0.17763568394E-14  0.00000000000E+00  0.91188000000E+02  0.91188000000E+02 0.  0.
    9900012    2    3    3    0    0 -0.14446622159E+02 -0.11407756289E+02 -0.31889483312E+02  0.54367069250E+02  0.39999965969E+02 0.  0.
        -12    1    3    3    0    0  0.14446622159E+02  0.11407756289E+02  0.31889483312E+02  0.36820930750E+02  0.00000000000E+00 0.  1.
         11    1    4    4    0    0 -0.70099275131E+01  0.11687426784E+01 -0.21855000721E+02  0.22981429458E+02  0.51100000000E-03 0. -1.
        -11    1    4    4    0    0  0.92768540823E+01 -0.56334087895E+01 -0.73047660679E+01  0.13082619150E+02  0.51100000000E-03 0.  1.
        -12    1    4    4    0    0 -0.16713548728E+02 -0.69430901783E+01 -0.27297165240E+01  0.18303020642E+02  0.00000000000E+00 0.  1.
</event>
<event>
 8    1  0.2516265E-006  0.9118800E+02  0.7816164E-02  0.1184000E+00
        -11   -1    0    0    0    0  0.00000000000E+00  0.00000000000E+00  0.45593999997E+02  0.45594000000E+02  0.51100000000E-03 0.  1.
         11   -1    0    0    0    0 -0.00000000000E+00 -0.00000000000E+00 -0.45593999997E+02  0.45594000000E+02  0.51100000000E-03 0. -1.
         23    2    1    2    0    0  0.00000000000E+00  0.00000000000E+00  0.00000000000E+00  0.91188000000E+02  0.91188000000E+02 0.  0.
    9900012    2    3    3    0    0  0.27113639048E+02  0.61548862429E+01  0.24140041654E+02  0.54367168150E+02  0.40000191430E+02 0.  0.
         12    1    3    3    0    0 -0.27113639048E+02 -0.61548862429E+01 -0.24140041654E+02  0.36820831850E+02  0.00000000000E+00 0. -1.
         11    1    4    4    0    0  0.19314700489E+01 -0.44107935140E+01  0.21654806719E+01  0.52796763892E+01  0.51100000000E-03 0. -1.
        -11    1    4    4    0    0  0.12199846150E+02  0.87406713063E+01  0.30120868210E+02  0.33652671260E+02  0.51100000000E-03 0.  1.
        -12    1    4    4    0    0  0.12982322849E+02  0.18250084507E+01 -0.81463072280E+01  0.15434820500E+02  0.00000000000E+00 0.  1.
</event>
<event>
 8    1  0.2516265E-006  0.9118800E+02  0.7816164E-02  0.1184000E+00
        -11   -1    0    0    0    0  0.00000000000E+00  0.00000000000E+00  0.45593999997E+02  0.45594000000E+02  0.51100000000E-03 0.  1.
         11   -1    0    0    0    0 -0.00000000000E+00 -0.00000000000E+00 -0.45593999997E+02  0.45594000000E+02  0.51100000000E-03 0. -1.
         23    2    1    2    0    0  0.00000000000E+00  0.00000000000E+00  0.17763568394E-14  0.91188000000E+02  0.91188000000E+02 0.  0.
    9900012    2    3    3    0    0 -0.33448023309E+02  0.83695163908E+01  0.12921352863E+02  0.54367076224E+02  0.39999981868E+02 0.  0.
         12    1    3    3    0    0  0.33448023309E+02 -0.83695163908E+01 -0.12921352863E+02  0.36820923776E+02  0.00000000000E+00 0. -1.
         11    1    4    4    0    0  0.19130141628E+00  0.99011234205E+01 -0.31125508296E+01  0.10380597967E+02  0.51100000000E-03 0. -1.
        -11    1    4    4    0    0  0.17638319143E+01  0.20937365469E+00  0.72554304001E+01  0.74696861313E+01  0.51100000000E-03 0.  1.
         12    1    4    4    0    0 -0.35403156640E+02 -0.17409806843E+01  0.87784732927E+01  0.36516792126E+02  0.00000000000E+00 0. -1.
</event>
<event>
 8    1  0.2516265E-006  0.9118800E+02  0.7816164E-02  0.1184000E+00
        -11   -1    0    0    0    0  0.00000000000E+00  0.00000000000E+00  0.45593999997E+02  0.45594000000E+02  0.51100000000E-03 0.  1.
         11   -1    0    0    0    0 -0.00000000000E+00 -0.00000000000E+00 -0.45593999997E+02  0.45594000000E+02  0.51100000000E-03 0. -1.
         23    2    1    2    0    0  0.00000000000E+00  0.00000000000E+00  0.00000000000E+00  0.91188000000E+02  0.91188000000E+02 0.  0.
    9900012    2    3    3    0    0 -0.35750995501E+02 -0.75627056807E+01  0.45222738887E+01  0.54367093471E+02  0.40000021186E+02 0.  0.
         12    1    3    3    0    0  0.35750995501E+02  0.75627056807E+01 -0.45222738887E+01  0.36820906529E+02  0.00000000000E+00 0. -1.
         11    1    4    4    0    0  0.36984488201E+01  0.10588659631E+01  0.33405245304E+00  0.38615168141E+01  0.51100000000E-03 0. -1.
        -11    1    4    4    0    0 -0.67649855908E+01  0.85656929765E+01  0.77791573148E+01  0.13403410573E+02  0.51100000000E-03 0.  1.
        -12    1    4    4    0    0 -0.32684458730E+02 -0.17187264620E+02 -0.35909358792E+01  0.37102166083E+02  0.00000000000E+00 0.  1.
</event>
<event>
 8    1  0.2516265E-006  0.9118800E+02  0.7816164E-02  0.1184000E+00
        -11   -1    0    0    0    0  0.00000000000E+00  0.00000000000E+00  0.45593999997E+02  0.45594000000E+02  0.51100000000E-03 0.  1.
         11   -1    0    0    0    0 -0.00000000000E+00 -0.00000000000E+00 -0.45593999997E+02  0.45594000000E+02  0.51100000000E-03 0. -1.
         23    2    1    2    0    0 -0.88817841970E-15  0.00000000000E+00 -0.44408920985E-15  0.91188000000E+02  0.91188000000E+02 0.  0.
    9900012    2    3    3    0    0 -0.21113127411E+01 -0.36611229303E+02 -0.33075929198E+01  0.54367083071E+02  0.39999997477E+02 0.  0.
        -12    1    3    3    0    0  0.21113127411E+01  0.36611229303E+02  0.33075929198E+01  0.36820916929E+02  0.00000000000E+00 0.  1.
         11    1    4    4    0    0 -0.87369469808E+01 -0.12389970664E+02 -0.59285609094E+01  0.16278619423E+02  0.51100000000E-03 0. -1.
        -11    1    4    4    0    0  0.10072408514E+02 -0.19180787031E+02  0.13561550747E+02  0.25559179630E+02  0.51100000000E-03 0.  1.
         12    1    4    4    0    0 -0.34467742743E+01 -0.50404716076E+01 -0.10940582758E+02  0.12529284018E+02  0.00000000000E+00 0. -1.
</event>
<event>
 8    1  0.2516265E-006  0.9118800E+02  0.7816164E-02  0.1184000E+00
        -11   -1    0    0    0    0  0.00000000000E+00  0.00000000000E+00  0.45593999997E+02  0.45594000000E+02  0.51100000000E-03 0.  1.
         11   -1    0    0    0    0 -0.00000000000E+00 -0.00000000000E+00 -0.45593999997E+02  0.45594000000E+02  0.51100000000E-03 0. -1.
         23    2    1    2    0    0 -0.71054273576E-14  0.15543122345E-14  0.17763568394E-14  0.91188000000E+02  0.91188000000E+02 0.  0.
    9900012    2    3    3    0    0  0.35737186443E+02  0.15380548037E+01 -0.87331955843E+01  0.54367070998E+02  0.39999969954E+02 0.  0.
        -12    1    3    3    0    0 -0.35737186443E+02 -0.15380548037E+01  0.87331955843E+01  0.36820929002E+02  0.00000000000E+00 0.  1.
         11    1    4    4    0    0  0.27606448730E+02 -0.65974696805E+01 -0.10248219555E+02  0.30177286525E+02  0.51100000000E-03 0. -1.
        -11    1    4    4    0    0  0.11756178393E+02  0.97410252462E+01  0.75003124261E+01  0.17010290709E+02  0.51100000000E-03 0.  1.
        -12    1    4    4    0    0 -0.36254406801E+01 -0.16055007621E+01 -0.59852884550E+01  0.71794937643E+01  0.00000000000E+00 0.  1.
</event>
<event>
 8    1  0.2516265E-006  0.9118800E+02  0.7816164E-02  0.1184000E+00
        -11   -1    0    0    0    0  0.00000000000E+00  0.00000000000E+00  0.45593999997E+02  0.45594000000E+02  0.51100000000E-03 0. -1.
         11   -1    0    0    0    0 -0.00000000000E+00 -0.00000000000E+00 -0.45593999997E+02  0.45594000000E+02  0.51100000000E-03 0.  1.
         23    2    1    2    0    0  0.17763568394E-14  0.00000000000E+00  0.00000000000E+00  0.91188000000E+02  0.91188000000E+02 0.  0.
    9900012    2    3    3    0    0 -0.15570659596E+02 -0.61809940394E+01  0.32789160465E+02  0.54367093282E+02  0.40000020754E+02 0.  0.
        -12    1    3    3    0    0  0.15570659596E+02  0.61809940394E+01 -0.32789160465E+02  0.36820906718E+02  0.00000000000E+00 0.  1.
         11    1    4    4    0    0  0.62619061829E+01  0.24105090600E+01  0.27542579200E+02  0.28348116202E+02  0.51100000000E-03 0. -1.
        -11    1    4    4    0    0 -0.94065237272E+01 -0.80846464969E+01 -0.28783289885E+00  0.12406733883E+02  0.51100000000E-03 0.  1.
         12    1    4    4    0    0 -0.12426042052E+02 -0.50685660250E+00  0.55344141638E+01  0.13612243196E+02  0.00000000000E+00 0. -1.
</event>
<event>
 8    1  0.2516265E-006  0.9118800E+02  0.7816164E-02  0.1184000E+00
        -11   -1    0    0    0    0  0.00000000000E+00  0.00000000000E+00  0.45593999997E+02  0.45594000000E+02  0.51100000000E-03 0.  1.
         11   -1    0    0    0    0 -0.00000000000E+00 -0.00000000000E+00 -0.45593999997E+02  0.45594000000E+02  0.51100000000E-03 0. -1.
         23    2    1    2    0    0 -0.35527136788E-14  0.00000000000E+00  0.00000000000E+00  0.91188000000E+02  0.91188000000E+02 0.  0.
    9900012    2    3    3    0    0  0.19511575656E+02 -0.30814007977E+02 -0.50572792947E+01  0.54367071901E+02  0.39999972013E+02 0.  0.
         12    1    3    3    0    0 -0.19511575656E+02  0.30814007977E+02  0.50572792947E+01  0.36820928099E+02  0.00000000000E+00 0. -1.
         11    1    4    4    0    0  0.89457764460E+01 -0.22676094215E+02 -0.62938754237E+01  0.25176279176E+02  0.51100000000E-03 0. -1.
        -11    1    4    4    0    0  0.17943382245E+02 -0.21473164449E+01 -0.37531529546E+01  0.18457033664E+02  0.51100000000E-03 0.  1.
         12    1    4    4    0    0 -0.73775830347E+01 -0.59905973177E+01  0.49897490836E+01  0.10733759061E+02  0.00000000000E+00 0. -1.
</event>
<event>
 8    1  0.2516265E-006  0.9118800E+02  0.7816164E-02  0.1184000E+00
        -11   -1    0    0    0    0  0.00000000000E+00  0.00000000000E+00  0.45593999997E+02  0.45594000000E+02  0.51100000000E-03 0.  1.
         11   -1    0    0    0    0 -0.00000000000E+00 -0.00000000000E+00 -0.45593999997E+02  0.45594000000E+02  0.51100000000E-03 0. -1.
         23    2    1    2    0    0  0.00000000000E+00 -0.44408920985E-15  0.00000000000E+00  0.91188000000E+02  0.91188000000E+02 0.  0.
    9900012    2    3    3    0    0 -0.17695150135E+02  0.31393779833E+00  0.32288710937E+02  0.54367112596E+02  0.40000064785E+02 0.  0.
         12    1    3    3    0    0  0.17695150135E+02 -0.31393779833E+00 -0.32288710937E+02  0.36820887404E+02  0.00000000000E+00 0. -1.
         11    1    4    4    0    0 -0.11262930962E+02 -0.16429500266E+02  0.58299046196E+01  0.20754996531E+02  0.51100000000E-03 0.  1.
        -11    1    4    4    0    0  0.27628293570E+01  0.57398921287E+01  0.74763271376E+01  0.98221716251E+01  0.51100000000E-03 0. -1.
        -12    1    4    4    0    0 -0.91950485298E+01  0.11003545936E+02  0.18982479180E+02  0.23789944440E+02  0.00000000000E+00 0.  1.
</event>
<event>
 8    1  0.2516265E-006  0.9118800E+02  0.7816164E-02  0.1184000E+00
        -11   -1    0    0    0    0  0.00000000000E+00  0.00000000000E+00  0.45593999997E+02  0.45594000000E+02  0.51100000000E-03 0. -1.
         11   -1    0    0    0    0 -0.00000000000E+00 -0.00000000000E+00 -0.45593999997E+02  0.45594000000E+02  0.51100000000E-03 0.  1.
         23    2    1    2    0    0  0.00000000000E+00  0.00000000000E+00  0.00000000000E+00  0.91188000000E+02  0.91188000000E+02 0.  0.
    9900012    2    3    3    0    0 -0.27653085768E+02 -0.11127277587E+02 -0.21616438698E+02  0.54367083648E+02  0.39999998793E+02 0.  0.
        -12    1    3    3    0    0  0.27653085768E+02  0.11127277587E+02  0.21616438698E+02  0.36820916352E+02  0.00000000000E+00 0.  1.
         11    1    4    4    0    0 -0.21997911933E+02  0.56872856120E+01 -0.18260609256E+02  0.29149668912E+02  0.51100000000E-03 0. -1.
        -11    1    4    4    0    0 -0.88050135964E+01 -0.18288601928E+01 -0.41058541885E+01  0.98859007134E+01  0.51100000000E-03 0.  1.
         12    1    4    4    0    0  0.31498397619E+01 -0.14985703006E+02  0.75002474568E+00  0.15331514023E+02  0.00000000000E+00 0. -1.
</event>
<event>
 8    1  0.2516265E-006  0.9118800E+02  0.7816164E-02  0.1184000E+00
        -11   -1    0    0    0    0  0.00000000000E+00  0.00000000000E+00  0.45593999997E+02  0.45594000000E+02  0.51100000000E-03 0.  1.
         11   -1    0    0    0    0 -0.00000000000E+00 -0.00000000000E+00 -0.45593999997E+02  0.45594000000E+02  0.51100000000E-03 0. -1.
         23    2    1    2    0    0  0.00000000000E+00 -0.35527136788E-14  0.00000000000E+00  0.91188000000E+02  0.91188000000E+02 0.  0.
    9900012    2    3    3    0    0 -0.27473770915E+02 -0.95319951560E+01  0.22585671391E+02  0.54367087842E+02  0.40000008354E+02 0.  0.
        -12    1    3    3    0    0  0.27473770915E+02  0.95319951560E+01 -0.22585671391E+02  0.36820912158E+02  0.00000000000E+00 0.  1.
         11    1    4    4    0    0 -0.94436631426E+01 -0.17502270748E+02  0.22069557994E+02  0.29708208381E+02  0.51100000000E-03 0. -1.
        -11    1    4    4    0    0 -0.61609369485E+01 -0.25772878385E+01 -0.44462069267E+01  0.80229865375E+01  0.51100000000E-03 0.  1.
        -12    1    4    4    0    0 -0.11869170824E+02  0.10547563431E+02  0.49623203234E+01  0.16635892924E+02  0.00000000000E+00 0.  1.
</event>
<event>
 8    1  0.2516265E-006  0.9118800E+02  0.7816164E-02  0.1184000E+00
        -11   -1    0    0    0    0  0.00000000000E+00  0.00000000000E+00  0.45593999997E+02  0.45594000000E+02  0.51100000000E-03 0.  1.
         11   -1    0    0    0    0 -0.00000000000E+00 -0.00000000000E+00 -0.45593999997E+02  0.45594000000E+02  0.51100000000E-03 0. -1.
         23    2    1    2    0    0  0.00000000000E+00 -0.71054273576E-14  0.17763568394E-14  0.91188000000E+02  0.91188000000E+02 0.  0.
    9900012    2    3    3    0    0  0.17015622005E+02  0.29282319993E+02  0.14449729339E+02  0.54367077492E+02  0.39999984758E+02 0.  0.
         12    1    3    3    0    0 -0.17015622005E+02 -0.29282319993E+02 -0.14449729339E+02  0.36820922508E+02  0.00000000000E+00 0. -1.
         11    1    4    4    0    0  0.80933131015E+00  0.19593258513E+01  0.72976002652E+01  0.75992726529E+01  0.51100000000E-03 0. -1.
        -11    1    4    4    0    0  0.54802433168E+01  0.13292148389E+02 -0.13411053574E+02  0.19661399590E+02  0.51100000000E-03 0.  1.
        -12    1    4    4    0    0  0.10726047378E+02  0.14030845753E+02  0.20563182648E+02  0.27106405249E+02  0.00000000000E+00 0.  1.
</event>
<event>
 8    1  0.2516265E-006  0.9118800E+02  0.7816164E-02  0.1184000E+00
        -11   -1    0    0    0    0  0.00000000000E+00  0.00000000000E+00  0.45593999997E+02  0.45594000000E+02  0.51100000000E-03 0.  1.
         11   -1    0    0    0    0 -0.00000000000E+00 -0.00000000000E+00 -0.45593999997E+02  0.45594000000E+02  0.51100000000E-03 0. -1.
         23    2    1    2    0    0  0.00000000000E+00  0.00000000000E+00  0.00000000000E+00  0.91188000000E+02  0.91188000000E+02 0.  0.
    9900012    2    3    3    0    0  0.29135170037E+02  0.12220071022E+02 -0.18910099570E+02  0.54367080204E+02  0.39999990941E+02 0.  0.
        -12    1    3    3    0    0 -0.29135170037E+02 -0.12220071022E+02  0.18910099570E+02  0.36820919796E+02  0.00000000000E+00 0.  1.
         11    1    4    4    0    0  0.12563611227E+02 -0.72498781017E+01 -0.37549587708E+01  0.14983483413E+02  0.51100000000E-03 0. -1.
        -11    1    4    4    0    0  0.16359516744E+02  0.21115484874E+02 -0.27326389822E+01  0.26850787802E+02  0.51100000000E-03 0.  1.
        -12    1    4    4    0    0  0.21204206641E+00 -0.16455357500E+01 -0.12422501817E+02  0.12532808989E+02  0.00000000000E+00 0.  1.
</event>
<event>
 8    1  0.2923840E-006  0.9118800E+02  0.7816164E-02  0.1184000E+00
        -11   -1    0    0    0    0  0.00000000000E+00  0.00000000000E+00  0.45593999997E+02  0.45594000000E+02  0.51100000000E-03 0.  1.
         11   -1    0    0    0    0 -0.00000000000E+00 -0.00000000000E+00 -0.45593999997E+02  0.45594000000E+02  0.51100000000E-03 0. -1.
         23    2    1    2    0    0  0.00000000000E+00  0.00000000000E+00 -0.35527136788E-14  0.91188000000E+02  0.91188000000E+02 0.  0.
    9900012    2    3    3    0    0  0.12531722034E+02  0.18388524343E+02  0.29335958400E+02  0.54367077417E+02  0.39999984587E+02 0.  0.
         12    1    3    3    0    0 -0.12531722034E+02 -0.18388524343E+02 -0.29335958400E+02  0.36820922583E+02  0.00000000000E+00 0. -1.
         11    1    4    4    0    0  0.44146834485E+01  0.79115732012E+01 -0.49537365209E+01  0.10325789377E+02  0.51100000000E-03 0. -1.
        -11    1    4    4    0    0  0.57080396961E+01  0.11996052583E+02  0.43682106014E+01  0.13984572173E+02  0.51100000000E-03 0.  1.
        -12    1    4    4    0    0  0.24089988895E+01 -0.15191014417E+01  0.29921484319E+02  0.30056715867E+02  0.00000000000E+00 0.  1.
</event>
<event>
 8    1  0.2516265E-006  0.9118800E+02  0.7816164E-02  0.1184000E+00
        -11   -1    0    0    0    0  0.00000000000E+00  0.00000000000E+00  0.45593999997E+02  0.45594000000E+02  0.51100000000E-03 0. -1.
         11   -1    0    0    0    0 -0.00000000000E+00 -0.00000000000E+00 -0.45593999997E+02  0.45594000000E+02  0.51100000000E-03 0.  1.
         23    2    1    2    0    0  0.44408920985E-15  0.00000000000E+00  0.00000000000E+00  0.91188000000E+02  0.91188000000E+02 0.  0.
    9900012    2    3    3    0    0  0.26695833058E+01 -0.33166797538E+02  0.15767623479E+02  0.54367067311E+02  0.39999961548E+02 0.  0.
        -12    1    3    3    0    0 -0.26695833058E+01  0.33166797538E+02 -0.15767623479E+02  0.36820932689E+02  0.00000000000E+00 0.  1.
         11    1    4    4    0    0 -0.67897029348E+01 -0.15498129441E+02 -0.11114493615E+01  0.16956632981E+02  0.51100000000E-03 0. -1.
        -11    1    4    4    0    0 -0.17135419048E+01 -0.40385802147E+01  0.19144982025E+02  0.19641198869E+02  0.51100000000E-03 0.  1.
        -12    1    4    4    0    0  0.11172828145E+02 -0.13630087882E+02 -0.22659091838E+01  0.17769235461E+02  0.00000000000E+00 0.  1.
</event>
<event>
 8    1  0.2516265E-006  0.9118800E+02  0.7816164E-02  0.1184000E+00
        -11   -1    0    0    0    0  0.00000000000E+00  0.00000000000E+00  0.45593999997E+02  0.45594000000E+02  0.51100000000E-03 0.  1.
         11   -1    0    0    0    0 -0.00000000000E+00 -0.00000000000E+00 -0.45593999997E+02  0.45594000000E+02  0.51100000000E-03 0. -1.
         23    2    1    2    0    0  0.00000000000E+00 -0.35527136788E-14  0.88817841970E-15  0.91188000000E+02  0.91188000000E+02 0.  0.
    9900012    2    3    3    0    0  0.22302586811E+02 -0.28699481710E+02 -0.58919350561E+01  0.54367074868E+02  0.39999978777E+02 0.  0.
        -12    1    3    3    0    0 -0.22302586811E+02  0.28699481710E+02  0.58919350561E+01  0.36820925132E+02  0.00000000000E+00 0.  1.
         11    1    4    4    0    0  0.38063183902E+01 -0.14782760618E+02 -0.16913774612E+02  0.22783631033E+02  0.51100000000E-03 0. -1.
        -11    1    4    4    0    0  0.20209705680E+02 -0.16665835332E+02  0.87154916968E+01  0.27606920631E+02  0.51100000000E-03 0.  1.
         12    1    4    4    0    0 -0.17134372591E+01  0.27491142398E+01  0.23063478588E+01  0.39765232038E+01  0.00000000000E+00 0. -1.
</event>
<event>
 8    1  0.2516265E-006  0.9118800E+02  0.7816164E-02  0.1184000E+00
        -11   -1    0    0    0    0  0.00000000000E+00  0.00000000000E+00  0.45593999997E+02  0.45594000000E+02  0.51100000000E-03 0.  1.
         11   -1    0    0    0    0 -0.00000000000E+00 -0.00000000000E+00 -0.45593999997E+02  0.45594000000E+02  0.51100000000E-03 0. -1.
         23    2    1    2    0    0  0.00000000000E+00  0.00000000000E+00  0.00000000000E+00  0.91188000000E+02  0.91188000000E+02 0.  0.
    9900012    2    3    3    0    0  0.21538833475E+02  0.27936490033E+02 -0.10555068249E+02  0.54367105272E+02  0.40000048088E+02 0.  0.
        -12    1    3    3    0    0 -0.21538833475E+02 -0.27936490033E+02  0.10555068249E+02  0.36820894728E+02  0.00000000000E+00 0.  1.
         11    1    4    4    0    0  0.75018274375E+01 -0.12451790795E+01 -0.15477055616E+01  0.77603658811E+01  0.51100000000E-03 0. -1.
        -11    1    4    4    0    0 -0.37824348835E+01 -0.45522294677E+01 -0.58554789111E+01  0.83256375319E+01  0.51100000000E-03 0.  1.
         12    1    4    4    0    0  0.17819440921E+02  0.33733898580E+02 -0.31518837767E+01  0.38281101859E+02  0.00000000000E+00 0. -1.
</event>
<event>
 8    1  0.2516265E-006  0.9118800E+02  0.7816164E-02  0.1184000E+00
        -11   -1    0    0    0    0  0.00000000000E+00  0.00000000000E+00  0.45593999997E+02  0.45594000000E+02  0.51100000000E-03 0.  1.
         11   -1    0    0    0    0 -0.00000000000E+00 -0.00000000000E+00 -0.45593999997E+02  0.45594000000E+02  0.51100000000E-03 0. -1.
         23    2    1    2    0    0 -0.88817841970E-15  0.00000000000E+00 -0.71054273576E-14  0.91188000000E+02  0.91188000000E+02 0.  0.
    9900012    2    3    3    0    0 -0.17621006821E+01  0.21856576280E+02  0.29579805229E+02  0.54367084709E+02  0.40000001211E+02 0.  0.
         12    1    3    3    0    0  0.17621006821E+01 -0.21856576280E+02 -0.29579805229E+02  0.36820915291E+02  0.00000000000E+00 0. -1.
         11    1    4    4    0    0 -0.78626957954E+00 -0.39915504947E+01  0.10591393794E+01  0.42038639000E+01  0.51100000000E-03 0. -1.
        -11    1    4    4    0    0 -0.66244159674E+01  0.78408789892E+01 -0.52105657290E+01  0.11511397209E+02  0.51100000000E-03 0.  1.
        -12    1    4    4    0    0  0.56485848648E+01  0.18007247786E+02  0.33731231578E+02  0.38651823600E+02  0.00000000000E+00 0.  1.
</event>
<event>
 8    1  0.2516265E-006  0.9118800E+02  0.7816164E-02  0.1184000E+00
        -11   -1    0    0    0    0  0.00000000000E+00  0.00000000000E+00  0.45593999997E+02  0.45594000000E+02  0.51100000000E-03 0.  1.
         11   -1    0    0    0    0 -0.00000000000E+00 -0.00000000000E+00 -0.45593999997E+02  0.45594000000E+02  0.51100000000E-03 0. -1.
         23    2    1    2    0    0  0.00000000000E+00  0.00000000000E+00  0.35527136788E-14  0.91188000000E+02  0.91188000000E+02 0.  0.
    9900012    2    3    3    0    0 -0.20241965504E+02 -0.19544246695E+02  0.23750093665E+02  0.54367059009E+02  0.39999942623E+02 0.  0.
         12    1    3    3    0    0  0.20241965504E+02  0.19544246695E+02 -0.23750093665E+02  0.36820940991E+02  0.00000000000E+00 0. -1.
         11    1    4    4    0    0  0.53793712509E+01 -0.16569832548E+01  0.83091732616E+00  0.56897849191E+01  0.51100000000E-03 0. -1.
        -11    1    4    4    0    0 -0.22678655534E+02 -0.24299581887E+02  0.24687595916E+02  0.41403725546E+02  0.51100000000E-03 0.  1.
        -12    1    4    4    0    0 -0.29426812205E+01  0.64123184461E+01 -0.17684195771E+01  0.72735485439E+01  0.00000000000E+00 0.  1.
</event>
<event>
 8    1  0.2516265E-006  0.9118800E+02  0.7816164E-02  0.1184000E+00
        -11   -1    0    0    0    0  0.00000000000E+00  0.00000000000E+00  0.45593999997E+02  0.45594000000E+02  0.51100000000E-03 0. -1.
         11   -1    0    0    0    0 -0.00000000000E+00 -0.00000000000E+00 -0.45593999997E+02  0.45594000000E+02  0.51100000000E-03 0.  1.
         23    2    1    2    0    0 -0.71054273576E-14  0.26645352591E-14  0.00000000000E+00  0.91188000000E+02  0.91188000000E+02 0.  0.
    9900012    2    3    3    0    0  0.35620545751E+02 -0.68730765544E+01  0.63022582438E+01  0.54367069540E+02  0.39999966631E+02 0.  0.
        -12    1    3    3    0    0 -0.35620545751E+02  0.68730765544E+01 -0.63022582438E+01  0.36820930460E+02  0.00000000000E+00 0.  1.
         11    1    4    4    0    0  0.14426516480E+02 -0.20314221531E+02 -0.34334558533E+00  0.24918062939E+02  0.51100000000E-03 0. -1.
        -11    1    4    4    0    0  0.83104577545E+01  0.25337220398E+01 -0.39230924627E+01  0.95327913119E+01  0.51100000000E-03 0.  1.
         12    1    4    4    0    0  0.12883571517E+02  0.10907422937E+02  0.10568696292E+02  0.19916215290E+02  0.00000000000E+00 0. -1.
</event>
<event>
 8    1  0.2516265E-006  0.9118800E+02  0.7816164E-02  0.1184000E+00
        -11   -1    0    0    0    0  0.00000000000E+00  0.00000000000E+00  0.45593999997E+02  0.45594000000E+02  0.51100000000E-03 0. -1.
         11   -1    0    0    0    0 -0.00000000000E+00 -0.00000000000E+00 -0.45593999997E+02  0.45594000000E+02  0.51100000000E-03 0.  1.
         23    2    1    2    0    0  0.88817841970E-15  0.88817841970E-15 -0.71054273576E-14  0.91188000000E+02  0.91188000000E+02 0.  0.
    9900012    2    3    3    0    0  0.74560894086E+01  0.43614354372E+01 -0.35793524482E+02  0.54366922026E+02  0.39999630341E+02 0.  0.
         12    1    3    3    0    0 -0.74560894086E+01 -0.43614354372E+01  0.35793524482E+02  0.36821077974E+02  0.00000000000E+00 0. -1.
         11    1    4    4    0    0 -0.25114857792E+00 -0.16338197352E+01 -0.16276156692E+01  0.23198223129E+01  0.51100000000E-03 0. -1.
        -11    1    4    4    0    0 -0.46034595816E+01 -0.40259651400E+01 -0.35588064250E+02  0.36109701643E+02  0.51100000000E-03 0.  1.
         12    1    4    4    0    0  0.12310697568E+02  0.10021220312E+02  0.14221554373E+01  0.15937398070E+02  0.00000000000E+00 0. -1.
</event>
<event>
 8    1  0.2516265E-006  0.9118800E+02  0.7816164E-02  0.1184000E+00
        -11   -1    0    0    0    0  0.00000000000E+00  0.00000000000E+00  0.45593999997E+02  0.45594000000E+02  0.51100000000E-03 0. -1.
         11   -1    0    0    0    0 -0.00000000000E+00 -0.00000000000E+00 -0.45593999997E+02  0.45594000000E+02  0.51100000000E-03 0.  1.
         23    2    1    2    0    0 -0.88817841970E-15 -0.35527136788E-14  0.00000000000E+00  0.91188000000E+02  0.91188000000E+02 0.  0.
    9900012    2    3    3    0    0  0.71017301601E+01 -0.31010434853E+02  0.18539235961E+02  0.54367015344E+02  0.39999843079E+02 0.  0.
        -12    1    3    3    0    0 -0.71017301601E+01  0.31010434853E+02 -0.18539235961E+02  0.36820984656E+02  0.00000000000E+00 0.  1.
         11    1    4    4    0    0 -0.13091506872E+02 -0.10932401372E+02  0.52621033321E+01  0.17849220814E+02  0.51100000000E-03 0. -1.
        -11    1    4    4    0    0  0.96240678965E+00 -0.11096096133E+02 -0.60826278452E+00  0.11154351622E+02  0.51100000000E-03 0.  1.
        -12    1    4    4    0    0  0.19230830243E+02 -0.89819373476E+01  0.13885395414E+02  0.25363442908E+02  0.00000000000E+00 0.  1.
</event>
<event>
 8    1  0.2516265E-006  0.9118800E+02  0.7816164E-02  0.1184000E+00
        -11   -1    0    0    0    0  0.00000000000E+00  0.00000000000E+00  0.45593999997E+02  0.45594000000E+02  0.51100000000E-03 0. -1.
         11   -1    0    0    0    0 -0.00000000000E+00 -0.00000000000E+00 -0.45593999997E+02  0.45594000000E+02  0.51100000000E-03 0.  1.
         23    2    1    2    0    0  0.00000000000E+00  0.00000000000E+00  0.00000000000E+00  0.91188000000E+02  0.91188000000E+02 0.  0.
    9900012    2    3    3    0    0 -0.23259707768E+02 -0.12246904276E+02  0.25783296432E+02  0.54367095004E+02  0.40000024681E+02 0.  0.
        -12    1    3    3    0    0  0.23259707768E+02  0.12246904276E+02 -0.25783296432E+02  0.36820904996E+02  0.00000000000E+00 0.  1.
         11    1    4    4    0    0 -0.14123756880E+02  0.73410079136E+00  0.26392805854E+02  0.29943273259E+02  0.51100000000E-03 0. -1.
        -11    1    4    4    0    0 -0.12362615967E+02 -0.17179490235E+01 -0.19441403586E+01  0.12631916101E+02  0.51100000000E-03 0.  1.
        -12    1    4    4    0    0  0.32266650783E+01 -0.11263056044E+02  0.13346309371E+01  0.11791905644E+02  0.00000000000E+00 0.  1.
</event>
<event>
 8    1  0.2516265E-006  0.9118800E+02  0.7816164E-02  0.1184000E+00
        -11   -1    0    0    0    0  0.00000000000E+00  0.00000000000E+00  0.45593999997E+02  0.45594000000E+02  0.51100000000E-03 0.  1.
         11   -1    0    0    0    0 -0.00000000000E+00 -0.00000000000E+00 -0.45593999997E+02  0.45594000000E+02  0.51100000000E-03 0. -1.
         23    2    1    2    0    0  0.00000000000E+00  0.88817841970E-15  0.00000000000E+00  0.91188000000E+02  0.91188000000E+02 0.  0.
    9900012    2    3    3    0    0 -0.33069977144E+02  0.37180174223E+01  0.15758560605E+02  0.54367091888E+02  0.40000017577E+02 0.  0.
         12    1    3    3    0    0  0.33069977144E+02 -0.37180174223E+01 -0.15758560605E+02  0.36820908112E+02  0.00000000000E+00 0. -1.
         11    1    4    4    0    0 -0.28593600414E+02  0.12725282307E+02  0.11099008122E+02  0.33207149471E+02  0.51100000000E-03 0. -1.
        -11    1    4    4    0    0 -0.74739429446E+00  0.28609611322E+01  0.77895942016E+01  0.83319550478E+01  0.51100000000E-03 0.  1.
         12    1    4    4    0    0 -0.37289824354E+01 -0.11868226017E+02 -0.31300417185E+01  0.12827987370E+02  0.00000000000E+00 0. -1.
</event>
<event>
 8    1  0.2516265E-006  0.9118800E+02  0.7816164E-02  0.1184000E+00
        -11   -1    0    0    0    0  0.00000000000E+00  0.00000000000E+00  0.45593999997E+02  0.45594000000E+02  0.51100000000E-03 0.  1.
         11   -1    0    0    0    0 -0.00000000000E+00 -0.00000000000E+00 -0.45593999997E+02  0.45594000000E+02  0.51100000000E-03 0. -1.
         23    2    1    2    0    0  0.17763568394E-14  0.00000000000E+00  0.00000000000E+00  0.91188000000E+02  0.91188000000E+02 0.  0.
    9900012    2    3    3    0    0  0.10905190862E+02 -0.54091008407E+01 -0.34750514297E+02  0.54367084700E+02  0.40000001190E+02 0.  0.
        -12    1    3    3    0    0 -0.10905190862E+02  0.54091008407E+01  0.34750514297E+02  0.36820915300E+02  0.00000000000E+00 0.  1.
         11    1    4    4    0    0  0.15627058498E+02  0.36029791357E+01 -0.20154595593E+02  0.25756438801E+02  0.51100000000E-03 0.  1.
        -11    1    4    4    0    0 -0.61711224363E+01 -0.96876504342E+01 -0.19951404772E+02  0.23021552417E+02  0.51100000000E-03 0. -1.
        -12    1    4    4    0    0  0.14492548003E+01  0.67557045789E+00  0.53554860680E+01  0.55890934814E+01  0.00000000000E+00 0.  1.
</event>
<event>
 8    1  0.2516265E-006  0.9118800E+02  0.7816164E-02  0.1184000E+00
        -11   -1    0    0    0    0  0.00000000000E+00  0.00000000000E+00  0.45593999997E+02  0.45594000000E+02  0.51100000000E-03 0. -1.
         11   -1    0    0    0    0 -0.00000000000E+00 -0.00000000000E+00 -0.45593999997E+02  0.45594000000E+02  0.51100000000E-03 0.  1.
         23    2    1    2    0    0  0.00000000000E+00 -0.17763568394E-14  0.44408920985E-15  0.91188000000E+02  0.91188000000E+02 0.  0.
    9900012    2    3    3    0    0  0.35791285970E+02  0.80968603538E+01  0.30340180544E+01  0.54367074366E+02  0.39999977632E+02 0.  0.
         12    1    3    3    0    0 -0.35791285970E+02 -0.80968603538E+01 -0.30340180544E+01  0.36820925634E+02  0.00000000000E+00 0. -1.
         11    1    4    4    0    0  0.12535131963E+02  0.10946377488E+02  0.59150189372E+01  0.17661827842E+02  0.51100000000E-03 0. -1.
        -11    1    4    4    0    0  0.11603099312E+02 -0.15394873702E+02  0.34798558900E+00  0.19280952886E+02  0.51100000000E-03 0.  1.
        -12    1    4    4    0    0  0.11653054695E+02  0.12545356568E+02 -0.32289864717E+01  0.17424293638E+02  0.00000000000E+00 0.  1.
</event>
<event>
 8    1  0.2516265E-006  0.9118800E+02  0.7816164E-02  0.1184000E+00
        -11   -1    0    0    0    0  0.00000000000E+00  0.00000000000E+00  0.45593999997E+02  0.45594000000E+02  0.51100000000E-03 0.  1.
         11   -1    0    0    0    0 -0.00000000000E+00 -0.00000000000E+00 -0.45593999997E+02  0.45594000000E+02  0.51100000000E-03 0. -1.
         23    2    1    2    0    0  0.00000000000E+00  0.00000000000E+00 -0.35527136788E-14  0.91188000000E+02  0.91188000000E+02 0.  0.
    9900012    2    3    3    0    0 -0.32716879901E+02  0.41079382609E+01  0.16386270767E+02  0.54367092123E+02  0.40000018114E+02 0.  0.
         12    1    3    3    0    0  0.32716879901E+02 -0.41079382609E+01 -0.16386270767E+02  0.36820907877E+02  0.00000000000E+00 0. -1.
         11    1    4    4    0    0 -0.25374186577E+02 -0.56665979503E+01 -0.17779448886E+01  0.26059945607E+02  0.51100000000E-03 0. -1.
        -11    1    4    4    0    0 -0.13097920412E+02  0.43636871298E+01  0.11863483061E+02  0.18202733726E+02  0.51100000000E-03 0.  1.
        -12    1    4    4    0    0  0.57552270876E+01  0.54108490814E+01  0.63007325942E+01  0.10104412790E+02  0.00000000000E+00 0.  1.
</event>
<event>
 8    1  0.2516265E-006  0.9118800E+02  0.7816164E-02  0.1184000E+00
        -11   -1    0    0    0    0  0.00000000000E+00  0.00000000000E+00  0.45593999997E+02  0.45594000000E+02  0.51100000000E-03 0. -1.
         11   -1    0    0    0    0 -0.00000000000E+00 -0.00000000000E+00 -0.45593999997E+02  0.45594000000E+02  0.51100000000E-03 0.  1.
         23    2    1    2    0    0  0.00000000000E+00  0.00000000000E+00 -0.55511151231E-15  0.91188000000E+02  0.91188000000E+02 0.  0.
    9900012    2    3    3    0    0  0.11643156032E+02 -0.34919743517E+02  0.90528776757E+00  0.54367202675E+02  0.40000270138E+02 0.  0.
        -12    1    3    3    0    0 -0.11643156032E+02  0.34919743517E+02 -0.90528776757E+00  0.36820797325E+02  0.00000000000E+00 0.  1.
         11    1    4    4    0    0  0.57242613813E+01 -0.13918362040E+02 -0.53739581634E+01  0.15980218924E+02  0.51100000000E-03 0. -1.
        -11    1    4    4    0    0  0.13671366271E+02 -0.35881887823E+01  0.11940698378E+02  0.18503016847E+02  0.51100000000E-03 0.  1.
        -12    1    4    4    0    0 -0.77524716205E+01 -0.17413192694E+02 -0.56614524466E+01  0.19883966904E+02  0.00000000000E+00 0.  1.
</event>
<event>
 8    1  0.2516265E-006  0.9118800E+02  0.7816164E-02  0.1184000E+00
        -11   -1    0    0    0    0  0.00000000000E+00  0.00000000000E+00  0.45593999997E+02  0.45594000000E+02  0.51100000000E-03 0. -1.
         11   -1    0    0    0    0 -0.00000000000E+00 -0.00000000000E+00 -0.45593999997E+02  0.45594000000E+02  0.51100000000E-03 0.  1.
         23    2    1    2    0    0 -0.35527136788E-14  0.00000000000E+00  0.00000000000E+00  0.91188000000E+02  0.91188000000E+02 0.  0.
    9900012    2    3    3    0    0  0.27980510237E+02  0.96885630197E+01  0.21886143264E+02  0.54367075602E+02  0.39999980450E+02 0.  0.
        -12    1    3    3    0    0 -0.27980510237E+02 -0.96885630197E+01 -0.21886143264E+02  0.36820924398E+02  0.00000000000E+00 0.  1.
         11    1    4    4    0    0  0.53269715633E+01  0.15521255556E+02  0.59479938676E+01  0.17454644980E+02  0.51100000000E-03 0. -1.
        -11    1    4    4    0    0  0.36142636415E+01 -0.52651893310E+01 -0.53612181512E+01  0.83383320087E+01  0.51100000000E-03 0.  1.
         12    1    4    4    0    0  0.19039275032E+02 -0.56750320491E+00  0.21299367548E+02  0.28574098614E+02  0.00000000000E+00 0. -1.
</event>
<event>
 8    1  0.2516265E-006  0.9118800E+02  0.7816164E-02  0.1184000E+00
        -11   -1    0    0    0    0  0.00000000000E+00  0.00000000000E+00  0.45593999997E+02  0.45594000000E+02  0.51100000000E-03 0.  1.
         11   -1    0    0    0    0 -0.00000000000E+00 -0.00000000000E+00 -0.45593999997E+02  0.45594000000E+02  0.51100000000E-03 0. -1.
         23    2    1    2    0    0  0.00000000000E+00  0.00000000000E+00 -0.13322676296E-14  0.91188000000E+02  0.91188000000E+02 0.  0.
    9900012    2    3    3    0    0 -0.16907137562E+02 -0.32625062671E+02  0.23525527559E+01  0.54367074981E+02  0.39999979033E+02 0.  0.
         12    1    3    3    0    0  0.16907137562E+02  0.32625062671E+02 -0.23525527559E+01  0.36820925019E+02  0.00000000000E+00 0. -1.
         11    1    4    4    0    0  0.43057505422E+01  0.38529123017E+01  0.71553089986E+01  0.91968944792E+01  0.51100000000E-03 0. -1.
        -11    1    4    4    0    0 -0.22392718977E+01 -0.18630766860E+02 -0.35053545228E+01  0.19089455807E+02  0.51100000000E-03 0.  1.
        -12    1    4    4    0    0 -0.18973616206E+02 -0.17847208113E+02 -0.12974017199E+01  0.26080724694E+02  0.00000000000E+00 0.  1.
</event>
<event>
 8    1  0.2516265E-006  0.9118800E+02  0.7816164E-02  0.1184000E+00
        -11   -1    0    0    0    0  0.00000000000E+00  0.00000000000E+00  0.45593999997E+02  0.45594000000E+02  0.51100000000E-03 0.  1.
         11   -1    0    0    0    0 -0.00000000000E+00 -0.00000000000E+00 -0.45593999997E+02  0.45594000000E+02  0.51100000000E-03 0. -1.
         23    2    1    2    0    0  0.00000000000E+00  0.00000000000E+00  0.00000000000E+00  0.91188000000E+02  0.91188000000E+02 0.  0.
    9900012    2    3    3    0    0  0.13200755919E+02  0.22597232233E+02  0.25901446044E+02  0.54367085175E+02  0.40000002273E+02 0.  0.
         12    1    3    3    0    0 -0.13200755919E+02 -0.22597232233E+02 -0.25901446044E+02  0.36820914825E+02  0.00000000000E+00 0. -1.
         11    1    4    4    0    0  0.32529707420E+01  0.13475551748E+02 -0.43626285111E+00  0.13869485899E+02  0.51100000000E-03 0.  1.
        -11    1    4    4    0    0  0.75737276834E+01 -0.33826796803E+01 -0.27568071759E+01  0.87409300940E+01  0.51100000000E-03 0. -1.
         12    1    4    4    0    0  0.23740574935E+01  0.12504360165E+02  0.29094516071E+02  0.31756669182E+02  0.00000000000E+00 0. -1.
</event>
<event>
 8    1  0.2516265E-006  0.9118800E+02  0.7816164E-02  0.1184000E+00
        -11   -1    0    0    0    0  0.00000000000E+00  0.00000000000E+00  0.45593999997E+02  0.45594000000E+02  0.51100000000E-03 0.  1.
         11   -1    0    0    0    0 -0.00000000000E+00 -0.00000000000E+00 -0.45593999997E+02  0.45594000000E+02  0.51100000000E-03 0. -1.
         23    2    1    2    0    0  0.00000000000E+00 -0.17763568394E-14  0.00000000000E+00  0.91188000000E+02  0.91188000000E+02 0.  0.
    9900012    2    3    3    0    0 -0.96279336826E+01  0.42053974505E+01  0.35290177103E+02  0.54367094597E+02  0.40000023754E+02 0.  0.
         12    1    3    3    0    0  0.96279336826E+01 -0.42053974505E+01 -0.35290177103E+02  0.36820905403E+02  0.00000000000E+00 0. -1.
         11    1    4    4    0    0 -0.11253584560E+02 -0.82661746691E+01  0.87661728321E+01  0.16486921953E+02  0.51100000000E-03 0. -1.
        -11    1    4    4    0    0  0.46399078321E+01 -0.29497431587E+01  0.20212305262E+02  0.20946766186E+02  0.51100000000E-03 0.  1.
         12    1    4    4    0    0 -0.30142569552E+01  0.15421315278E+02  0.63116990090E+01  0.16933406458E+02  0.00000000000E+00 0. -1.
</event>
<event>
 8    1  0.2516265E-006  0.9118800E+02  0.7816164E-02  0.1184000E+00
        -11   -1    0    0    0    0  0.00000000000E+00  0.00000000000E+00  0.45593999997E+02  0.45594000000E+02  0.51100000000E-03 0.  1.
         11   -1    0    0    0    0 -0.00000000000E+00 -0.00000000000E+00 -0.45593999997E+02  0.45594000000E+02  0.51100000000E-03 0. -1.
         23    2    1    2    0    0  0.00000000000E+00 -0.71054273576E-14  0.00000000000E+00  0.91188000000E+02  0.91188000000E+02 0.  0.
    9900012    2    3    3    0    0 -0.14312601304E+01 -0.36757996894E+02  0.16068984388E+01  0.54367068944E+02  0.39999965273E+02 0.  0.
        -12    1    3    3    0    0  0.14312601304E+01  0.36757996894E+02 -0.16068984388E+01  0.36820931056E+02  0.00000000000E+00 0.  1.
         11    1    4    4    0    0 -0.71804720321E+01  0.10599964605E+01  0.15799976779E+01  0.74282679020E+01  0.51100000000E-03 0. -1.
        -11    1    4    4    0    0  0.12314182974E+02 -0.72694225616E+01  0.53011491661E+01  0.15250763569E+02  0.51100000000E-03 0.  1.
         12    1    4    4    0    0 -0.65649710725E+01 -0.30548570793E+02 -0.52742484053E+01  0.31688037473E+02  0.00000000000E+00 0. -1.
</event>
<event>
 8    1  0.2516265E-006  0.9118800E+02  0.7816164E-02  0.1184000E+00
        -11   -1    0    0    0    0  0.00000000000E+00  0.00000000000E+00  0.45593999997E+02  0.45594000000E+02  0.51100000000E-03 0. -1.
         11   -1    0    0    0    0 -0.00000000000E+00 -0.00000000000E+00 -0.45593999997E+02  0.45594000000E+02  0.51100000000E-03 0.  1.
         23    2    1    2    0    0  0.00000000000E+00  0.00000000000E+00 -0.88817841970E-15  0.91188000000E+02  0.91188000000E+02 0.  0.
    9900012    2    3    3    0    0  0.36466881305E+02 -0.46175932829E+01  0.21504209526E+01  0.54367083252E+02  0.39999997890E+02 0.  0.
         12    1    3    3    0    0 -0.36466881305E+02  0.46175932829E+01 -0.21504209526E+01  0.36820916748E+02  0.00000000000E+00 0. -1.
         11    1    4    4    0    0  0.26072490962E+01 -0.48610940267E+01  0.32498074678E+01  0.64022833290E+01  0.51100000000E-03 0. -1.
        -11    1    4    4    0    0  0.63749530355E+01 -0.36406591964E+01 -0.15163679743E+02  0.16847302728E+02  0.51100000000E-03 0.  1.
         12    1    4    4    0    0  0.27484679174E+02  0.38841599402E+01  0.14064293228E+02  0.31117497196E+02  0.00000000000E+00 0. -1.
</event>
<event>
 8    1  0.2516265E-006  0.9118800E+02  0.7816164E-02  0.1184000E+00
        -11   -1    0    0    0    0  0.00000000000E+00  0.00000000000E+00  0.45593999997E+02  0.45594000000E+02  0.51100000000E-03 0.  1.
         11   -1    0    0    0    0 -0.00000000000E+00 -0.00000000000E+00 -0.45593999997E+02  0.45594000000E+02  0.51100000000E-03 0. -1.
         23    2    1    2    0    0  0.00000000000E+00  0.35527136788E-14  0.17763568394E-14  0.91188000000E+02  0.91188000000E+02 0.  0.
    9900012    2    3    3    0    0 -0.22618543732E+02  0.25962582650E+02  0.13043232968E+02  0.54367080068E+02  0.39999990630E+02 0.  0.
         12    1    3    3    0    0  0.22618543732E+02 -0.25962582650E+02 -0.13043232968E+02  0.36820919932E+02  0.00000000000E+00 0. -1.
         11    1    4    4    0    0 -0.91715821705E+01 -0.49772155213E+01  0.55093829402E+01  0.11800165020E+02  0.51100000000E-03 0. -1.
        -11    1    4    4    0    0  0.41252877011E+01  0.21140927150E+02  0.61464128414E+01  0.22399446208E+02  0.51100000000E-03 0.  1.
        -12    1    4    4    0    0 -0.17572249262E+02  0.97988710218E+01  0.13874371863E+01  0.20167468839E+02  0.00000000000E+00 0.  1.
</event>
<event>
 8    1  0.2516265E-006  0.9118800E+02  0.7816164E-02  0.1184000E+00
        -11   -1    0    0    0    0  0.00000000000E+00  0.00000000000E+00  0.45593999997E+02  0.45594000000E+02  0.51100000000E-03 0. -1.
         11   -1    0    0    0    0 -0.00000000000E+00 -0.00000000000E+00 -0.45593999997E+02  0.45594000000E+02  0.51100000000E-03 0.  1.
         23    2    1    2    0    0  0.88817841970E-15  0.00000000000E+00  0.00000000000E+00  0.91188000000E+02  0.91188000000E+02 0.  0.
    9900012    2    3    3    0    0 -0.12944425776E+01 -0.32651994148E+02  0.16969193189E+02  0.54367057306E+02  0.39999938740E+02 0.  0.
         12    1    3    3    0    0  0.12944425776E+01  0.32651994148E+02 -0.16969193189E+02  0.36820942694E+02  0.00000000000E+00 0. -1.
         11    1    4    4    0    0  0.78465937220E+01 -0.34294721708E+01  0.15064273311E+02  0.17328088269E+02  0.51100000000E-03 0. -1.
        -11    1    4    4    0    0  0.16856950673E+01 -0.68765321308E+01  0.87752836234E+01  0.11275365401E+02  0.51100000000E-03 0.  1.
        -12    1    4    4    0    0 -0.10826731367E+02 -0.22345989846E+02 -0.68703637450E+01  0.25763603636E+02  0.00000000000E+00 0.  1.
</event>
<event>
 8    1  0.2516265E-006  0.9118800E+02  0.7816164E-02  0.1184000E+00
        -11   -1    0    0    0    0  0.00000000000E+00  0.00000000000E+00  0.45593999997E+02  0.45594000000E+02  0.51100000000E-03 0.  1.
         11   -1    0    0    0    0 -0.00000000000E+00 -0.00000000000E+00 -0.45593999997E+02  0.45594000000E+02  0.51100000000E-03 0. -1.
         23    2    1    2    0    0  0.11102230246E-14  0.71054273576E-14 -0.17763568394E-14  0.91188000000E+02  0.91188000000E+02 0.  0.
    9900012    2    3    3    0    0 -0.95618941468E+00  0.36441424463E+02 -0.51850915048E+01  0.54367124277E+02  0.40000091415E+02 0.  0.
         12    1    3    3    0    0  0.95618941468E+00 -0.36441424463E+02  0.51850915048E+01  0.36820875723E+02  0.00000000000E+00 0. -1.
         11    1    4    4    0    0 -0.60858329913E+01  0.94912235166E+01  0.12787808218E+02  0.17048422986E+02  0.51100000000E-03 0. -1.
        -11    1    4    4    0    0 -0.20876340857E+01  0.17069680098E+02 -0.21710013075E+01  0.17333362099E+02  0.51100000000E-03 0.  1.
         12    1    4    4    0    0  0.72172776624E+01  0.98805208484E+01 -0.15801898415E+02  0.19985339192E+02  0.00000000000E+00 0. -1.
</event>
<event>
 8    1  0.2516265E-006  0.9118800E+02  0.7816164E-02  0.1184000E+00
        -11   -1    0    0    0    0  0.00000000000E+00  0.00000000000E+00  0.45593999997E+02  0.45594000000E+02  0.51100000000E-03 0. -1.
         11   -1    0    0    0    0 -0.00000000000E+00 -0.00000000000E+00 -0.45593999997E+02  0.45594000000E+02  0.51100000000E-03 0.  1.
         23    2    1    2    0    0  0.71054273576E-14  0.53290705182E-14  0.00000000000E+00  0.91188000000E+02  0.91188000000E+02 0.  0.
    9900012    2    3    3    0    0 -0.33959506853E+02 -0.11741960350E+02 -0.80409864345E+01  0.54367092877E+02  0.40000019831E+02 0.  0.
         12    1    3    3    0    0  0.33959506853E+02  0.11741960350E+02  0.80409864345E+01  0.36820907123E+02  0.00000000000E+00 0. -1.
         11    1    4    4    0    0 -0.12583067119E+02  0.28030383316E+01  0.15574713404E+01  0.12985234663E+02  0.51100000000E-03 0. -1.
        -11    1    4    4    0    0 -0.21966734422E+02  0.57823064607E+00  0.23492006932E+01  0.22099559181E+02  0.51100000000E-03 0.  1.
         12    1    4    4    0    0  0.59029468823E+00 -0.15123229328E+02 -0.11947658468E+02  0.19282299033E+02  0.00000000000E+00 0. -1.
</event>
<event>
 8    1  0.2516265E-006  0.9118800E+02  0.7816164E-02  0.1184000E+00
        -11   -1    0    0    0    0  0.00000000000E+00  0.00000000000E+00  0.45593999997E+02  0.45594000000E+02  0.51100000000E-03 0.  1.
         11   -1    0    0    0    0 -0.00000000000E+00 -0.00000000000E+00 -0.45593999997E+02  0.45594000000E+02  0.51100000000E-03 0. -1.
         23    2    1    2    0    0  0.00000000000E+00 -0.35527136788E-14  0.35527136788E-14  0.91188000000E+02  0.91188000000E+02 0.  0.
    9900012    2    3    3    0    0 -0.11658235428E+02  0.19065093458E+02 -0.29264148082E+02  0.54367046661E+02  0.39999914472E+02 0.  0.
        -12    1    3    3    0    0  0.11658235428E+02 -0.19065093458E+02  0.29264148082E+02  0.36820953339E+02  0.00000000000E+00 0.  1.
         11    1    4    4    0    0 -0.53020789720E+01  0.23030967340E+02 -0.27578432460E+02  0.36319518654E+02  0.51100000000E-03 0. -1.
        -11    1    4    4    0    0 -0.50274215118E+01 -0.34597277328E+01  0.69766663015E+01  0.92692262884E+01  0.51100000000E-03 0.  1.
        -12    1    4    4    0    0 -0.13287349441E+01 -0.50614614829E+00 -0.86623819230E+01  0.87783017182E+01  0.00000000000E+00 0.  1.
</event>
<event>
 8    1  0.2516265E-006  0.9118800E+02  0.7816164E-02  0.1184000E+00
        -11   -1    0    0    0    0  0.00000000000E+00  0.00000000000E+00  0.45593999997E+02  0.45594000000E+02  0.51100000000E-03 0. -1.
         11   -1    0    0    0    0 -0.00000000000E+00 -0.00000000000E+00 -0.45593999997E+02  0.45594000000E+02  0.51100000000E-03 0.  1.
         23    2    1    2    0    0 -0.88817841970E-15  0.00000000000E+00  0.00000000000E+00  0.91188000000E+02  0.91188000000E+02 0.  0.
    9900012    2    3    3    0    0 -0.66274881951E+01 -0.25715569358E+02  0.25506097225E+02  0.54367148532E+02  0.40000146708E+02 0.  0.
        -12    1    3    3    0    0  0.66274881951E+01  0.25715569358E+02 -0.25506097225E+02  0.36820851468E+02  0.00000000000E+00 0.  1.
         11    1    4    4    0    0 -0.72546267913E+01  0.40629639939E+01  0.25171657510E+01  0.86875433798E+01  0.51100000000E-03 0. -1.
        -11    1    4    4    0    0  0.78684689485E+01  0.60386517763E+00  0.23163579402E+01  0.82245347051E+01  0.51100000000E-03 0.  1.
         12    1    4    4    0    0 -0.72413303523E+01 -0.30382398529E+02  0.20672573534E+02  0.37455070447E+02  0.00000000000E+00 0. -1.
</event>
<event>
 8    1  0.2516265E-006  0.9118800E+02  0.7816164E-02  0.1184000E+00
        -11   -1    0    0    0    0  0.00000000000E+00  0.00000000000E+00  0.45593999997E+02  0.45594000000E+02  0.51100000000E-03 0.  1.
         11   -1    0    0    0    0 -0.00000000000E+00 -0.00000000000E+00 -0.45593999997E+02  0.45594000000E+02  0.51100000000E-03 0. -1.
         23    2    1    2    0    0  0.00000000000E+00  0.35527136788E-14  0.00000000000E+00  0.91188000000E+02  0.91188000000E+02 0.  0.
    9900012    2    3    3    0    0  0.18368424365E+02  0.30329948322E+02  0.99234431829E+01  0.54367088775E+02  0.40000010480E+02 0.  0.
        -12    1    3    3    0    0 -0.18368424365E+02 -0.30329948322E+02 -0.99234431829E+01  0.36820911225E+02  0.00000000000E+00 0.  1.
         11    1    4    4    0    0  0.19834662001E+02  0.43987742603E+01  0.66630316709E+01  0.21381277394E+02  0.51100000000E-03 0.  1.
        -11    1    4    4    0    0 -0.23313071149E+01  0.12729389589E+02 -0.83354222847E+01  0.15393232834E+02  0.51100000000E-03 0. -1.
        -12    1    4    4    0    0  0.86506947816E+00  0.13201784473E+02  0.11595833797E+02  0.17592578546E+02  0.00000000000E+00 0.  1.
</event>
<event>
 8    1  0.2516265E-006  0.9118800E+02  0.7816164E-02  0.1184000E+00
        -11   -1    0    0    0    0  0.00000000000E+00  0.00000000000E+00  0.45593999997E+02  0.45594000000E+02  0.51100000000E-03 0. -1.
         11   -1    0    0    0    0 -0.00000000000E+00 -0.00000000000E+00 -0.45593999997E+02  0.45594000000E+02  0.51100000000E-03 0.  1.
         23    2    1    2    0    0  0.17763568394E-14  0.00000000000E+00  0.35527136788E-14  0.91188000000E+02  0.91188000000E+02 0.  0.
    9900012    2    3    3    0    0 -0.10818412047E+02 -0.23437337408E+02 -0.26257055514E+02  0.54367084907E+02  0.40000001664E+02 0.  0.
         12    1    3    3    0    0  0.10818412047E+02  0.23437337408E+02  0.26257055514E+02  0.36820915093E+02  0.00000000000E+00 0. -1.
         11    1    4    4    0    0 -0.75957010177E+01  0.57116674674E+01 -0.41179474578E+01  0.10357379530E+02  0.51100000000E-03 0. -1.
        -11    1    4    4    0    0 -0.98311032471E+01 -0.62451705390E+01 -0.15263795273E+02  0.19199900846E+02  0.51100000000E-03 0.  1.
        -12    1    4    4    0    0  0.66083922177E+01 -0.22903834336E+02 -0.68753127837E+01  0.24809804531E+02  0.00000000000E+00 0.  1.
</event>
<event>
 8    1  0.2516265E-006  0.9118800E+02  0.7816164E-02  0.1184000E+00
        -11   -1    0    0    0    0  0.00000000000E+00  0.00000000000E+00  0.45593999997E+02  0.45594000000E+02  0.51100000000E-03 0. -1.
         11   -1    0    0    0    0 -0.00000000000E+00 -0.00000000000E+00 -0.45593999997E+02  0.45594000000E+02  0.51100000000E-03 0.  1.
         23    2    1    2    0    0  0.00000000000E+00  0.35527136788E-14  0.00000000000E+00  0.91188000000E+02  0.91188000000E+02 0.  0.
    9900012    2    3    3    0    0  0.21418371625E+01 -0.17823873089E+02  0.32148118393E+02  0.54367089711E+02  0.40000012614E+02 0.  0.
        -12    1    3    3    0    0 -0.21418371625E+01  0.17823873089E+02 -0.32148118393E+02  0.36820910289E+02  0.00000000000E+00 0.  1.
         11    1    4    4    0    0  0.40279904989E+01 -0.16210552382E+01  0.15028219713E+02  0.15642887059E+02  0.51100000000E-03 0. -1.
        -11    1    4    4    0    0 -0.15490752309E+01  0.52468059561E+01  0.16368782789E+02  0.17258784925E+02  0.51100000000E-03 0.  1.
         12    1    4    4    0    0 -0.33707810554E+00 -0.21449623807E+02  0.75111589007E+00  0.21465417727E+02  0.00000000000E+00 0. -1.
</event>
<event>
 8    1  0.2516265E-006  0.9118800E+02  0.7816164E-02  0.1184000E+00
        -11   -1    0    0    0    0  0.00000000000E+00  0.00000000000E+00  0.45593999997E+02  0.45594000000E+02  0.51100000000E-03 0.  1.
         11   -1    0    0    0    0 -0.00000000000E+00 -0.00000000000E+00 -0.45593999997E+02  0.45594000000E+02  0.51100000000E-03 0. -1.
         23    2    1    2    0    0 -0.44408920985E-15  0.00000000000E+00  0.35527136788E-14  0.91188000000E+02  0.91188000000E+02 0.  0.
    9900012    2    3    3    0    0 -0.26072444818E+01 -0.25312666250E+02 -0.26613029264E+02  0.54367053202E+02  0.39999929385E+02 0.  0.
        -12    1    3    3    0    0  0.26072444818E+01  0.25312666250E+02  0.26613029264E+02  0.36820946798E+02  0.00000000000E+00 0.  1.
         11    1    4    4    0    0 -0.16950094747E+01  0.78744612373E+01 -0.38948878400E+01  0.89470860309E+01  0.51100000000E-03 0. -1.
        -11    1    4    4    0    0  0.29508991208E+01 -0.11785123048E+02 -0.20139005128E+02  0.23519703627E+02  0.51100000000E-03 0.  1.
        -12    1    4    4    0    0 -0.38631341278E+01 -0.21402004439E+02 -0.25791362959E+01  0.21900263544E+02  0.00000000000E+00 0.  1.
</event>
<event>
 8    1  0.2516265E-006  0.9118800E+02  0.7816164E-02  0.1184000E+00
        -11   -1    0    0    0    0  0.00000000000E+00  0.00000000000E+00  0.45593999997E+02  0.45594000000E+02  0.51100000000E-03 0. -1.
         11   -1    0    0    0    0 -0.00000000000E+00 -0.00000000000E+00 -0.45593999997E+02  0.45594000000E+02  0.51100000000E-03 0.  1.
         23    2    1    2    0    0  0.55511151231E-16  0.00000000000E+00 -0.35527136788E-14  0.91188000000E+02  0.91188000000E+02 0.  0.
    9900012    2    3    3    0    0  0.24490398953E+00 -0.27505594438E+02 -0.24477785754E+02  0.54367086122E+02  0.40000004433E+02 0.  0.
        -12    1    3    3    0    0 -0.24490398953E+00  0.27505594438E+02  0.24477785754E+02  0.36820913878E+02  0.00000000000E+00 0.  1.
         11    1    4    4    0    0 -0.18740403378E+01 -0.24884096558E+02 -0.65992333998E+01  0.25812403422E+02  0.51100000000E-03 0. -1.
        -11    1    4    4    0    0 -0.44481712244E+01  0.63184527136E+01 -0.25585649524E+00  0.77313992746E+01  0.51100000000E-03 0.  1.
        -12    1    4    4    0    0  0.65671155517E+01 -0.89399505937E+01 -0.17622695859E+02  0.20823283426E+02  0.00000000000E+00 0.  1.
</event>
<event>
 8    1  0.2516265E-006  0.9118800E+02  0.7816164E-02  0.1184000E+00
        -11   -1    0    0    0    0  0.00000000000E+00  0.00000000000E+00  0.45593999997E+02  0.45594000000E+02  0.51100000000E-03 0.  1.
         11   -1    0    0    0    0 -0.00000000000E+00 -0.00000000000E+00 -0.45593999997E+02  0.45594000000E+02  0.51100000000E-03 0. -1.
         23    2    1    2    0    0 -0.44408920985E-15  0.35527136788E-14  0.00000000000E+00  0.91188000000E+02  0.91188000000E+02 0.  0.
    9900012    2    3    3    0    0  0.10949289580E+01  0.17159069235E+02 -0.32559893015E+02  0.54367093444E+02  0.40000021125E+02 0.  0.
        -12    1    3    3    0    0 -0.10949289580E+01 -0.17159069235E+02  0.32559893015E+02  0.36820906556E+02  0.00000000000E+00 0.  1.
         11    1    4    4    0    0 -0.90192697831E+01  0.22789383249E+02 -0.32941380144E+02  0.41058954473E+02  0.51100000000E-03 0. -1.
        -11    1    4    4    0    0  0.47511774891E+00  0.13169994516E+01 -0.18832285962E+00  0.14126889931E+01  0.51100000000E-03 0.  1.
        -12    1    4    4    0    0  0.96390809921E+01 -0.69473134660E+01  0.56980998914E+00  0.11895449979E+02  0.00000000000E+00 0.  1.
</event>
<event>
 8    1  0.2516265E-006  0.9118800E+02  0.7816164E-02  0.1184000E+00
        -11   -1    0    0    0    0  0.00000000000E+00  0.00000000000E+00  0.45593999997E+02  0.45594000000E+02  0.51100000000E-03 0. -1.
         11   -1    0    0    0    0 -0.00000000000E+00 -0.00000000000E+00 -0.45593999997E+02  0.45594000000E+02  0.51100000000E-03 0.  1.
         23    2    1    2    0    0 -0.17763568394E-14  0.71054273576E-14 -0.17763568394E-14  0.91188000000E+02  0.91188000000E+02 0.  0.
    9900012    2    3    3    0    0 -0.42357762760E+01  0.33972366149E+02  0.13554299271E+02  0.54367048204E+02  0.39999917992E+02 0.  0.
        -12    1    3    3    0    0  0.42357762760E+01 -0.33972366149E+02 -0.13554299271E+02  0.36820951796E+02  0.00000000000E+00 0.  1.
         11    1    4    4    0    0 -0.15249709024E+02  0.21747413522E+02  0.14584676147E+01  0.26601329821E+02  0.51100000000E-03 0. -1.
        -11    1    4    4    0    0  0.11976581504E+02  0.12835148560E+02  0.20715441213E+01  0.17676844695E+02  0.51100000000E-03 0.  1.
        -12    1    4    4    0    0 -0.96264875602E+00 -0.61019593368E+00  0.10024287535E+02  0.10088873688E+02  0.00000000000E+00 0.  1.
</event>
<event>
 8    1  0.2516265E-006  0.9118800E+02  0.7816164E-02  0.1184000E+00
        -11   -1    0    0    0    0  0.00000000000E+00  0.00000000000E+00  0.45593999997E+02  0.45594000000E+02  0.51100000000E-03 0.  1.
         11   -1    0    0    0    0 -0.00000000000E+00 -0.00000000000E+00 -0.45593999997E+02  0.45594000000E+02  0.51100000000E-03 0. -1.
         23    2    1    2    0    0 -0.88817841970E-15  0.17763568394E-14  0.00000000000E+00  0.91188000000E+02  0.91188000000E+02 0.  0.
    9900012    2    3    3    0    0  0.63947634321E+01  0.12910323418E+02  0.33885327171E+02  0.54367016206E+02  0.39999845044E+02 0.  0.
         12    1    3    3    0    0 -0.63947634321E+01 -0.12910323418E+02 -0.33885327171E+02  0.36820983794E+02  0.00000000000E+00 0. -1.
         11    1    4    4    0    0 -0.73231864092E+01  0.23006894795E+02  0.15405954241E+02  0.28640699950E+02  0.51100000000E-03 0. -1.
        -11    1    4    4    0    0 -0.12439209452E+00 -0.15131811472E+01  0.23931624944E+01  0.28341520007E+01  0.51100000000E-03 0.  1.
         12    1    4    4    0    0  0.13842341936E+02 -0.85833902297E+01  0.16086210436E+02  0.22892164255E+02  0.00000000000E+00 0. -1.
</event>
<event>
 8    1  0.2516265E-006  0.9118800E+02  0.7816164E-02  0.1184000E+00
        -11   -1    0    0    0    0  0.00000000000E+00  0.00000000000E+00  0.45593999997E+02  0.45594000000E+02  0.51100000000E-03 0. -1.
         11   -1    0    0    0    0 -0.00000000000E+00 -0.00000000000E+00 -0.45593999997E+02  0.45594000000E+02  0.51100000000E-03 0.  1.
         23    2    1    2    0    0  0.00000000000E+00  0.00000000000E+00  0.17763568394E-14  0.91188000000E+02  0.91188000000E+02 0.  0.
    9900012    2    3    3    0    0  0.28067782669E+02 -0.21700331251E+02  0.98526890950E+01  0.54367078193E+02  0.39999986356E+02 0.  0.
         12    1    3    3    0    0 -0.28067782669E+02  0.21700331251E+02 -0.98526890950E+01  0.36820921807E+02  0.00000000000E+00 0. -1.
         11    1    4    4    0    0  0.53680751424E+01 -0.96067730812E+00  0.68683180024E+01  0.87700013722E+01  0.51100000000E-03 0. -1.
        -11    1    4    4    0    0  0.26500769413E+01 -0.16841354382E+02  0.14295676900E+02  0.22249056238E+02  0.51100000000E-03 0.  1.
        -12    1    4    4    0    0  0.20049630585E+02 -0.38982995607E+01 -0.11311305807E+02  0.23348020583E+02  0.00000000000E+00 0.  1.
</event>
<event>
 8    1  0.2516265E-006  0.9118800E+02  0.7816164E-02  0.1184000E+00
        -11   -1    0    0    0    0  0.00000000000E+00  0.00000000000E+00  0.45593999997E+02  0.45594000000E+02  0.51100000000E-03 0.  1.
         11   -1    0    0    0    0 -0.00000000000E+00 -0.00000000000E+00 -0.45593999997E+02  0.45594000000E+02  0.51100000000E-03 0. -1.
         23    2    1    2    0    0  0.00000000000E+00  0.00000000000E+00  0.00000000000E+00  0.91188000000E+02  0.91188000000E+02 0.  0.
    9900012    2    3    3    0    0 -0.12453118781E+02  0.10801616454E+02  0.32924539085E+02  0.54367077153E+02  0.39999983985E+02 0.  0.
         12    1    3    3    0    0  0.12453118781E+02 -0.10801616454E+02 -0.32924539085E+02  0.36820922847E+02  0.00000000000E+00 0. -1.
         11    1    4    4    0    0 -0.42401104372E+01 -0.62747331767E+01 -0.16470502379E+01  0.77500701742E+01  0.51100000000E-03 0. -1.
        -11    1    4    4    0    0 -0.12496143616E+02  0.56778101594E+01  0.49509963998E+01  0.14591213078E+02  0.51100000000E-03 0.  1.
        -12    1    4    4    0    0  0.42831352721E+01  0.11398539471E+02  0.29620592923E+02  0.32025793900E+02  0.00000000000E+00 0.  1.
</event>
<event>
 8    1  0.2516265E-006  0.9118800E+02  0.7816164E-02  0.1184000E+00
        -11   -1    0    0    0    0  0.00000000000E+00  0.00000000000E+00  0.45593999997E+02  0.45594000000E+02  0.51100000000E-03 0. -1.
         11   -1    0    0    0    0 -0.00000000000E+00 -0.00000000000E+00 -0.45593999997E+02  0.45594000000E+02  0.51100000000E-03 0.  1.
         23    2    1    2    0    0  0.17763568394E-14 -0.35527136788E-14 -0.71054273576E-14  0.91188000000E+02  0.91188000000E+02 0.  0.
    9900012    2    3    3    0    0  0.45020169301E+01 -0.18382661008E+02 -0.31584733960E+02  0.54367003252E+02  0.39999815514E+02 0.  0.
         12    1    3    3    0    0 -0.45020169301E+01  0.18382661008E+02  0.31584733960E+02  0.36820996748E+02  0.00000000000E+00 0. -1.
         11    1    4    4    0    0  0.91436288808E+01 -0.79027441742E+01  0.36083282365E+01  0.12612666154E+02  0.51100000000E-03 0. -1.
        -11    1    4    4    0    0  0.36214917862E+01 -0.74461967635E+01 -0.30844139715E+02  0.31936217747E+02  0.51100000000E-03 0.  1.
         12    1    4    4    0    0 -0.82631037370E+01 -0.30337200707E+01 -0.43489224817E+01  0.98181193508E+01  0.00000000000E+00 0. -1.
</event>
<event>
 8    1  0.2516265E-006  0.9118800E+02  0.7816164E-02  0.1184000E+00
        -11   -1    0    0    0    0  0.00000000000E+00  0.00000000000E+00  0.45593999997E+02  0.45594000000E+02  0.51100000000E-03 0.  1.
         11   -1    0    0    0    0 -0.00000000000E+00 -0.00000000000E+00 -0.45593999997E+02  0.45594000000E+02  0.51100000000E-03 0. -1.
         23    2    1    2    0    0  0.71054273576E-14  0.00000000000E+00 -0.17763568394E-14  0.91188000000E+02  0.91188000000E+02 0.  0.
    9900012    2    3    3    0    0 -0.35104005391E+02 -0.79316193704E+01  0.77833831641E+01  0.54367043551E+02  0.39999907383E+02 0.  0.
         12    1    3    3    0    0  0.35104005391E+02  0.79316193704E+01 -0.77833831641E+01  0.36820956449E+02  0.00000000000E+00 0. -1.
         11    1    4    4    0    0 -0.12880346846E+02 -0.11194679762E+02 -0.13238438286E+02  0.21598158217E+02  0.51100000000E-03 0. -1.
        -11    1    4    4    0    0 -0.17235319003E+02 -0.35955496993E+00  0.94549978508E+01  0.19661700983E+02  0.51100000000E-03 0.  1.
         12    1    4    4    0    0 -0.49883395424E+01  0.36226153618E+01  0.11566823599E+02  0.13107184351E+02  0.00000000000E+00 0. -1.
</event>
<event>
 8    1  0.2516265E-006  0.9118800E+02  0.7816164E-02  0.1184000E+00
        -11   -1    0    0    0    0  0.00000000000E+00  0.00000000000E+00  0.45593999997E+02  0.45594000000E+02  0.51100000000E-03 0.  1.
         11   -1    0    0    0    0 -0.00000000000E+00 -0.00000000000E+00 -0.45593999997E+02  0.45594000000E+02  0.51100000000E-03 0. -1.
         23    2    1    2    0    0  0.11102230246E-14  0.00000000000E+00  0.35527136788E-14  0.91188000000E+02  0.91188000000E+02 0.  0.
    9900012    2    3    3    0    0 -0.32679259230E+00  0.23683858485E+02 -0.28191277138E+02  0.54367081315E+02  0.39999993473E+02 0.  0.
        -12    1    3    3    0    0  0.32679259230E+00 -0.23683858485E+02  0.28191277138E+02  0.36820918685E+02  0.00000000000E+00 0.  1.
         11    1    4    4    0    0  0.35618196474E+01 -0.50425172865E+01 -0.12279993332E+02  0.13744518045E+02  0.51100000000E-03 0. -1.
        -11    1    4    4    0    0 -0.12580153635E+02  0.10022472935E+02 -0.10799937001E+02  0.19373922389E+02  0.51100000000E-03 0.  1.
         12    1    4    4    0    0  0.86915413957E+01  0.18703902836E+02 -0.51113468045E+01  0.21248640881E+02  0.00000000000E+00 0. -1.
</event>
<event>
 8    1  0.2516265E-006  0.9118800E+02  0.7816164E-02  0.1184000E+00
        -11   -1    0    0    0    0  0.00000000000E+00  0.00000000000E+00  0.45593999997E+02  0.45594000000E+02  0.51100000000E-03 0. -1.
         11   -1    0    0    0    0 -0.00000000000E+00 -0.00000000000E+00 -0.45593999997E+02  0.45594000000E+02  0.51100000000E-03 0.  1.
         23    2    1    2    0    0 -0.13322676296E-14  0.00000000000E+00 -0.35527136788E-14  0.91188000000E+02  0.91188000000E+02 0.  0.
    9900012    2    3    3    0    0  0.21096676890E+01  0.21175291252E+02  0.30048901868E+02  0.54367079848E+02  0.39999990129E+02 0.  0.
        -12    1    3    3    0    0 -0.21096676890E+01 -0.21175291252E+02 -0.30048901868E+02  0.36820920152E+02  0.00000000000E+00 0.  1.
         11    1    4    4    0    0  0.75497485740E+01  0.51070151871E+01  0.63782166467E+01  0.11124835078E+02  0.51100000000E-03 0. -1.
        -11    1    4    4    0    0 -0.14136334197E+02  0.15340115492E+02  0.26808675405E+02  0.33968517263E+02  0.51100000000E-03 0.  1.
        -12    1    4    4    0    0  0.86962533118E+01  0.72816057337E+00 -0.31379901837E+01  0.92737275072E+01  0.00000000000E+00 0.  1.
</event>
<event>
 8    1  0.2516265E-006  0.9118800E+02  0.7816164E-02  0.1184000E+00
        -11   -1    0    0    0    0  0.00000000000E+00  0.00000000000E+00  0.45593999997E+02  0.45594000000E+02  0.51100000000E-03 0.  1.
         11   -1    0    0    0    0 -0.00000000000E+00 -0.00000000000E+00 -0.45593999997E+02  0.45594000000E+02  0.51100000000E-03 0. -1.
         23    2    1    2    0    0  0.71054273576E-14  0.17763568394E-14  0.00000000000E+00  0.91188000000E+02  0.91188000000E+02 0.  0.
    9900012    2    3    3    0    0 -0.33257931942E+02 -0.99406618031E+01 -0.12283032351E+02  0.54367086407E+02  0.40000005081E+02 0.  0.
        -12    1    3    3    0    0  0.33257931942E+02  0.99406618031E+01  0.12283032351E+02  0.36820913593E+02  0.00000000000E+00 0.  1.
         11    1    4    4    0    0 -0.33595979184E+02 -0.79874782493E+01 -0.89791279634E+01  0.35680728207E+02  0.51100000000E-03 0. -1.
        -11    1    4    4    0    0  0.68328208705E+01 -0.70802950165E+01 -0.34020761166E+01  0.10411154630E+02  0.51100000000E-03 0.  1.
        -12    1    4    4    0    0 -0.64947736281E+01  0.51271114627E+01  0.98171728667E-01  0.82752035697E+01  0.00000000000E+00 0.  1.
</event>
<event>
 8    1  0.2516265E-006  0.9118800E+02  0.7816164E-02  0.1184000E+00
        -11   -1    0    0    0    0  0.00000000000E+00  0.00000000000E+00  0.45593999997E+02  0.45594000000E+02  0.51100000000E-03 0.  1.
         11   -1    0    0    0    0 -0.00000000000E+00 -0.00000000000E+00 -0.45593999997E+02  0.45594000000E+02  0.51100000000E-03 0. -1.
         23    2    1    2    0    0  0.00000000000E+00  0.00000000000E+00 -0.17763568394E-14  0.91188000000E+02  0.91188000000E+02 0.  0.
    9900012    2    3    3    0    0  0.22423432857E+02  0.26126168350E+02  0.13053275711E+02  0.54367149650E+02  0.40000149257E+02 0.  0.
         12    1    3    3    0    0 -0.22423432857E+02 -0.26126168350E+02 -0.13053275711E+02  0.36820850350E+02  0.00000000000E+00 0. -1.
         11    1    4    4    0    0  0.25270829436E+01  0.17347501438E+02 -0.14584741474E+01  0.17591165438E+02  0.51100000000E-03 0. -1.
        -11    1    4    4    0    0  0.12433419775E+02 -0.13877529525E+01  0.19537615310E+02  0.23199874953E+02  0.51100000000E-03 0.  1.
        -12    1    4    4    0    0  0.74629301381E+01  0.10166419864E+02 -0.50258654514E+01  0.13576109260E+02  0.00000000000E+00 0.  1.
</event>
<event>
 8    1  0.2516265E-006  0.9118800E+02  0.7816164E-02  0.1184000E+00
        -11   -1    0    0    0    0  0.00000000000E+00  0.00000000000E+00  0.45593999997E+02  0.45594000000E+02  0.51100000000E-03 0.  1.
         11   -1    0    0    0    0 -0.00000000000E+00 -0.00000000000E+00 -0.45593999997E+02  0.45594000000E+02  0.51100000000E-03 0. -1.
         23    2    1    2    0    0  0.00000000000E+00  0.35527136788E-14 -0.88817841970E-15  0.91188000000E+02  0.91188000000E+02 0.  0.
    9900012    2    3    3    0    0 -0.23465894125E+02 -0.27701195976E+02 -0.61458886107E+01  0.54367131021E+02  0.40000106788E+02 0.  0.
         12    1    3    3    0    0  0.23465894125E+02  0.27701195976E+02  0.61458886107E+01  0.36820868979E+02  0.00000000000E+00 0. -1.
         11    1    4    4    0    0  0.11786546576E+01 -0.25127743826E+00  0.64010027290E+01  0.65134632379E+01  0.51100000000E-03 0. -1.
        -11    1    4    4    0    0 -0.14644966758E+02 -0.28910878710E+02 -0.17242926412E+02  0.36710114010E+02  0.51100000000E-03 0.  1.
        -12    1    4    4    0    0 -0.99995820242E+01  0.14609601723E+01  0.46960350721E+01  0.11143553773E+02  0.00000000000E+00 0.  1.
</event>
<event>
 8    1  0.2516265E-006  0.9118800E+02  0.7816164E-02  0.1184000E+00
        -11   -1    0    0    0    0  0.00000000000E+00  0.00000000000E+00  0.45593999997E+02  0.45594000000E+02  0.51100000000E-03 0. -1.
         11   -1    0    0    0    0 -0.00000000000E+00 -0.00000000000E+00 -0.45593999997E+02  0.45594000000E+02  0.51100000000E-03 0.  1.
         23    2    1    2    0    0 -0.71054273576E-14  0.00000000000E+00 -0.88817841970E-15  0.91188000000E+02  0.91188000000E+02 0.  0.
    9900012    2    3    3    0    0  0.35890556511E+02  0.60990910104E+01  0.55180578746E+01  0.54367083112E+02  0.39999997569E+02 0.  0.
         12    1    3    3    0    0 -0.35890556511E+02 -0.60990910104E+01 -0.55180578746E+01  0.36820916888E+02  0.00000000000E+00 0. -1.
         11    1    4    4    0    0  0.90522846260E+01  0.12712944586E+02 -0.65376310445E+01  0.16920503448E+02  0.51100000000E-03 0. -1.
        -11    1    4    4    0    0  0.27248602714E+02 -0.15292670289E+01  0.35402489994E+01  0.27520144817E+02  0.51100000000E-03 0.  1.
         12    1    4    4    0    0 -0.41033082942E+00 -0.50845865465E+01  0.85154399198E+01  0.99264348467E+01  0.00000000000E+00 0. -1.
</event>
<event>
 8    1  0.2516265E-006  0.9118800E+02  0.7816164E-02  0.1184000E+00
        -11   -1    0    0    0    0  0.00000000000E+00  0.00000000000E+00  0.45593999997E+02  0.45594000000E+02  0.51100000000E-03 0.  1.
         11   -1    0    0    0    0 -0.00000000000E+00 -0.00000000000E+00 -0.45593999997E+02  0.45594000000E+02  0.51100000000E-03 0. -1.
         23    2    1    2    0    0  0.00000000000E+00  0.00000000000E+00  0.00000000000E+00  0.91188000000E+02  0.91188000000E+02 0.  0.
    9900012    2    3    3    0    0  0.21980383135E+01  0.25793286580E+02  0.26185010177E+02  0.54367085250E+02  0.40000002445E+02 0.  0.
         12    1    3    3    0    0 -0.21980383135E+01 -0.25793286580E+02 -0.26185010177E+02  0.36820914750E+02  0.00000000000E+00 0. -1.
         11    1    4    4    0    0  0.49453601397E+00  0.66966998024E+01  0.18129972172E+02  0.19333552320E+02  0.51100000000E-03 0. -1.
        -11    1    4    4    0    0  0.58338756320E+01  0.24768728745E+02  0.10604994009E+02  0.27567914805E+02  0.51100000000E-03 0.  1.
         12    1    4    4    0    0 -0.41303733324E+01 -0.56721419671E+01 -0.25499560041E+01  0.74656181246E+01  0.00000000000E+00 0. -1.
</event>
<event>
 8    1  0.2516265E-006  0.9118800E+02  0.7816164E-02  0.1184000E+00
        -11   -1    0    0    0    0  0.00000000000E+00  0.00000000000E+00  0.45593999997E+02  0.45594000000E+02  0.51100000000E-03 0. -1.
         11   -1    0    0    0    0 -0.00000000000E+00 -0.00000000000E+00 -0.45593999997E+02  0.45594000000E+02  0.51100000000E-03 0.  1.
         23    2    1    2    0    0  0.00000000000E+00 -0.35527136788E-14 -0.71054273576E-14  0.91188000000E+02  0.91188000000E+02 0.  0.
    9900012    2    3    3    0    0 -0.13072369443E+02  0.22873762590E+02  0.25723214544E+02  0.54367087134E+02  0.40000006738E+02 0.  0.
        -12    1    3    3    0    0  0.13072369443E+02 -0.22873762590E+02 -0.25723214544E+02  0.36820912866E+02  0.00000000000E+00 0.  1.
         11    1    4    4    0    0 -0.12280181747E+02  0.33530642898E+01  0.18303924610E+01  0.12860646978E+02  0.51100000000E-03 0. -1.
        -11    1    4    4    0    0 -0.12209911625E+02  0.72198640223E+01  0.26441653523E+01  0.14429136810E+02  0.51100000000E-03 0.  1.
         12    1    4    4    0    0  0.11417723929E+02  0.12300834278E+02  0.21248656730E+02  0.27077303346E+02  0.00000000000E+00 0. -1.
</event>
<event>
 8    1  0.2516265E-006  0.9118800E+02  0.7816164E-02  0.1184000E+00
        -11   -1    0    0    0    0  0.00000000000E+00  0.00000000000E+00  0.45593999997E+02  0.45594000000E+02  0.51100000000E-03 0. -1.
         11   -1    0    0    0    0 -0.00000000000E+00 -0.00000000000E+00 -0.45593999997E+02  0.45594000000E+02  0.51100000000E-03 0.  1.
         23    2    1    2    0    0  0.00000000000E+00  0.17763568394E-14 -0.35527136788E-14  0.91188000000E+02  0.91188000000E+02 0.  0.
    9900012    2    3    3    0    0  0.16588259439E+02  0.15752569396E+02 -0.28852522064E+02  0.54367057273E+02  0.39999938666E+02 0.  0.
         12    1    3    3    0    0 -0.16588259439E+02 -0.15752569396E+02  0.28852522064E+02  0.36820942727E+02  0.00000000000E+00 0. -1.
         11    1    4    4    0    0  0.49622940653E+01  0.24854091424E+01 -0.25211419122E+01  0.60957179887E+01  0.51100000000E-03 0. -1.
        -11    1    4    4    0    0  0.24546003583E+02  0.61749484579E+01 -0.13272243080E+02  0.28579515689E+02  0.51100000000E-03 0.  1.
         12    1    4    4    0    0 -0.12920038209E+02  0.70922117957E+01 -0.13059137072E+02  0.19691823596E+02  0.00000000000E+00 0. -1.
</event>
<event>
 8    1  0.2516265E-006  0.9118800E+02  0.7816164E-02  0.1184000E+00
        -11   -1    0    0    0    0  0.00000000000E+00  0.00000000000E+00  0.45593999997E+02  0.45594000000E+02  0.51100000000E-03 0. -1.
         11   -1    0    0    0    0 -0.00000000000E+00 -0.00000000000E+00 -0.45593999997E+02  0.45594000000E+02  0.51100000000E-03 0.  1.
         23    2    1    2    0    0  0.00000000000E+00 -0.93675067703E-15  0.00000000000E+00  0.91188000000E+02  0.91188000000E+02 0.  0.
    9900012    2    3    3    0    0  0.36329693667E+02  0.48713084551E-01  0.59941733825E+01  0.54367093854E+02  0.40000022058E+02 0.  0.
        -12    1    3    3    0    0 -0.36329693667E+02 -0.48713084551E-01 -0.59941733825E+01  0.36820906146E+02  0.00000000000E+00 0.  1.
         11    1    4    4    0    0  0.63084078989E+01 -0.52583074530E+01  0.70547674921E+01  0.10826613142E+02  0.51100000000E-03 0. -1.
        -11    1    4    4    0    0 -0.15508340242E+01  0.91165378349E+01  0.59228133090E+01  0.10981624016E+02  0.51100000000E-03 0.  1.
         12    1    4    4    0    0  0.31572119792E+02 -0.38095172974E+01 -0.69834074186E+01  0.32558856696E+02  0.00000000000E+00 0. -1.
</event>
<event>
 8    1  0.2516265E-006  0.9118800E+02  0.7816164E-02  0.1184000E+00
        -11   -1    0    0    0    0  0.00000000000E+00  0.00000000000E+00  0.45593999997E+02  0.45594000000E+02  0.51100000000E-03 0.  1.
         11   -1    0    0    0    0 -0.00000000000E+00 -0.00000000000E+00 -0.45593999997E+02  0.45594000000E+02  0.51100000000E-03 0. -1.
         23    2    1    2    0    0 -0.35527136788E-14  0.00000000000E+00  0.00000000000E+00  0.91188000000E+02  0.91188000000E+02 0.  0.
    9900012    2    3    3    0    0 -0.27032746986E+02 -0.24672084226E+02 -0.40372128299E+01  0.54367078813E+02  0.39999987769E+02 0.  0.
        -12    1    3    3    0    0  0.27032746986E+02  0.24672084226E+02  0.40372128299E+01  0.36820921187E+02  0.00000000000E+00 0.  1.
         11    1    4    4    0    0 -0.20502542953E+01 -0.11865110588E+02  0.50770811930E+01  0.13067560814E+02  0.51100000000E-03 0. -1.
        -11    1    4    4    0    0  0.32873984317E+01  0.59545574400E+00  0.57591665980E+01  0.66580444693E+01  0.51100000000E-03 0.  1.
         12    1    4    4    0    0 -0.28269891122E+02 -0.13402429382E+02 -0.14873460621E+02  0.34641473529E+02  0.00000000000E+00 0. -1.
</event>
<event>
 8    1  0.2516265E-006  0.9118800E+02  0.7816164E-02  0.1184000E+00
        -11   -1    0    0    0    0  0.00000000000E+00  0.00000000000E+00  0.45593999997E+02  0.45594000000E+02  0.51100000000E-03 0.  1.
         11   -1    0    0    0    0 -0.00000000000E+00 -0.00000000000E+00 -0.45593999997E+02  0.45594000000E+02  0.51100000000E-03 0. -1.
         23    2    1    2    0    0 -0.17763568394E-14  0.35527136788E-14  0.35527136788E-14  0.91188000000E+02  0.91188000000E+02 0.  0.
    9900012    2    3    3    0    0  0.13900479870E+02 -0.23983251569E+02 -0.24235499325E+02  0.54367093928E+02  0.40000022228E+02 0.  0.
        -12    1    3    3    0    0 -0.13900479870E+02  0.23983251569E+02  0.24235499325E+02  0.36820906072E+02  0.00000000000E+00 0.  1.
         11    1    4    4    0    0  0.12924098963E+02  0.12977734958E+01  0.15142893810E+01  0.13077064756E+02  0.51100000000E-03 0. -1.
        -11    1    4    4    0    0  0.59030844515E+01  0.56923037479E+00 -0.40484540140E+01  0.71805577378E+01  0.51100000000E-03 0.  1.
        -12    1    4    4    0    0 -0.49267035442E+01 -0.25850255440E+02 -0.21701334692E+02  0.34109471434E+02  0.00000000000E+00 0.  1.
</event>
<event>
 8    1  0.2516265E-006  0.9118800E+02  0.7816164E-02  0.1184000E+00
        -11   -1    0    0    0    0  0.00000000000E+00  0.00000000000E+00  0.45593999997E+02  0.45594000000E+02  0.51100000000E-03 0.  1.
         11   -1    0    0    0    0 -0.00000000000E+00 -0.00000000000E+00 -0.45593999997E+02  0.45594000000E+02  0.51100000000E-03 0. -1.
         23    2    1    2    0    0  0.00000000000E+00  0.17763568394E-14 -0.33306690739E-15  0.91188000000E+02  0.91188000000E+02 0.  0.
    9900012    2    3    3    0    0 -0.35918358996E+02 -0.80888174938E+01  0.47115577790E+00  0.54367089240E+02  0.40000011540E+02 0.  0.
        -12    1    3    3    0    0  0.35918358996E+02  0.80888174938E+01 -0.47115577790E+00  0.36820910760E+02  0.00000000000E+00 0.  1.
         11    1    4    4    0    0 -0.29601109518E+02 -0.20949833993E+02 -0.36439280951E+01  0.36447214451E+02  0.51100000000E-03 0. -1.
        -11    1    4    4    0    0 -0.46288073330E+01  0.28606503016E+01  0.54369669408E+01  0.76921900166E+01  0.51100000000E-03 0.  1.
         12    1    4    4    0    0 -0.16884421453E+01  0.10000366197E+02 -0.13218830678E+01  0.10227684772E+02  0.00000000000E+00 0. -1.
</event>
<event>
 8    1  0.2516265E-006  0.9118800E+02  0.7816164E-02  0.1184000E+00
        -11   -1    0    0    0    0  0.00000000000E+00  0.00000000000E+00  0.45593999997E+02  0.45594000000E+02  0.51100000000E-03 0. -1.
         11   -1    0    0    0    0 -0.00000000000E+00 -0.00000000000E+00 -0.45593999997E+02  0.45594000000E+02  0.51100000000E-03 0.  1.
         23    2    1    2    0    0 -0.35527136788E-14  0.00000000000E+00 -0.35527136788E-14  0.91188000000E+02  0.91188000000E+02 0.  0.
    9900012    2    3    3    0    0 -0.21345623885E+02  0.20631227454E+02  0.21782944275E+02  0.54367083843E+02  0.39999999238E+02 0.  0.
         12    1    3    3    0    0  0.21345623885E+02 -0.20631227454E+02 -0.21782944275E+02  0.36820916157E+02  0.00000000000E+00 0. -1.
         11    1    4    4    0    0 -0.12985527212E+02 -0.19990900470E+01  0.17440870189E+01  0.13253758628E+02  0.51100000000E-03 0. -1.
        -11    1    4    4    0    0  0.79366014542E+01  0.33645030849E+01 -0.41577016372E+00  0.86303179977E+01  0.51100000000E-03 0.  1.
         12    1    4    4    0    0 -0.16296698127E+02  0.19265814416E+02  0.20454627420E+02  0.32483007217E+02  0.00000000000E+00 0. -1.
</event>
<event>
 8    1  0.2516265E-006  0.9118800E+02  0.7816164E-02  0.1184000E+00
        -11   -1    0    0    0    0  0.00000000000E+00  0.00000000000E+00  0.45593999997E+02  0.45594000000E+02  0.51100000000E-03 0.  1.
         11   -1    0    0    0    0 -0.00000000000E+00 -0.00000000000E+00 -0.45593999997E+02  0.45594000000E+02  0.51100000000E-03 0. -1.
         23    2    1    2    0    0  0.17763568394E-14 -0.17763568394E-14  0.00000000000E+00  0.91188000000E+02  0.91188000000E+02 0.  0.
    9900012    2    3    3    0    0  0.12153905104E+02 -0.11857797434E+02  0.32671925813E+02  0.54367088745E+02  0.40000010413E+02 0.  0.
         12    1    3    3    0    0 -0.12153905104E+02  0.11857797434E+02 -0.32671925813E+02  0.36820911255E+02  0.00000000000E+00 0. -1.
         11    1    4    4    0    0  0.10977035529E+02  0.11176995008E+02  0.10937295981E+02  0.19106150058E+02  0.51100000000E-03 0. -1.
        -11    1    4    4    0    0  0.82691318514E+01 -0.10603518529E+02  0.10924433584E+02  0.17325022256E+02  0.51100000000E-03 0.  1.
         12    1    4    4    0    0 -0.70922622763E+01 -0.12431273914E+02  0.10810196248E+02  0.17935916432E+02  0.00000000000E+00 0. -1.
</event>
<event>
 8    1  0.2516265E-006  0.9118800E+02  0.7816164E-02  0.1184000E+00
        -11   -1    0    0    0    0  0.00000000000E+00  0.00000000000E+00  0.45593999997E+02  0.45594000000E+02  0.51100000000E-03 0. -1.
         11   -1    0    0    0    0 -0.00000000000E+00 -0.00000000000E+00 -0.45593999997E+02  0.45594000000E+02  0.51100000000E-03 0.  1.
         23    2    1    2    0    0  0.35527136788E-14 -0.11102230246E-14  0.00000000000E+00  0.91188000000E+02  0.91188000000E+02 0.  0.
    9900012    2    3    3    0    0 -0.31880152582E+02 -0.16741442556E+01  0.18347548275E+02  0.54367089971E+02  0.40000013207E+02 0.  0.
        -12    1    3    3    0    0  0.31880152582E+02  0.16741442556E+01 -0.18347548275E+02  0.36820910029E+02  0.00000000000E+00 0.  1.
         11    1    4    4    0    0 -0.15361104730E+02 -0.15263477487E+02  0.15443472609E+02  0.26597709112E+02  0.51100000000E-03 0. -1.
        -11    1    4    4    0    0 -0.33932820521E+01  0.21921471305E+01  0.85794758404E+01  0.94829994245E+01  0.51100000000E-03 0.  1.
        -12    1    4    4    0    0 -0.13125765800E+02  0.11397186100E+02 -0.56754001745E+01  0.18286381435E+02  0.00000000000E+00 0.  1.
</event>
<event>
 8    1  0.2516265E-006  0.9118800E+02  0.7816164E-02  0.1184000E+00
        -11   -1    0    0    0    0  0.00000000000E+00  0.00000000000E+00  0.45593999997E+02  0.45594000000E+02  0.51100000000E-03 0. -1.
         11   -1    0    0    0    0 -0.00000000000E+00 -0.00000000000E+00 -0.45593999997E+02  0.45594000000E+02  0.51100000000E-03 0.  1.
         23    2    1    2    0    0  0.71054273576E-14  0.00000000000E+00  0.13322676296E-14  0.91188000000E+02  0.91188000000E+02 0.  0.
    9900012    2    3    3    0    0  0.34747905282E+02  0.11746843156E+02  0.32210270798E+01  0.54367078487E+02  0.39999987027E+02 0.  0.
        -12    1    3    3    0    0 -0.34747905282E+02 -0.11746843156E+02 -0.32210270798E+01  0.36820921513E+02  0.00000000000E+00 0.  1.
         11    1    4    4    0    0  0.19310516171E+02 -0.47380651912E+01 -0.17939806458E+01  0.19964059290E+02  0.51100000000E-03 0. -1.
        -11    1    4    4    0    0  0.92424304575E+01  0.11673456796E+02  0.15378728988E+02  0.21405546475E+02  0.51100000000E-03 0.  1.
        -12    1    4    4    0    0  0.61949586536E+01  0.48114515508E+01 -0.10363721263E+02  0.12997472722E+02  0.00000000000E+00 0.  1.
</event>
<event>
 8    1  0.2516265E-006  0.9118800E+02  0.7816164E-02  0.1184000E+00
        -11   -1    0    0    0    0  0.00000000000E+00  0.00000000000E+00  0.45593999997E+02  0.45594000000E+02  0.51100000000E-03 0.  1.
         11   -1    0    0    0    0 -0.00000000000E+00 -0.00000000000E+00 -0.45593999997E+02  0.45594000000E+02  0.51100000000E-03 0. -1.
         23    2    1    2    0    0 -0.35527136788E-14  0.71054273576E-14 -0.88817841970E-15  0.91188000000E+02  0.91188000000E+02 0.  0.
    9900012    2    3    3    0    0  0.81586478145E+01 -0.35479152013E+02  0.55168616968E+01  0.54367224279E+02  0.40000319387E+02 0.  0.
         12    1    3    3    0    0 -0.81586478145E+01  0.35479152013E+02 -0.55168616968E+01  0.36820775721E+02  0.00000000000E+00 0. -1.
         11    1    4    4    0    0 -0.28263420380E+01 -0.19062922191E+01 -0.40671536562E+00  0.34333040923E+01  0.51100000000E-03 0. -1.
        -11    1    4    4    0    0  0.85409863093E+01 -0.71018664673E+01  0.18458696299E+02  0.21543175805E+02  0.51100000000E-03 0.  1.
         12    1    4    4    0    0  0.24440035433E+01 -0.26470993327E+02 -0.12535119236E+02  0.29390744381E+02  0.00000000000E+00 0. -1.
</event>
<event>
 8    1  0.2516265E-006  0.9118800E+02  0.7816164E-02  0.1184000E+00
        -11   -1    0    0    0    0  0.00000000000E+00  0.00000000000E+00  0.45593999997E+02  0.45594000000E+02  0.51100000000E-03 0. -1.
         11   -1    0    0    0    0 -0.00000000000E+00 -0.00000000000E+00 -0.45593999997E+02  0.45594000000E+02  0.51100000000E-03 0.  1.
         23    2    1    2    0    0 -0.35527136788E-14 -0.35527136788E-14  0.17763568394E-14  0.91188000000E+02  0.91188000000E+02 0.  0.
    9900012    2    3    3    0    0 -0.20350350374E+02  0.27779902742E+02  0.13035310196E+02  0.54367094680E+02  0.40000023942E+02 0.  0.
        -12    1    3    3    0    0  0.20350350374E+02 -0.27779902742E+02 -0.13035310196E+02  0.36820905320E+02  0.00000000000E+00 0.  1.
         11    1    4    4    0    0  0.63618026288E+00  0.94630225522E+01  0.44607247792E+01  0.10481010780E+02  0.51100000000E-03 0. -1.
        -11    1    4    4    0    0 -0.55858215907E+01 -0.75907580232E+01  0.99634400028E+01  0.13714632593E+02  0.51100000000E-03 0.  1.
        -12    1    4    4    0    0 -0.15400709046E+02  0.25907638213E+02 -0.13888545863E+01  0.30171451307E+02  0.00000000000E+00 0.  1.
</event>
<event>
 8    1  0.2516265E-006  0.9118800E+02  0.7816164E-02  0.1184000E+00
        -11   -1    0    0    0    0  0.00000000000E+00  0.00000000000E+00  0.45593999997E+02  0.45594000000E+02  0.51100000000E-03 0.  1.
         11   -1    0    0    0    0 -0.00000000000E+00 -0.00000000000E+00 -0.45593999997E+02  0.45594000000E+02  0.51100000000E-03 0. -1.
         23    2    1    2    0    0  0.00000000000E+00  0.00000000000E+00  0.35527136788E-14  0.91188000000E+02  0.91188000000E+02 0.  0.
    9900012    2    3    3    0    0  0.15226548479E+02  0.11777045909E+02 -0.31388433548E+02  0.54367077285E+02  0.39999984287E+02 0.  0.
        -12    1    3    3    0    0 -0.15226548479E+02 -0.11777045909E+02  0.31388433548E+02  0.36820922715E+02  0.00000000000E+00 0.  1.
         11    1    4    4    0    0  0.67194127441E+01  0.28711286107E+01 -0.87184585814E+01  0.11375649758E+02  0.51100000000E-03 0. -1.
        -11    1    4    4    0    0 -0.12956678834E+02  0.74513188034E+01 -0.10600386567E+02  0.18323915355E+02  0.51100000000E-03 0.  1.
        -12    1    4    4    0    0  0.21463814569E+02  0.14545984953E+01 -0.12069588400E+02  0.24667512172E+02  0.00000000000E+00 0.  1.
</event>
<event>
 8    1  0.2516265E-006  0.9118800E+02  0.7816164E-02  0.1184000E+00
        -11   -1    0    0    0    0  0.00000000000E+00  0.00000000000E+00  0.45593999997E+02  0.45594000000E+02  0.51100000000E-03 0.  1.
         11   -1    0    0    0    0 -0.00000000000E+00 -0.00000000000E+00 -0.45593999997E+02  0.45594000000E+02  0.51100000000E-03 0. -1.
         23    2    1    2    0    0  0.88817841970E-15  0.00000000000E+00  0.00000000000E+00  0.91188000000E+02  0.91188000000E+02 0.  0.
    9900012    2    3    3    0    0 -0.59505712203E+01  0.19287870070E+02 -0.30795276241E+02  0.54367078387E+02  0.39999986798E+02 0.  0.
        -12    1    3    3    0    0  0.59505712203E+01 -0.19287870070E+02  0.30795276241E+02  0.36820921613E+02  0.00000000000E+00 0.  1.
         11    1    4    4    0    0 -0.12905868095E+01  0.19584523246E+02 -0.32501987473E+01  0.19894294590E+02  0.51100000000E-03 0.  1.
        -11    1    4    4    0    0 -0.15148018349E+01 -0.67734629711E+01 -0.10536068691E+01  0.70202929366E+01  0.51100000000E-03 0. -1.
         12    1    4    4    0    0 -0.31451825759E+01  0.64768097956E+01 -0.26491470625E+02  0.27452490860E+02  0.00000000000E+00 0. -1.
</event>
<event>
 8    1  0.2516265E-006  0.9118800E+02  0.7816164E-02  0.1184000E+00
        -11   -1    0    0    0    0  0.00000000000E+00  0.00000000000E+00  0.45593999997E+02  0.45594000000E+02  0.51100000000E-03 0.  1.
         11   -1    0    0    0    0 -0.00000000000E+00 -0.00000000000E+00 -0.45593999997E+02  0.45594000000E+02  0.51100000000E-03 0. -1.
         23    2    1    2    0    0  0.44408920985E-15 -0.71054273576E-14 -0.17763568394E-14  0.91188000000E+02  0.91188000000E+02 0.  0.
    9900012    2    3    3    0    0  0.13807906904E+01  0.34588541696E+02 -0.12550144937E+02  0.54367082880E+02  0.39999997042E+02 0.  0.
         12    1    3    3    0    0 -0.13807906904E+01 -0.34588541696E+02  0.12550144937E+02  0.36820917120E+02  0.00000000000E+00 0. -1.
         11    1    4    4    0    0 -0.76638015242E+01  0.11657698913E+02 -0.10989038549E+02  0.17759357146E+02  0.51100000000E-03 0. -1.
        -11    1    4    4    0    0  0.38573409318E+01  0.14917068363E+01 -0.11642563864E+02  0.12355305012E+02  0.51100000000E-03 0.  1.
        -12    1    4    4    0    0  0.51872512829E+01  0.21439135947E+02  0.10081457476E+02  0.24252420722E+02  0.00000000000E+00 0.  1.
</event>
<event>
 8    1  0.2516265E-006  0.9118800E+02  0.7816164E-02  0.1184000E+00
        -11   -1    0    0    0    0  0.00000000000E+00  0.00000000000E+00  0.45593999997E+02  0.45594000000E+02  0.51100000000E-03 0. -1.
         11   -1    0    0    0    0 -0.00000000000E+00 -0.00000000000E+00 -0.45593999997E+02  0.45594000000E+02  0.51100000000E-03 0.  1.
         23    2    1    2    0    0  0.00000000000E+00 -0.17763568394E-14  0.17763568394E-14  0.91188000000E+02  0.91188000000E+02 0.  0.
    9900012    2    3    3    0    0 -0.32750476179E+02  0.66976381477E+01  0.15437902917E+02  0.54367069903E+02  0.39999967458E+02 0.  0.
         12    1    3    3    0    0  0.32750476179E+02 -0.66976381477E+01 -0.15437902917E+02  0.36820930097E+02  0.00000000000E+00 0. -1.
         11    1    4    4    0    0 -0.20729728044E+02  0.18075836097E+01  0.40375991003E+00  0.20812304188E+02  0.51100000000E-03 0. -1.
        -11    1    4    4    0    0 -0.89500048313E+01 -0.71892865333E+01 -0.27816617372E+01  0.11812115375E+02  0.51100000000E-03 0.  1.
         12    1    4    4    0    0 -0.30707433041E+01  0.12079341071E+02  0.17815804744E+02  0.21742650341E+02  0.00000000000E+00 0. -1.
</event>
<event>
 8    1  0.2516265E-006  0.9118800E+02  0.7816164E-02  0.1184000E+00
        -11   -1    0    0    0    0  0.00000000000E+00  0.00000000000E+00  0.45593999997E+02  0.45594000000E+02  0.51100000000E-03 0. -1.
         11   -1    0    0    0    0 -0.00000000000E+00 -0.00000000000E+00 -0.45593999997E+02  0.45594000000E+02  0.51100000000E-03 0.  1.
         23    2    1    2    0    0  0.00000000000E+00 -0.19984014443E-14  0.00000000000E+00  0.91188000000E+02  0.91188000000E+02 0.  0.
    9900012    2    3    3    0    0 -0.29223147611E+02  0.15749109119E+01 -0.22345189617E+02  0.54367079320E+02  0.39999988927E+02 0.  0.
        -12    1    3    3    0    0  0.29223147611E+02 -0.15749109119E+01  0.22345189617E+02  0.36820920680E+02  0.00000000000E+00 0.  1.
         11    1    4    4    0    0 -0.32545584231E+01 -0.94894340622E+00 -0.16642062480E+01  0.37765363515E+01  0.51100000000E-03 0.  1.
        -11    1    4    4    0    0 -0.20143046780E+02 -0.83815519974E+01  0.47365053665E+01  0.22325483888E+02  0.51100000000E-03 0. -1.
        -12    1    4    4    0    0 -0.58255424078E+01  0.10905406315E+02 -0.25417488735E+02  0.28265059081E+02  0.00000000000E+00 0.  1.
</event>
<event>
 8    1  0.2516265E-006  0.9118800E+02  0.7816164E-02  0.1184000E+00
        -11   -1    0    0    0    0  0.00000000000E+00  0.00000000000E+00  0.45593999997E+02  0.45594000000E+02  0.51100000000E-03 0.  1.
         11   -1    0    0    0    0 -0.00000000000E+00 -0.00000000000E+00 -0.45593999997E+02  0.45594000000E+02  0.51100000000E-03 0. -1.
         23    2    1    2    0    0 -0.35527136788E-14  0.35527136788E-14  0.17763568394E-14  0.91188000000E+02  0.91188000000E+02 0.  0.
    9900012    2    3    3    0    0 -0.18372829263E+02  0.30154788327E+02  0.10435903837E+02  0.54367079275E+02  0.39999988823E+02 0.  0.
         12    1    3    3    0    0  0.18372829263E+02 -0.30154788327E+02 -0.10435903837E+02  0.36820920725E+02  0.00000000000E+00 0. -1.
         11    1    4    4    0    0  0.97671589579E+01  0.72003530073E+01  0.74093234202E+01  0.14217614123E+02  0.51100000000E-03 0. -1.
        -11    1    4    4    0    0 -0.57570519523E+01  0.31766319591E+01  0.74701127357E+01  0.99517446878E+01  0.51100000000E-03 0.  1.
        -12    1    4    4    0    0 -0.22382936268E+02  0.19777803361E+02 -0.44435323193E+01  0.30197720464E+02  0.00000000000E+00 0.  1.
</event>
<event>
 8    1  0.2516265E-006  0.9118800E+02  0.7816164E-02  0.1184000E+00
        -11   -1    0    0    0    0  0.00000000000E+00  0.00000000000E+00  0.45593999997E+02  0.45594000000E+02  0.51100000000E-03 0.  1.
         11   -1    0    0    0    0 -0.00000000000E+00 -0.00000000000E+00 -0.45593999997E+02  0.45594000000E+02  0.51100000000E-03 0. -1.
         23    2    1    2    0    0  0.35527136788E-14  0.00000000000E+00 -0.35527136788E-14  0.91188000000E+02  0.91188000000E+02 0.  0.
    9900012    2    3    3    0    0  0.22407981810E+02 -0.11933456085E+02  0.26669397436E+02  0.54367057826E+02  0.39999939927E+02 0.  0.
         12    1    3    3    0    0 -0.22407981810E+02  0.11933456085E+02 -0.26669397436E+02  0.36820942174E+02  0.00000000000E+00 0. -1.
         11    1    4    4    0    0  0.62426041336E+01 -0.14147962987E+02  0.19618080986E+01  0.15587932972E+02  0.51100000000E-03 0. -1.
        -11    1    4    4    0    0 -0.11737648473E+01  0.81199810327E+01  0.23116021992E+00  0.82076337148E+01  0.51100000000E-03 0.  1.
        -12    1    4    4    0    0  0.17339142524E+02 -0.59054741304E+01  0.24476429118E+02  0.30571491140E+02  0.00000000000E+00 0.  1.
</event>
<event>
 8    1  0.2516265E-006  0.9118800E+02  0.7816164E-02  0.1184000E+00
        -11   -1    0    0    0    0  0.00000000000E+00  0.00000000000E+00  0.45593999997E+02  0.45594000000E+02  0.51100000000E-03 0. -1.
         11   -1    0    0    0    0 -0.00000000000E+00 -0.00000000000E+00 -0.45593999997E+02  0.45594000000E+02  0.51100000000E-03 0.  1.
         23    2    1    2    0    0  0.88817841970E-15  0.00000000000E+00  0.13322676296E-14  0.91188000000E+02  0.91188000000E+02 0.  0.
    9900012    2    3    3    0    0  0.44318448607E+01 -0.36471451289E+02 -0.24439485203E+01  0.54367069915E+02  0.39999967485E+02 0.  0.
         12    1    3    3    0    0 -0.44318448607E+01  0.36471451289E+02  0.24439485203E+01  0.36820930085E+02  0.00000000000E+00 0. -1.
         11    1    4    4    0    0  0.10788899354E+02 -0.10221130698E+02  0.12133526551E+02  0.19185784551E+02  0.51100000000E-03 0. -1.
        -11    1    4    4    0    0  0.32111285509E+01 -0.15230454221E+02 -0.13401871810E+02  0.20539918467E+02  0.51100000000E-03 0.  1.
         12    1    4    4    0    0 -0.95681830442E+01 -0.11019866369E+02 -0.11756032618E+01  0.14641366896E+02  0.00000000000E+00 0. -1.
</event>
<event>
 8    1  0.2516265E-006  0.9118800E+02  0.7816164E-02  0.1184000E+00
        -11   -1    0    0    0    0  0.00000000000E+00  0.00000000000E+00  0.45593999997E+02  0.45594000000E+02  0.51100000000E-03 0.  1.
         11   -1    0    0    0    0 -0.00000000000E+00 -0.00000000000E+00 -0.45593999997E+02  0.45594000000E+02  0.51100000000E-03 0. -1.
         23    2    1    2    0    0 -0.35527136788E-14  0.00000000000E+00  0.00000000000E+00  0.91188000000E+02  0.91188000000E+02 0.  0.
    9900012    2    3    3    0    0 -0.31254953027E+02  0.66366637958E+01  0.18299245251E+02  0.54367085131E+02  0.40000002172E+02 0.  0.
         12    1    3    3    0    0  0.31254953027E+02 -0.66366637958E+01 -0.18299245251E+02  0.36820914869E+02  0.00000000000E+00 0. -1.
         11    1    4    4    0    0 -0.11426182844E+02  0.70234128639E+01 -0.11408642760E+02  0.17608041133E+02  0.51100000000E-03 0. -1.
        -11    1    4    4    0    0 -0.15494015820E+02  0.75844549215E+00  0.15782868314E+02  0.22130040630E+02  0.51100000000E-03 0.  1.
         12    1    4    4    0    0 -0.43347543632E+01 -0.11451945603E+01  0.13925019697E+02  0.14629003368E+02  0.00000000000E+00 0. -1.
</event>
<event>
 8    1  0.2516265E-006  0.9118800E+02  0.7816164E-02  0.1184000E+00
        -11   -1    0    0    0    0  0.00000000000E+00  0.00000000000E+00  0.45593999997E+02  0.45594000000E+02  0.51100000000E-03 0. -1.
         11   -1    0    0    0    0 -0.00000000000E+00 -0.00000000000E+00 -0.45593999997E+02  0.45594000000E+02  0.51100000000E-03 0.  1.
         23    2    1    2    0    0  0.00000000000E+00  0.00000000000E+00 -0.35527136788E-14  0.91188000000E+02  0.91188000000E+02 0.  0.
    9900012    2    3    3    0    0 -0.25071209720E+02  0.24320042584E+02 -0.11651227684E+02  0.54367066624E+02  0.39999959982E+02 0.  0.
         12    1    3    3    0    0  0.25071209720E+02 -0.24320042584E+02  0.11651227684E+02  0.36820933376E+02  0.00000000000E+00 0. -1.
         11    1    4    4    0    0 -0.10359648590E+02  0.95184136680E+00  0.95395078617E+01  0.14114904583E+02  0.51100000000E-03 0. -1.
        -11    1    4    4    0    0 -0.18377348860E+01  0.72638286060E+01 -0.17858979816E+02  0.19367076079E+02  0.51100000000E-03 0.  1.
         12    1    4    4    0    0 -0.12873826244E+02  0.16104372612E+02 -0.33317557305E+01  0.20885085962E+02  0.00000000000E+00 0. -1.
</event>
<event>
 8    1  0.2516265E-006  0.9118800E+02  0.7816164E-02  0.1184000E+00
        -11   -1    0    0    0    0  0.00000000000E+00  0.00000000000E+00  0.45593999997E+02  0.45594000000E+02  0.51100000000E-03 0. -1.
         11   -1    0    0    0    0 -0.00000000000E+00 -0.00000000000E+00 -0.45593999997E+02  0.45594000000E+02  0.51100000000E-03 0.  1.
         23    2    1    2    0    0  0.00000000000E+00 -0.35527136788E-14  0.00000000000E+00  0.91188000000E+02  0.91188000000E+02 0.  0.
    9900012    2    3    3    0    0 -0.83348527008E+01  0.28629703024E+02 -0.21602104677E+02  0.54367074003E+02  0.39999976805E+02 0.  0.
         12    1    3    3    0    0  0.83348527008E+01 -0.28629703024E+02  0.21602104677E+02  0.36820925997E+02  0.00000000000E+00 0. -1.
         11    1    4    4    0    0 -0.28116764747E+01 -0.56693420459E+01  0.24709275401E+00  0.63330892084E+01  0.51100000000E-03 0. -1.
        -11    1    4    4    0    0  0.21492508548E+01 -0.28244892084E+01 -0.59469257949E+01  0.69255285139E+01  0.51100000000E-03 0.  1.
        -12    1    4    4    0    0 -0.76724270808E+01  0.37123534278E+02 -0.15902271636E+02  0.41108456281E+02  0.00000000000E+00 0.  1.
</event>
<event>
 8    1  0.2516265E-006  0.9118800E+02  0.7816164E-02  0.1184000E+00
        -11   -1    0    0    0    0  0.00000000000E+00  0.00000000000E+00  0.45593999997E+02  0.45594000000E+02  0.51100000000E-03 0.  1.
         11   -1    0    0    0    0 -0.00000000000E+00 -0.00000000000E+00 -0.45593999997E+02  0.45594000000E+02  0.51100000000E-03 0. -1.
         23    2    1    2    0    0  0.00000000000E+00  0.00000000000E+00  0.35527136788E-14  0.91188000000E+02  0.91188000000E+02 0.  0.
    9900012    2    3    3    0    0  0.12182353237E+02  0.21121477828E+02  0.27590833368E+02  0.54367073315E+02  0.39999975236E+02 0.  0.
         12    1    3    3    0    0 -0.12182353237E+02 -0.21121477828E+02 -0.27590833368E+02  0.36820926685E+02  0.00000000000E+00 0. -1.
         11    1    4    4    0    0  0.14829055508E+02  0.19855418506E+01  0.23342596625E+02  0.27725801723E+02  0.51100000000E-03 0. -1.
        -11    1    4    4    0    0  0.13320304657E+01 -0.15902398804E+01  0.51142046562E+01  0.55189000322E+01  0.51100000000E-03 0.  1.
         12    1    4    4    0    0 -0.39787327370E+01  0.20726175858E+02 -0.86596791327E+00  0.21122371560E+02  0.00000000000E+00 0. -1.
</event>
<event>
 8    1  0.2516265E-006  0.9118800E+02  0.7816164E-02  0.1184000E+00
        -11   -1    0    0    0    0  0.00000000000E+00  0.00000000000E+00  0.45593999997E+02  0.45594000000E+02  0.51100000000E-03 0.  1.
         11   -1    0    0    0    0 -0.00000000000E+00 -0.00000000000E+00 -0.45593999997E+02  0.45594000000E+02  0.51100000000E-03 0. -1.
         23    2    1    2    0    0  0.53290705182E-14  0.88817841970E-15  0.00000000000E+00  0.91188000000E+02  0.91188000000E+02 0.  0.
    9900012    2    3    3    0    0 -0.15910550708E+02 -0.53714439068E+01 -0.32768603464E+02  0.54367090092E+02  0.40000013482E+02 0.  0.
        -12    1    3    3    0    0  0.15910550708E+02  0.53714439068E+01  0.32768603464E+02  0.36820909908E+02  0.00000000000E+00 0.  1.
         11    1    4    4    0    0  0.51792056759E+01  0.10894455610E+02 -0.21890552451E+02  0.24994191752E+02  0.51100000000E-03 0. -1.
        -11    1    4    4    0    0 -0.22322686518E+01 -0.15450280690E+01  0.68809601035E+00  0.28006448272E+01  0.51100000000E-03 0.  1.
         12    1    4    4    0    0 -0.18857487732E+02 -0.14720871447E+02 -0.11566147023E+02  0.26572253512E+02  0.00000000000E+00 0. -1.
</event>
<event>
 8    1  0.2516265E-006  0.9118800E+02  0.7816164E-02  0.1184000E+00
        -11   -1    0    0    0    0  0.00000000000E+00  0.00000000000E+00  0.45593999997E+02  0.45594000000E+02  0.51100000000E-03 0. -1.
         11   -1    0    0    0    0 -0.00000000000E+00 -0.00000000000E+00 -0.45593999997E+02  0.45594000000E+02  0.51100000000E-03 0.  1.
         23    2    1    2    0    0  0.71054273576E-14  0.22204460493E-15  0.88817841970E-15  0.91188000000E+02  0.91188000000E+02 0.  0.
    9900012    2    3    3    0    0  0.36348208162E+02  0.14653212918E+00 -0.58793076919E+01  0.54367082477E+02  0.39999996123E+02 0.  0.
         12    1    3    3    0    0 -0.36348208162E+02 -0.14653212918E+00  0.58793076919E+01  0.36820917523E+02  0.00000000000E+00 0. -1.
         11    1    4    4    0    0 -0.24454727183E+00 -0.14558397665E+01  0.51952601226E+01  0.54009259203E+01  0.51100000000E-03 0. -1.
        -11    1    4    4    0    0  0.32005030149E+02 -0.32361178948E+01  0.40643249993E+01  0.32423959533E+02  0.51100000000E-03 0.  1.
         12    1    4    4    0    0  0.45877252856E+01  0.48384897905E+01 -0.15138892814E+02  0.16542197024E+02  0.00000000000E+00 0. -1.
</event>
<event>
 8    1  0.2516265E-006  0.9118800E+02  0.7816164E-02  0.1184000E+00
        -11   -1    0    0    0    0  0.00000000000E+00  0.00000000000E+00  0.45593999997E+02  0.45594000000E+02  0.51100000000E-03 0.  1.
         11   -1    0    0    0    0 -0.00000000000E+00 -0.00000000000E+00 -0.45593999997E+02  0.45594000000E+02  0.51100000000E-03 0. -1.
         23    2    1    2    0    0  0.00000000000E+00  0.35527136788E-14 -0.17763568394E-14  0.91188000000E+02  0.91188000000E+02 0.  0.
    9900012    2    3    3    0    0 -0.34134598765E+02 -0.12312492720E+02  0.62459358174E+01  0.54367081705E+02  0.39999994363E+02 0.  0.
        -12    1    3    3    0    0  0.34134598765E+02  0.12312492720E+02 -0.62459358174E+01  0.36820918295E+02  0.00000000000E+00 0.  1.
         11    1    4    4    0    0  0.46551146046E+00 -0.80449571563E+01  0.30442219210E+01  0.86142512113E+01  0.51100000000E-03 0. -1.
        -11    1    4    4    0    0 -0.22938467674E+02  0.26000077050E+01  0.15221761138E+02  0.27652040642E+02  0.51100000000E-03 0.  1.
         12    1    4    4    0    0 -0.11661642552E+02 -0.68675432690E+01 -0.12020047241E+02  0.18100789852E+02  0.00000000000E+00 0. -1.
</event>
<event>
 8    1  0.2516265E-006  0.9118800E+02  0.7816164E-02  0.1184000E+00
        -11   -1    0    0    0    0  0.00000000000E+00  0.00000000000E+00  0.45593999997E+02  0.45594000000E+02  0.51100000000E-03 0.  1.
         11   -1    0    0    0    0 -0.00000000000E+00 -0.00000000000E+00 -0.45593999997E+02  0.45594000000E+02  0.51100000000E-03 0. -1.
         23    2    1    2    0    0  0.00000000000E+00  0.00000000000E+00  0.00000000000E+00  0.91188000000E+02  0.91188000000E+02 0.  0.
    9900012    2    3    3    0    0  0.90619802204E+01  0.87771929513E+01 -0.34592229951E+02  0.54367068798E+02  0.39999964939E+02 0.  0.
        -12    1    3    3    0    0 -0.90619802204E+01 -0.87771929513E+01  0.34592229951E+02  0.36820931202E+02  0.00000000000E+00 0.  1.
         11    1    4    4    0    0  0.79271589628E+01  0.10008318703E+02 -0.20774243072E+02  0.24383918224E+02  0.51100000000E-03 0. -1.
        -11    1    4    4    0    0 -0.11583115736E+02  0.12249481584E+01 -0.12302813811E+02  0.16941909458E+02  0.51100000000E-03 0.  1.
         12    1    4    4    0    0  0.12717936993E+02 -0.24560739100E+01 -0.15151730675E+01  0.13041241116E+02  0.00000000000E+00 0. -1.
</event>
<event>
 8    1  0.2516265E-006  0.9118800E+02  0.7816164E-02  0.1184000E+00
        -11   -1    0    0    0    0  0.00000000000E+00  0.00000000000E+00  0.45593999997E+02  0.45594000000E+02  0.51100000000E-03 0.  1.
         11   -1    0    0    0    0 -0.00000000000E+00 -0.00000000000E+00 -0.45593999997E+02  0.45594000000E+02  0.51100000000E-03 0. -1.
         23    2    1    2    0    0  0.00000000000E+00  0.00000000000E+00  0.00000000000E+00  0.91188000000E+02  0.91188000000E+02 0.  0.
    9900012    2    3    3    0    0 -0.52722422258E+01 -0.31510496430E+02  0.18304989287E+02  0.54367074481E+02  0.39999977893E+02 0.  0.
         12    1    3    3    0    0  0.52722422258E+01  0.31510496430E+02 -0.18304989287E+02  0.36820925519E+02  0.00000000000E+00 0. -1.
         11    1    4    4    0    0  0.42064352957E+01 -0.21029610181E+01 -0.14618422800E+01  0.49247869043E+01  0.51100000000E-03 0. -1.
        -11    1    4    4    0    0  0.12105882093E+02 -0.14592602796E+02  0.10481832213E+02  0.21664838896E+02  0.51100000000E-03 0.  1.
         12    1    4    4    0    0 -0.21584559615E+02 -0.14814932616E+02  0.92849993537E+01  0.27777448680E+02  0.00000000000E+00 0. -1.
</event>
<event>
 8    1  0.2516265E-006  0.9118800E+02  0.7816164E-02  0.1184000E+00
        -11   -1    0    0    0    0  0.00000000000E+00  0.00000000000E+00  0.45593999997E+02  0.45594000000E+02  0.51100000000E-03 0.  1.
         11   -1    0    0    0    0 -0.00000000000E+00 -0.00000000000E+00 -0.45593999997E+02  0.45594000000E+02  0.51100000000E-03 0. -1.
         23    2    1    2    0    0  0.00000000000E+00  0.00000000000E+00  0.35527136788E-14  0.91188000000E+02  0.91188000000E+02 0.  0.
    9900012    2    3    3    0    0 -0.54470868288E+01  0.23690966250E+02 -0.27655884700E+02  0.54367073949E+02  0.39999976681E+02 0.  0.
        -12    1    3    3    0    0  0.54470868288E+01 -0.23690966250E+02  0.27655884700E+02  0.36820926051E+02  0.00000000000E+00 0.  1.
         11    1    4    4    0    0 -0.46124848968E+01  0.25157447382E+02 -0.15506856435E+02  0.29910445875E+02  0.51100000000E-03 0. -1.
        -11    1    4    4    0    0 -0.29799352352E+01  0.93064446041E+01 -0.82881324622E+01  0.12813393975E+02  0.51100000000E-03 0.  1.
        -12    1    4    4    0    0  0.21453333031E+01 -0.10772925736E+02 -0.38608958023E+01  0.11643234099E+02  0.00000000000E+00 0.  1.
</event>
<event>
 8    1  0.2516265E-006  0.9118800E+02  0.7816164E-02  0.1184000E+00
        -11   -1    0    0    0    0  0.00000000000E+00  0.00000000000E+00  0.45593999997E+02  0.45594000000E+02  0.51100000000E-03 0.  1.
         11   -1    0    0    0    0 -0.00000000000E+00 -0.00000000000E+00 -0.45593999997E+02  0.45594000000E+02  0.51100000000E-03 0. -1.
         23    2    1    2    0    0 -0.35527136788E-14  0.17763568394E-14  0.00000000000E+00  0.91188000000E+02  0.91188000000E+02 0.  0.
    9900012    2    3    3    0    0 -0.65009338307E+01 -0.14140124916E+02  0.33370363127E+02  0.54366995009E+02  0.39999796722E+02 0.  0.
         12    1    3    3    0    0  0.65009338307E+01  0.14140124916E+02 -0.33370363127E+02  0.36821004991E+02  0.00000000000E+00 0. -1.
         11    1    4    4    0    0 -0.20029913166E+02  0.13494337482E+01  0.11561419605E+02  0.23166458867E+02  0.51100000000E-03 0. -1.
        -11    1    4    4    0    0 -0.68884371856E+00 -0.35492379606E+01  0.48902263047E+01  0.60816041750E+01  0.51100000000E-03 0.  1.
         12    1    4    4    0    0  0.14217823054E+02 -0.11940320703E+02  0.16918717217E+02  0.25118931967E+02  0.00000000000E+00 0. -1.
</event>
<event>
 8    1  0.2516265E-006  0.9118800E+02  0.7816164E-02  0.1184000E+00
        -11   -1    0    0    0    0  0.00000000000E+00  0.00000000000E+00  0.45593999997E+02  0.45594000000E+02  0.51100000000E-03 0. -1.
         11   -1    0    0    0    0 -0.00000000000E+00 -0.00000000000E+00 -0.45593999997E+02  0.45594000000E+02  0.51100000000E-03 0.  1.
         23    2    1    2    0    0  0.35527136788E-14  0.00000000000E+00  0.00000000000E+00  0.91188000000E+02  0.91188000000E+02 0.  0.
    9900012    2    3    3    0    0 -0.10776136507E+02  0.33668380484E+02 -0.10300257760E+02  0.54367078334E+02  0.39999986678E+02 0.  0.
        -12    1    3    3    0    0  0.10776136507E+02 -0.33668380484E+02  0.10300257760E+02  0.36820921666E+02  0.00000000000E+00 0.  1.
         11    1    4    4    0    0 -0.82301179318E+00  0.13583269402E+02 -0.83168509190E+01  0.15948434579E+02  0.51100000000E-03 0. -1.
        -11    1    4    4    0    0 -0.15068185633E+02  0.48734254914E+00 -0.82902854362E+01  0.17205131615E+02  0.51100000000E-03 0.  1.
         12    1    4    4    0    0  0.51150609189E+01  0.19597768533E+02  0.63068785954E+01  0.21213512140E+02  0.00000000000E+00 0. -1.
</event>
<event>
 8    1  0.2516265E-006  0.9118800E+02  0.7816164E-02  0.1184000E+00
        -11   -1    0    0    0    0  0.00000000000E+00  0.00000000000E+00  0.45593999997E+02  0.45594000000E+02  0.51100000000E-03 0.  1.
         11   -1    0    0    0    0 -0.00000000000E+00 -0.00000000000E+00 -0.45593999997E+02  0.45594000000E+02  0.51100000000E-03 0. -1.
         23    2    1    2    0    0  0.00000000000E+00  0.35527136788E-14 -0.35527136788E-14  0.91188000000E+02  0.91188000000E+02 0.  0.
    9900012    2    3    3    0    0  0.25578091152E+02 -0.20443095101E+02 -0.16841143208E+02  0.54367041446E+02  0.39999902585E+02 0.  0.
        -12    1    3    3    0    0 -0.25578091152E+02  0.20443095101E+02  0.16841143208E+02  0.36820958554E+02  0.00000000000E+00 0.  1.
         11    1    4    4    0    0  0.46087303441E+01 -0.17009797428E+02 -0.17601032000E+02  0.24907226494E+02  0.51100000000E-03 0. -1.
        -11    1    4    4    0    0  0.14394897903E+02  0.78328700692E+01  0.93239315250E+00  0.16414514808E+02  0.51100000000E-03 0.  1.
        -12    1    4    4    0    0  0.65744629048E+01 -0.11266167742E+02 -0.17250436121E+00  0.13045300144E+02  0.00000000000E+00 0.  1.
</event>
<event>
 8    1  0.2516265E-006  0.9118800E+02  0.7816164E-02  0.1184000E+00
        -11   -1    0    0    0    0  0.00000000000E+00  0.00000000000E+00  0.45593999997E+02  0.45594000000E+02  0.51100000000E-03 0.  1.
         11   -1    0    0    0    0 -0.00000000000E+00 -0.00000000000E+00 -0.45593999997E+02  0.45594000000E+02  0.51100000000E-03 0. -1.
         23    2    1    2    0    0  0.00000000000E+00  0.44408920985E-15  0.00000000000E+00  0.91188000000E+02  0.91188000000E+02 0.  0.
    9900012    2    3    3    0    0 -0.20379025721E+02 -0.34334075552E+01  0.30474363225E+02  0.54367084873E+02  0.40000001586E+02 0.  0.
         12    1    3    3    0    0  0.20379025721E+02  0.34334075552E+01 -0.30474363225E+02  0.36820915127E+02  0.00000000000E+00 0. -1.
         11    1    4    4    0    0 -0.19148271854E+02 -0.37088340724E+01  0.20611426904E+02  0.28376798347E+02  0.51100000000E-03 0. -1.
        -11    1    4    4    0    0  0.29421732119E+01  0.11338818283E+02  0.75654603646E+01  0.13944940805E+02  0.51100000000E-03 0.  1.
        -12    1    4    4    0    0 -0.41729270791E+01 -0.11063391766E+02  0.22974759567E+01  0.12045345721E+02  0.00000000000E+00 0.  1.
</event>
<event>
 8    1  0.2516265E-006  0.9118800E+02  0.7816164E-02  0.1184000E+00
        -11   -1    0    0    0    0  0.00000000000E+00  0.00000000000E+00  0.45593999997E+02  0.45594000000E+02  0.51100000000E-03 0.  1.
         11   -1    0    0    0    0 -0.00000000000E+00 -0.00000000000E+00 -0.45593999997E+02  0.45594000000E+02  0.51100000000E-03 0. -1.
         23    2    1    2    0    0  0.00000000000E+00  0.00000000000E+00  0.00000000000E+00  0.91188000000E+02  0.91188000000E+02 0.  0.
    9900012    2    3    3    0    0  0.10520030700E+02  0.29163735867E+02  0.19864185137E+02  0.54367076780E+02  0.39999983135E+02 0.  0.
         12    1    3    3    0    0 -0.10520030700E+02 -0.29163735867E+02 -0.19864185137E+02  0.36820923220E+02  0.00000000000E+00 0. -1.
         11    1    4    4    0    0  0.57265052648E+01  0.19090308632E+01 -0.71821942999E+01  0.93819601687E+01  0.51100000000E-03 0. -1.
        -11    1    4    4    0    0 -0.40404597232E+01  0.17157285124E+02  0.26153785542E+02  0.31539154174E+02  0.51100000000E-03 0.  1.
        -12    1    4    4    0    0  0.88339851580E+01  0.10097419880E+02  0.89259389527E+00  0.13445962437E+02  0.00000000000E+00 0.  1.
</event>
<event>
 8    1  0.2516265E-006  0.9118800E+02  0.7816164E-02  0.1184000E+00
        -11   -1    0    0    0    0  0.00000000000E+00  0.00000000000E+00  0.45593999997E+02  0.45594000000E+02  0.51100000000E-03 0.  1.
         11   -1    0    0    0    0 -0.00000000000E+00 -0.00000000000E+00 -0.45593999997E+02  0.45594000000E+02  0.51100000000E-03 0. -1.
         23    2    1    2    0    0 -0.22204460493E-14  0.00000000000E+00 -0.11102230246E-15  0.91188000000E+02  0.91188000000E+02 0.  0.
    9900012    2    3    3    0    0  0.28943306233E+01 -0.36703493193E+02 -0.50846039962E+00  0.54367053593E+02  0.39999930275E+02 0.  0.
        -12    1    3    3    0    0 -0.28943306233E+01  0.36703493193E+02  0.50846039962E+00  0.36820946407E+02  0.00000000000E+00 0.  1.
         11    1    4    4    0    0  0.17671154578E+02 -0.21262847852E+02 -0.70836195423E+01  0.28540428675E+02  0.51100000000E-03 0. -1.
        -11    1    4    4    0    0 -0.23989916641E+01 -0.53614292063E+01  0.78603181792E+01  0.98124760524E+01  0.51100000000E-03 0.  1.
         12    1    4    4    0    0 -0.12377832291E+02 -0.10079216136E+02 -0.12851590366E+01  0.16014148865E+02  0.00000000000E+00 0. -1.
</event>
<event>
 8    1  0.2516265E-006  0.9118800E+02  0.7816164E-02  0.1184000E+00
        -11   -1    0    0    0    0  0.00000000000E+00  0.00000000000E+00  0.45593999997E+02  0.45594000000E+02  0.51100000000E-03 0. -1.
         11   -1    0    0    0    0 -0.00000000000E+00 -0.00000000000E+00 -0.45593999997E+02  0.45594000000E+02  0.51100000000E-03 0.  1.
         23    2    1    2    0    0  0.71054273576E-14  0.44408920985E-15  0.00000000000E+00  0.91188000000E+02  0.91188000000E+02 0.  0.
    9900012    2    3    3    0    0  0.14736904805E+02 -0.12680564362E+01  0.33719365661E+02  0.54367082698E+02  0.39999996627E+02 0.  0.
        -12    1    3    3    0    0 -0.14736904805E+02  0.12680564362E+01 -0.33719365661E+02  0.36820917302E+02  0.00000000000E+00 0.  1.
         11    1    4    4    0    0 -0.57457110772E+01 -0.10804875792E+02  0.11005343620E+02  0.16458314772E+02  0.51100000000E-03 0. -1.
        -11    1    4    4    0    0 -0.32614659055E+01  0.36446128458E+01  0.59354857778E+00  0.49267294247E+01  0.51100000000E-03 0.  1.
         12    1    4    4    0    0  0.23744081788E+02  0.58922065102E+01  0.22120473463E+02  0.32982038502E+02  0.00000000000E+00 0. -1.
</event>
<event>
 8    1  0.2516265E-006  0.9118800E+02  0.7816164E-02  0.1184000E+00
        -11   -1    0    0    0    0  0.00000000000E+00  0.00000000000E+00  0.45593999997E+02  0.45594000000E+02  0.51100000000E-03 0.  1.
         11   -1    0    0    0    0 -0.00000000000E+00 -0.00000000000E+00 -0.45593999997E+02  0.45594000000E+02  0.51100000000E-03 0. -1.
         23    2    1    2    0    0 -0.35527136788E-14  0.88817841970E-15  0.00000000000E+00  0.91188000000E+02  0.91188000000E+02 0.  0.
    9900012    2    3    3    0    0  0.23865890470E+02  0.32574594925E+01 -0.27849378286E+02  0.54367086904E+02  0.40000006216E+02 0.  0.
        -12    1    3    3    0    0 -0.23865890470E+02 -0.32574594925E+01  0.27849378286E+02  0.36820913096E+02  0.00000000000E+00 0.  1.
         11    1    4    4    0    0  0.17982818311E+01 -0.39565229655E+01  0.52742225088E+01  0.68341286829E+01  0.51100000000E-03 0. -1.
        -11    1    4    4    0    0  0.13684866973E+02 -0.31195186469E+01 -0.26539371274E+01  0.14284619813E+02  0.51100000000E-03 0.  1.
         12    1    4    4    0    0  0.83827416656E+01  0.10333501105E+02 -0.30469663668E+02  0.33248338409E+02  0.00000000000E+00 0. -1.
</event>
<event>
 8    1  0.2516265E-006  0.9118800E+02  0.7816164E-02  0.1184000E+00
        -11   -1    0    0    0    0  0.00000000000E+00  0.00000000000E+00  0.45593999997E+02  0.45594000000E+02  0.51100000000E-03 0. -1.
         11   -1    0    0    0    0 -0.00000000000E+00 -0.00000000000E+00 -0.45593999997E+02  0.45594000000E+02  0.51100000000E-03 0.  1.
         23    2    1    2    0    0  0.00000000000E+00  0.00000000000E+00  0.00000000000E+00  0.91188000000E+02  0.91188000000E+02 0.  0.
    9900012    2    3    3    0    0  0.13875681157E+02 -0.19482606316E+02 -0.27994177494E+02  0.54367075921E+02  0.39999981177E+02 0.  0.
         12    1    3    3    0    0 -0.13875681157E+02  0.19482606316E+02  0.27994177494E+02  0.36820924079E+02  0.00000000000E+00 0. -1.
         11    1    4    4    0    0  0.12412633116E+02  0.51389682299E+01 -0.14919443055E+02  0.20076659002E+02  0.51100000000E-03 0. -1.
        -11    1    4    4    0    0 -0.82704539877E+01 -0.14842768681E+02 -0.11237539480E+02  0.20371315252E+02  0.51100000000E-03 0.  1.
        -12    1    4    4    0    0  0.97335020286E+01 -0.97788058655E+01 -0.18371949591E+01  0.13919101667E+02  0.00000000000E+00 0.  1.
</event>
<event>
 8    1  0.2516265E-006  0.9118800E+02  0.7816164E-02  0.1184000E+00
        -11   -1    0    0    0    0  0.00000000000E+00  0.00000000000E+00  0.45593999997E+02  0.45594000000E+02  0.51100000000E-03 0.  1.
         11   -1    0    0    0    0 -0.00000000000E+00 -0.00000000000E+00 -0.45593999997E+02  0.45594000000E+02  0.51100000000E-03 0. -1.
         23    2    1    2    0    0  0.00000000000E+00 -0.35527136788E-14  0.00000000000E+00  0.91188000000E+02  0.91188000000E+02 0.  0.
    9900012    2    3    3    0    0 -0.19808661864E+02  0.27960617102E+02 -0.13475912813E+02  0.54367089912E+02  0.40000013073E+02 0.  0.
        -12    1    3    3    0    0  0.19808661864E+02 -0.27960617102E+02  0.13475912813E+02  0.36820910088E+02  0.00000000000E+00 0.  1.
         11    1    4    4    0    0 -0.20386457505E+02  0.88836778406E+01 -0.77990202087E+00  0.22251643287E+02  0.51100000000E-03 0. -1.
        -11    1    4    4    0    0 -0.57652923800E+01  0.32958929365E+01 -0.13545817093E+02  0.15086108426E+02  0.51100000000E-03 0.  1.
         12    1    4    4    0    0  0.63430880209E+01  0.15781046325E+02  0.84980630034E+00  0.17029338199E+02  0.00000000000E+00 0. -1.
</event>
<event>
 8    1  0.2516265E-006  0.9118800E+02  0.7816164E-02  0.1184000E+00
        -11   -1    0    0    0    0  0.00000000000E+00  0.00000000000E+00  0.45593999997E+02  0.45594000000E+02  0.51100000000E-03 0. -1.
         11   -1    0    0    0    0 -0.00000000000E+00 -0.00000000000E+00 -0.45593999997E+02  0.45594000000E+02  0.51100000000E-03 0.  1.
         23    2    1    2    0    0  0.00000000000E+00 -0.17763568394E-14  0.00000000000E+00  0.91188000000E+02  0.91188000000E+02 0.  0.
    9900012    2    3    3    0    0 -0.34123828787E+02 -0.12058034296E+02  0.67783524671E+01  0.54367109946E+02  0.40000058744E+02 0.  0.
         12    1    3    3    0    0  0.34123828787E+02  0.12058034296E+02 -0.67783524671E+01  0.36820890054E+02  0.00000000000E+00 0. -1.
         11    1    4    4    0    0 -0.66222067252E+00  0.71935603651E+01  0.32617246384E+01  0.79262030521E+01  0.51100000000E-03 0. -1.
        -11    1    4    4    0    0 -0.32914991336E+01 -0.11094124295E+02 -0.69291260564E+01  0.13488007584E+02  0.51100000000E-03 0.  1.
        -12    1    4    4    0    0 -0.30170108981E+02 -0.81574703661E+01  0.10445753885E+02  0.32952899310E+02  0.00000000000E+00 0.  1.
</event>
<event>
 8    1  0.2516265E-006  0.9118800E+02  0.7816164E-02  0.1184000E+00
        -11   -1    0    0    0    0  0.00000000000E+00  0.00000000000E+00  0.45593999997E+02  0.45594000000E+02  0.51100000000E-03 0.  1.
         11   -1    0    0    0    0 -0.00000000000E+00 -0.00000000000E+00 -0.45593999997E+02  0.45594000000E+02  0.51100000000E-03 0. -1.
         23    2    1    2    0    0  0.00000000000E+00 -0.88817841970E-15 -0.35527136788E-14  0.91188000000E+02  0.91188000000E+02 0.  0.
    9900012    2    3    3    0    0 -0.31664181029E+02 -0.62806770155E+01  0.17711934688E+02  0.54367083466E+02  0.39999998377E+02 0.  0.
         12    1    3    3    0    0  0.31664181029E+02  0.62806770155E+01 -0.17711934688E+02  0.36820916534E+02  0.00000000000E+00 0. -1.
         11    1    4    4    0    0 -0.16003764412E+02 -0.38515056043E+01 -0.11182726199E+02  0.19899948147E+02  0.51100000000E-03 0. -1.
        -11    1    4    4    0    0 -0.11591036224E+02  0.13270416429E+01  0.12211676216E+02  0.16888996315E+02  0.51100000000E-03 0.  1.
        -12    1    4    4    0    0 -0.40693803937E+01 -0.37562130541E+01  0.16682984671E+02  0.17578139004E+02  0.00000000000E+00 0.  1.
</event>
<event>
 8    1  0.2516265E-006  0.9118800E+02  0.7816164E-02  0.1184000E+00
        -11   -1    0    0    0    0  0.00000000000E+00  0.00000000000E+00  0.45593999997E+02  0.45594000000E+02  0.51100000000E-03 0.  1.
         11   -1    0    0    0    0 -0.00000000000E+00 -0.00000000000E+00 -0.45593999997E+02  0.45594000000E+02  0.51100000000E-03 0. -1.
         23    2    1    2    0    0  0.00000000000E+00  0.35527136788E-14  0.35527136788E-14  0.91188000000E+02  0.91188000000E+02 0.  0.
    9900012    2    3    3    0    0  0.19833736348E+02  0.21876747742E+02  0.21995692464E+02  0.54367086428E+02  0.40000005131E+02 0.  0.
         12    1    3    3    0    0 -0.19833736348E+02 -0.21876747742E+02 -0.21995692464E+02  0.36820913572E+02  0.00000000000E+00 0. -1.
         11    1    4    4    0    0 -0.27368168160E+01 -0.43474529055E+01  0.10157572759E+02  0.11382741219E+02  0.51100000000E-03 0. -1.
        -11    1    4    4    0    0  0.16508161681E+02  0.24074440478E+02  0.17820240370E+02  0.34200278559E+02  0.51100000000E-03 0.  1.
         12    1    4    4    0    0  0.60623914828E+01  0.21497601691E+01 -0.59821206642E+01  0.87840666502E+01  0.00000000000E+00 0. -1.
</event>
<event>
 8    1  0.2516265E-006  0.9118800E+02  0.7816164E-02  0.1184000E+00
        -11   -1    0    0    0    0  0.00000000000E+00  0.00000000000E+00  0.45593999997E+02  0.45594000000E+02  0.51100000000E-03 0.  1.
         11   -1    0    0    0    0 -0.00000000000E+00 -0.00000000000E+00 -0.45593999997E+02  0.45594000000E+02  0.51100000000E-03 0. -1.
         23    2    1    2    0    0  0.00000000000E+00  0.00000000000E+00  0.00000000000E+00  0.91188000000E+02  0.91188000000E+02 0.  0.
    9900012    2    3    3    0    0  0.10779547628E+02  0.20651781356E+02  0.28514662394E+02  0.54367072639E+02  0.39999973696E+02 0.  0.
         12    1    3    3    0    0 -0.10779547628E+02 -0.20651781356E+02 -0.28514662394E+02  0.36820927361E+02  0.00000000000E+00 0. -1.
         11    1    4    4    0    0  0.82778832278E+01  0.59251953227E+01  0.73933752887E+00  0.10206758084E+02  0.51100000000E-03 0. -1.
        -11    1    4    4    0    0  0.11399584168E+02  0.17058535898E+02  0.28290989443E+02  0.34947449837E+02  0.51100000000E-03 0.  1.
        -12    1    4    4    0    0 -0.88979197674E+01 -0.23319498644E+01 -0.51566457789E+00  0.92128647181E+01  0.00000000000E+00 0.  1.
</event>
<event>
 8    1  0.2516265E-006  0.9118800E+02  0.7816164E-02  0.1184000E+00
        -11   -1    0    0    0    0  0.00000000000E+00  0.00000000000E+00  0.45593999997E+02  0.45594000000E+02  0.51100000000E-03 0.  1.
         11   -1    0    0    0    0 -0.00000000000E+00 -0.00000000000E+00 -0.45593999997E+02  0.45594000000E+02  0.51100000000E-03 0. -1.
         23    2    1    2    0    0  0.86736173799E-16  0.35527136788E-14  0.00000000000E+00  0.91188000000E+02  0.91188000000E+02 0.  0.
    9900012    2    3    3    0    0  0.87138051322E-02  0.16974364013E+02  0.32675055183E+02  0.54366968770E+02  0.39999736905E+02 0.  0.
         12    1    3    3    0    0 -0.87138051322E-02 -0.16974364013E+02 -0.32675055183E+02  0.36821031230E+02  0.00000000000E+00 0. -1.
         11    1    4    4    0    0  0.35788827419E+01  0.83978447247E+01  0.47268864555E+00  0.91408770103E+01  0.51100000000E-03 0. -1.
        -11    1    4    4    0    0  0.27108900246E+01  0.10029559053E+02  0.36185821795E+02  0.37647771232E+02  0.51100000000E-03 0.  1.
        -12    1    4    4    0    0 -0.62810589613E+01 -0.14530397644E+01 -0.39834552572E+01  0.75783205276E+01  0.00000000000E+00 0.  1.
</event>
<event>
 8    1  0.2516265E-006  0.9118800E+02  0.7816164E-02  0.1184000E+00
        -11   -1    0    0    0    0  0.00000000000E+00  0.00000000000E+00  0.45593999997E+02  0.45594000000E+02  0.51100000000E-03 0.  1.
         11   -1    0    0    0    0 -0.00000000000E+00 -0.00000000000E+00 -0.45593999997E+02  0.45594000000E+02  0.51100000000E-03 0. -1.
         23    2    1    2    0    0  0.17763568394E-14  0.00000000000E+00  0.35527136788E-14  0.91188000000E+02  0.91188000000E+02 0.  0.
    9900012    2    3    3    0    0  0.12592830404E+02 -0.20551284346E+02 -0.27836063798E+02  0.54367066910E+02  0.39999960636E+02 0.  0.
        -12    1    3    3    0    0 -0.12592830404E+02  0.20551284346E+02  0.27836063798E+02  0.36820933090E+02  0.00000000000E+00 0.  1.
         11    1    4    4    0    0  0.16727140971E+02 -0.72653435696E+01 -0.42543846157E+01  0.18726511981E+02  0.51100000000E-03 0. -1.
        -11    1    4    4    0    0  0.15019998118E+00  0.64669372412E+01 -0.66009861373E+01  0.92421239745E+01  0.51100000000E-03 0.  1.
         12    1    4    4    0    0 -0.42845105486E+01 -0.19752878017E+02 -0.16980693045E+02  0.26398430955E+02  0.00000000000E+00 0. -1.
</event>
<event>
 8    1  0.2516265E-006  0.9118800E+02  0.7816164E-02  0.1184000E+00
        -11   -1    0    0    0    0  0.00000000000E+00  0.00000000000E+00  0.45593999997E+02  0.45594000000E+02  0.51100000000E-03 0. -1.
         11   -1    0    0    0    0 -0.00000000000E+00 -0.00000000000E+00 -0.45593999997E+02  0.45594000000E+02  0.51100000000E-03 0.  1.
         23    2    1    2    0    0  0.12767564783E-14  0.00000000000E+00  0.00000000000E+00  0.91188000000E+02  0.91188000000E+02 0.  0.
    9900012    2    3    3    0    0 -0.42772161913E+00 -0.35830855055E+02 -0.84703695050E+01  0.54367078239E+02  0.39999986462E+02 0.  0.
        -12    1    3    3    0    0  0.42772161913E+00  0.35830855055E+02  0.84703695050E+01  0.36820921761E+02  0.00000000000E+00 0.  1.
         11    1    4    4    0    0  0.96451557159E+01 -0.82989371078E+01  0.30080747726E+01  0.13074781069E+02  0.51100000000E-03 0. -1.
        -11    1    4    4    0    0  0.61904542430E+01  0.14495273777E+01 -0.93000686730E+00  0.64255557260E+01  0.51100000000E-03 0.  1.
         12    1    4    4    0    0 -0.16263331578E+02 -0.28981445325E+02 -0.10548437410E+02  0.34866741444E+02  0.00000000000E+00 0. -1.
</event>
<event>
 8    1  0.2516265E-006  0.9118800E+02  0.7816164E-02  0.1184000E+00
        -11   -1    0    0    0    0  0.00000000000E+00  0.00000000000E+00  0.45593999997E+02  0.45594000000E+02  0.51100000000E-03 0.  1.
         11   -1    0    0    0    0 -0.00000000000E+00 -0.00000000000E+00 -0.45593999997E+02  0.45594000000E+02  0.51100000000E-03 0. -1.
         23    2    1    2    0    0  0.00000000000E+00  0.00000000000E+00  0.00000000000E+00  0.91188000000E+02  0.91188000000E+02 0.  0.
    9900012    2    3    3    0    0  0.18961177809E+02 -0.20240322384E+02 -0.24219496283E+02  0.54367069616E+02  0.39999966805E+02 0.  0.
        -12    1    3    3    0    0 -0.18961177809E+02  0.20240322384E+02  0.24219496283E+02  0.36820930384E+02  0.00000000000E+00 0.  1.
         11    1    4    4    0    0  0.62703266395E+01 -0.94247108555E+00 -0.20612578954E+02  0.21565798370E+02  0.51100000000E-03 0. -1.
        -11    1    4    4    0    0  0.92338353907E+01  0.25042610175E+01 -0.47812297549E+01  0.10695569059E+02  0.51100000000E-03 0.  1.
         12    1    4    4    0    0  0.34570157786E+01 -0.21802112316E+02  0.11743124263E+01  0.22105702188E+02  0.00000000000E+00 0. -1.
</event>
<event>
 8    1  0.2516265E-006  0.9118800E+02  0.7816164E-02  0.1184000E+00
        -11   -1    0    0    0    0  0.00000000000E+00  0.00000000000E+00  0.45593999997E+02  0.45594000000E+02  0.51100000000E-03 0. -1.
         11   -1    0    0    0    0 -0.00000000000E+00 -0.00000000000E+00 -0.45593999997E+02  0.45594000000E+02  0.51100000000E-03 0.  1.
         23    2    1    2    0    0  0.00000000000E+00  0.00000000000E+00 -0.35527136788E-14  0.91188000000E+02  0.91188000000E+02 0.  0.
    9900012    2    3    3    0    0 -0.25441821038E+02  0.31116920412E+01  0.26435024767E+02  0.54367089915E+02  0.40000013080E+02 0.  0.
        -12    1    3    3    0    0  0.25441821038E+02 -0.31116920412E+01 -0.26435024767E+02  0.36820910085E+02  0.00000000000E+00 0.  1.
         11    1    4    4    0    0 -0.22157604264E+02  0.50459316441E+01  0.23758254210E+02  0.32876671004E+02  0.51100000000E-03 0. -1.
        -11    1    4    4    0    0  0.61604707362E+01  0.48136100863E+01 -0.32387967628E+01  0.84623901166E+01  0.51100000000E-03 0.  1.
        -12    1    4    4    0    0 -0.94446875093E+01 -0.67478496892E+01  0.59155673191E+01  0.13028028795E+02  0.00000000000E+00 0.  1.
</event>
<event>
 8    1  0.2516265E-006  0.9118800E+02  0.7816164E-02  0.1184000E+00
        -11   -1    0    0    0    0  0.00000000000E+00  0.00000000000E+00  0.45593999997E+02  0.45594000000E+02  0.51100000000E-03 0.  1.
         11   -1    0    0    0    0 -0.00000000000E+00 -0.00000000000E+00 -0.45593999997E+02  0.45594000000E+02  0.51100000000E-03 0. -1.
         23    2    1    2    0    0  0.00000000000E+00  0.00000000000E+00  0.17763568394E-14  0.91188000000E+02  0.91188000000E+02 0.  0.
    9900012    2    3    3    0    0  0.17740641735E+02 -0.30465373802E+02  0.10625904769E+02  0.54367092594E+02  0.40000019185E+02 0.  0.
         12    1    3    3    0    0 -0.17740641735E+02  0.30465373802E+02 -0.10625904769E+02  0.36820907406E+02  0.00000000000E+00 0. -1.
         11    1    4    4    0    0 -0.25378933421E+01 -0.14663310238E+02 -0.11204164626E+02  0.18627583713E+02  0.51100000000E-03 0. -1.
        -11    1    4    4    0    0  0.75827767927E+01 -0.30061286298E+01  0.10395443553E+01  0.82228927972E+01  0.51100000000E-03 0.  1.
        -12    1    4    4    0    0  0.12695758285E+02 -0.12795934934E+02  0.20790525039E+02  0.27516616083E+02  0.00000000000E+00 0.  1.
</event>
<event>
 8    1  0.2516265E-006  0.9118800E+02  0.7816164E-02  0.1184000E+00
        -11   -1    0    0    0    0  0.00000000000E+00  0.00000000000E+00  0.45593999997E+02  0.45594000000E+02  0.51100000000E-03 0.  1.
         11   -1    0    0    0    0 -0.00000000000E+00 -0.00000000000E+00 -0.45593999997E+02  0.45594000000E+02  0.51100000000E-03 0. -1.
         23    2    1    2    0    0  0.00000000000E+00  0.00000000000E+00 -0.35527136788E-14  0.91188000000E+02  0.91188000000E+02 0.  0.
    9900012    2    3    3    0    0 -0.27949626138E+01 -0.25223326866E+02 -0.26678605497E+02  0.54367136003E+02  0.40000118146E+02 0.  0.
         12    1    3    3    0    0  0.27949626138E+01  0.25223326866E+02  0.26678605497E+02  0.36820863997E+02  0.00000000000E+00 0. -1.
         11    1    4    4    0    0 -0.10518604263E+02 -0.15165719662E+02 -0.21372724321E+02  0.28238863888E+02  0.51100000000E-03 0. -1.
        -11    1    4    4    0    0  0.44297157004E+01 -0.15175038216E+02 -0.97672049048E+01  0.18582315732E+02  0.51100000000E-03 0.  1.
        -12    1    4    4    0    0  0.32939259489E+01  0.51174310123E+01  0.44613237290E+01  0.75459563832E+01  0.00000000000E+00 0.  1.
</event>
<event>
 8    1  0.2516265E-006  0.9118800E+02  0.7816164E-02  0.1184000E+00
        -11   -1    0    0    0    0  0.00000000000E+00  0.00000000000E+00  0.45593999997E+02  0.45594000000E+02  0.51100000000E-03 0.  1.
         11   -1    0    0    0    0 -0.00000000000E+00 -0.00000000000E+00 -0.45593999997E+02  0.45594000000E+02  0.51100000000E-03 0. -1.
         23    2    1    2    0    0  0.35527136788E-14  0.00000000000E+00  0.71054273576E-14  0.91188000000E+02  0.91188000000E+02 0.  0.
    9900012    2    3    3    0    0 -0.16370565987E+02  0.19972805192E+02 -0.26246368996E+02  0.54367078455E+02  0.39999986954E+02 0.  0.
        -12    1    3    3    0    0  0.16370565987E+02 -0.19972805192E+02  0.26246368996E+02  0.36820921545E+02  0.00000000000E+00 0.  1.
         11    1    4    4    0    0 -0.56005793854E+00 -0.57472603904E+01  0.16201890959E+01  0.59974727892E+01  0.51100000000E-03 0. -1.
        -11    1    4    4    0    0 -0.17339118979E+02  0.41164607722E+01 -0.11290541373E+02  0.21096602120E+02  0.51100000000E-03 0.  1.
         12    1    4    4    0    0  0.15286109299E+01  0.21603604810E+02 -0.16576016719E+02  0.27273003546E+02  0.00000000000E+00 0. -1.
</event>
<event>
 8    1  0.2516265E-006  0.9118800E+02  0.7816164E-02  0.1184000E+00
        -11   -1    0    0    0    0  0.00000000000E+00  0.00000000000E+00  0.45593999997E+02  0.45594000000E+02  0.51100000000E-03 0.  1.
         11   -1    0    0    0    0 -0.00000000000E+00 -0.00000000000E+00 -0.45593999997E+02  0.45594000000E+02  0.51100000000E-03 0. -1.
         23    2    1    2    0    0 -0.35527136788E-14  0.17763568394E-14  0.00000000000E+00  0.91188000000E+02  0.91188000000E+02 0.  0.
    9900012    2    3    3    0    0  0.19627071061E+02 -0.93148147956E+01  0.29728615056E+02  0.54367105847E+02  0.40000049399E+02 0.  0.
         12    1    3    3    0    0 -0.19627071061E+02  0.93148147956E+01 -0.29728615056E+02  0.36820894153E+02  0.00000000000E+00 0. -1.
         11    1    4    4    0    0  0.85554835494E+01  0.96493484042E+01  0.37199357789E+01  0.13421778789E+02  0.51100000000E-03 0. -1.
        -11    1    4    4    0    0  0.13595247194E+02 -0.20828362784E+02  0.27823915111E+02  0.37320526455E+02  0.51100000000E-03 0.  1.
        -12    1    4    4    0    0 -0.25236596824E+01  0.18641995837E+01 -0.18152358338E+01  0.36248006032E+01  0.00000000000E+00 0.  1.
</event>
<event>
 8    1  0.2516265E-006  0.9118800E+02  0.7816164E-02  0.1184000E+00
        -11   -1    0    0    0    0  0.00000000000E+00  0.00000000000E+00  0.45593999997E+02  0.45594000000E+02  0.51100000000E-03 0.  1.
         11   -1    0    0    0    0 -0.00000000000E+00 -0.00000000000E+00 -0.45593999997E+02  0.45594000000E+02  0.51100000000E-03 0. -1.
         23    2    1    2    0    0  0.35527136788E-14 -0.17763568394E-14  0.00000000000E+00  0.91188000000E+02  0.91188000000E+02 0.  0.
    9900012    2    3    3    0    0 -0.28836452073E+02  0.11773271177E+02  0.19637440082E+02  0.54367082910E+02  0.39999997111E+02 0.  0.
         12    1    3    3    0    0  0.28836452073E+02 -0.11773271177E+02 -0.19637440082E+02  0.36820917090E+02  0.00000000000E+00 0. -1.
         11    1    4    4    0    0  0.16236835430E+01  0.41817205281E+01 -0.19417756271E+01  0.48881108488E+01  0.51100000000E-03 0. -1.
        -11    1    4    4    0    0  0.26974055204E+01  0.35858040657E+01 -0.50560881503E+01  0.67600306940E+01  0.51100000000E-03 0.  1.
        -12    1    4    4    0    0 -0.33157541136E+02  0.40057465829E+01  0.26635303860E+02  0.42718941368E+02  0.00000000000E+00 0.  1.
</event>
<event>
 8    1  0.2516265E-006  0.9118800E+02  0.7816164E-02  0.1184000E+00
        -11   -1    0    0    0    0  0.00000000000E+00  0.00000000000E+00  0.45593999997E+02  0.45594000000E+02  0.51100000000E-03 0. -1.
         11   -1    0    0    0    0 -0.00000000000E+00 -0.00000000000E+00 -0.45593999997E+02  0.45594000000E+02  0.51100000000E-03 0.  1.
         23    2    1    2    0    0 -0.35527136788E-14 -0.88817841970E-15  0.00000000000E+00  0.91188000000E+02  0.91188000000E+02 0.  0.
    9900012    2    3    3    0    0  0.26990769773E+02  0.65420195026E+01  0.24175998663E+02  0.54367101268E+02  0.40000038960E+02 0.  0.
        -12    1    3    3    0    0 -0.26990769773E+02 -0.65420195026E+01 -0.24175998663E+02  0.36820898732E+02  0.00000000000E+00 0.  1.
         11    1    4    4    0    0  0.54142337303E+01  0.11332956695E+02  0.17896502085E+02  0.21864002870E+02  0.51100000000E-03 0. -1.
        -11    1    4    4    0    0 -0.25929569544E+01  0.30287482859E+01  0.58709598657E+01  0.70968240751E+01  0.51100000000E-03 0.  1.
         12    1    4    4    0    0  0.24169492997E+02 -0.78196854783E+01  0.40853671159E+00  0.25406274323E+02  0.00000000000E+00 0. -1.
</event>
<event>
 8    1  0.2516265E-006  0.9118800E+02  0.7816164E-02  0.1184000E+00
        -11   -1    0    0    0    0  0.00000000000E+00  0.00000000000E+00  0.45593999997E+02  0.45594000000E+02  0.51100000000E-03 0.  1.
         11   -1    0    0    0    0 -0.00000000000E+00 -0.00000000000E+00 -0.45593999997E+02  0.45594000000E+02  0.51100000000E-03 0. -1.
         23    2    1    2    0    0  0.00000000000E+00  0.00000000000E+00  0.00000000000E+00  0.91188000000E+02  0.91188000000E+02 0.  0.
    9900012    2    3    3    0    0  0.15070420031E+02 -0.32446383184E+02  0.87118036998E+01  0.54367070282E+02  0.39999968321E+02 0.  0.
        -12    1    3    3    0    0 -0.15070420031E+02  0.32446383184E+02 -0.87118036998E+01  0.36820929718E+02  0.00000000000E+00 0.  1.
         11    1    4    4    0    0  0.24197667024E+01 -0.70347237426E+01 -0.92395456408E+01  0.11862201016E+02  0.51100000000E-03 0. -1.
        -11    1    4    4    0    0  0.58042282103E+01 -0.27257179577E+02  0.20890607283E+02  0.34829016302E+02  0.51100000000E-03 0.  1.
        -12    1    4    4    0    0  0.68464251180E+01  0.18455201359E+01 -0.29392579427E+01  0.76758529638E+01  0.00000000000E+00 0.  1.
</event>
<event>
 8    1  0.2516265E-006  0.9118800E+02  0.7816164E-02  0.1184000E+00
        -11   -1    0    0    0    0  0.00000000000E+00  0.00000000000E+00  0.45593999997E+02  0.45594000000E+02  0.51100000000E-03 0. -1.
         11   -1    0    0    0    0 -0.00000000000E+00 -0.00000000000E+00 -0.45593999997E+02  0.45594000000E+02  0.51100000000E-03 0.  1.
         23    2    1    2    0    0  0.88817841970E-15  0.71054273576E-14  0.00000000000E+00  0.91188000000E+02  0.91188000000E+02 0.  0.
    9900012    2    3    3    0    0 -0.65803216687E+01  0.32443334117E+02 -0.16121617672E+02  0.54367121164E+02  0.40000084317E+02 0.  0.
         12    1    3    3    0    0  0.65803216687E+01 -0.32443334117E+02  0.16121617672E+02  0.36820878836E+02  0.00000000000E+00 0. -1.
         11    1    4    4    0    0 -0.30715018227E+01  0.14928814040E+02 -0.17501727367E+02  0.23208060522E+02  0.51100000000E-03 0.  1.
        -11    1    4    4    0    0 -0.13766881924E+02  0.15342714288E+02  0.27528917091E+00  0.20615569457E+02  0.51100000000E-03 0. -1.
        -12    1    4    4    0    0  0.10258062078E+02  0.21718057896E+01  0.11048205241E+01  0.10543491186E+02  0.00000000000E+00 0.  1.
</event>
<event>
 8    1  0.2516265E-006  0.9118800E+02  0.7816164E-02  0.1184000E+00
        -11   -1    0    0    0    0  0.00000000000E+00  0.00000000000E+00  0.45593999997E+02  0.45594000000E+02  0.51100000000E-03 0. -1.
         11   -1    0    0    0    0 -0.00000000000E+00 -0.00000000000E+00 -0.45593999997E+02  0.45594000000E+02  0.51100000000E-03 0.  1.
         23    2    1    2    0    0 -0.35527136788E-14 -0.35527136788E-14 -0.35527136788E-14  0.91188000000E+02  0.91188000000E+02 0.  0.
    9900012    2    3    3    0    0  0.28771729332E+02  0.11238530785E+02  0.20041536953E+02  0.54367079501E+02  0.39999989339E+02 0.  0.
        -12    1    3    3    0    0 -0.28771729332E+02 -0.11238530785E+02 -0.20041536953E+02  0.36820920499E+02  0.00000000000E+00 0.  1.
         11    1    4    4    0    0  0.38886160863E+01  0.18039640671E+01 -0.40219741502E+01  0.58780862318E+01  0.51100000000E-03 0. -1.
        -11    1    4    4    0    0  0.11087038040E+02 -0.12169638394E+02  0.95224463509E+01  0.19018398879E+02  0.51100000000E-03 0.  1.
         12    1    4    4    0    0  0.13796075205E+02  0.21604205112E+02  0.14541064752E+02  0.29470594390E+02  0.00000000000E+00 0. -1.
</event>
<event>
 8    1  0.2516265E-006  0.9118800E+02  0.7816164E-02  0.1184000E+00
        -11   -1    0    0    0    0  0.00000000000E+00  0.00000000000E+00  0.45593999997E+02  0.45594000000E+02  0.51100000000E-03 0. -1.
         11   -1    0    0    0    0 -0.00000000000E+00 -0.00000000000E+00 -0.45593999997E+02  0.45594000000E+02  0.51100000000E-03 0.  1.
         23    2    1    2    0    0  0.88817841970E-15  0.00000000000E+00  0.71054273576E-14  0.91188000000E+02  0.91188000000E+02 0.  0.
    9900012    2    3    3    0    0 -0.72195497423E+01  0.12884697258E+02 -0.33728952509E+02  0.54367088017E+02  0.40000008752E+02 0.  0.
         12    1    3    3    0    0  0.72195497423E+01 -0.12884697258E+02  0.33728952509E+02  0.36820911983E+02  0.00000000000E+00 0. -1.
         11    1    4    4    0    0 -0.67725775391E+00  0.63308160072E+01 -0.25260631223E+02  0.26050669846E+02  0.51100000000E-03 0. -1.
        -11    1    4    4    0    0 -0.68201918068E+01  0.14972465503E+02 -0.11429518398E+00  0.16453048446E+02  0.51100000000E-03 0.  1.
        -12    1    4    4    0    0  0.27789981835E+00 -0.84185842518E+01 -0.83540261016E+01  0.11863369724E+02  0.00000000000E+00 0.  1.
</event>
<event>
 8    1  0.2516265E-006  0.9118800E+02  0.7816164E-02  0.1184000E+00
        -11   -1    0    0    0    0  0.00000000000E+00  0.00000000000E+00  0.45593999997E+02  0.45594000000E+02  0.51100000000E-03 0. -1.
         11   -1    0    0    0    0 -0.00000000000E+00 -0.00000000000E+00 -0.45593999997E+02  0.45594000000E+02  0.51100000000E-03 0.  1.
         23    2    1    2    0    0 -0.35527136788E-14  0.00000000000E+00 -0.17763568394E-14  0.91188000000E+02  0.91188000000E+02 0.  0.
    9900012    2    3    3    0    0  0.26970747023E+02 -0.23418547180E+02  0.89412860898E+01  0.54366862810E+02  0.39999495344E+02 0.  0.
        -12    1    3    3    0    0 -0.26970747023E+02  0.23418547180E+02 -0.89412860898E+01  0.36821137190E+02  0.00000000000E+00 0.  1.
         11    1    4    4    0    0 -0.28033181810E+01 -0.12364520664E+02 -0.54077605558E+01  0.13783462503E+02  0.51100000000E-03 0. -1.
        -11    1    4    4    0    0  0.14110873995E+02  0.39503063200E+01  0.11661502971E+02  0.18727315257E+02  0.51100000000E-03 0.  1.
        -12    1    4    4    0    0  0.15663191210E+02 -0.15004332836E+02  0.26875436744E+01  0.21856085051E+02  0.00000000000E+00 0.  1.
</event>
<event>
 8    1  0.2516265E-006  0.9118800E+02  0.7816164E-02  0.1184000E+00
        -11   -1    0    0    0    0  0.00000000000E+00  0.00000000000E+00  0.45593999997E+02  0.45594000000E+02  0.51100000000E-03 0. -1.
         11   -1    0    0    0    0 -0.00000000000E+00 -0.00000000000E+00 -0.45593999997E+02  0.45594000000E+02  0.51100000000E-03 0.  1.
         23    2    1    2    0    0  0.88817841970E-15  0.17763568394E-14  0.00000000000E+00  0.91188000000E+02  0.91188000000E+02 0.  0.
    9900012    2    3    3    0    0  0.55489980734E+01  0.62729322236E+01 -0.35855799695E+02  0.54367089771E+02  0.40000012752E+02 0.  0.
         12    1    3    3    0    0 -0.55489980734E+01 -0.62729322236E+01  0.35855799695E+02  0.36820910229E+02  0.00000000000E+00 0. -1.
         11    1    4    4    0    0 -0.31573033036E+01 -0.92536340083E+01  0.28634834894E+01  0.10188122715E+02  0.51100000000E-03 0. -1.
        -11    1    4    4    0    0  0.50796461533E-01  0.10253023374E+02 -0.25769609168E+02  0.27734451960E+02  0.51100000000E-03 0.  1.
         12    1    4    4    0    0  0.86555049154E+01  0.52735428580E+01 -0.12949674017E+02  0.16444515096E+02  0.00000000000E+00 0. -1.
</event>
<event>
 8    1  0.2516265E-006  0.9118800E+02  0.7816164E-02  0.1184000E+00
        -11   -1    0    0    0    0  0.00000000000E+00  0.00000000000E+00  0.45593999997E+02  0.45594000000E+02  0.51100000000E-03 0. -1.
         11   -1    0    0    0    0 -0.00000000000E+00 -0.00000000000E+00 -0.45593999997E+02  0.45594000000E+02  0.51100000000E-03 0.  1.
         23    2    1    2    0    0  0.71054273576E-14  0.00000000000E+00  0.00000000000E+00  0.91188000000E+02  0.91188000000E+02 0.  0.
    9900012    2    3    3    0    0 -0.29821390738E+02  0.14997425544E+02  0.15541635815E+02  0.54367074397E+02  0.39999977702E+02 0.  0.
        -12    1    3    3    0    0  0.29821390738E+02 -0.14997425544E+02 -0.15541635815E+02  0.36820925603E+02  0.00000000000E+00 0.  1.
         11    1    4    4    0    0  0.10152876103E+01  0.30362400906E+01 -0.19966858506E+01  0.37731044865E+01  0.51100000000E-03 0. -1.
        -11    1    4    4    0    0  0.30025752825E+01  0.12844411840E+02  0.79917333852E+01  0.15422781092E+02  0.51100000000E-03 0.  1.
         12    1    4    4    0    0 -0.33839253630E+02 -0.88322638690E+00  0.95465882805E+01  0.35171188819E+02  0.00000000000E+00 0. -1.
</event>
<event>
 8    1  0.2516265E-006  0.9118800E+02  0.7816164E-02  0.1184000E+00
        -11   -1    0    0    0    0  0.00000000000E+00  0.00000000000E+00  0.45593999997E+02  0.45594000000E+02  0.51100000000E-03 0. -1.
         11   -1    0    0    0    0 -0.00000000000E+00 -0.00000000000E+00 -0.45593999997E+02  0.45594000000E+02  0.51100000000E-03 0.  1.
         23    2    1    2    0    0  0.00000000000E+00  0.00000000000E+00  0.00000000000E+00  0.91188000000E+02  0.91188000000E+02 0.  0.
    9900012    2    3    3    0    0 -0.29208150415E+02  0.11057530137E+02  0.19503755489E+02  0.54367061642E+02  0.39999948625E+02 0.  0.
        -12    1    3    3    0    0  0.29208150415E+02 -0.11057530137E+02 -0.19503755489E+02  0.36820938358E+02  0.00000000000E+00 0.  1.
         11    1    4    4    0    0  0.37398786166E+01 -0.19640560428E+01  0.10983566066E+01  0.43646988101E+01  0.51100000000E-03 0. -1.
        -11    1    4    4    0    0 -0.12486653459E+02 -0.48404600507E+01 -0.48525786682E+01  0.14244089585E+02  0.51100000000E-03 0.  1.
        -12    1    4    4    0    0 -0.20461375573E+02  0.17862046230E+02  0.23257977550E+02  0.35758273247E+02  0.00000000000E+00 0.  1.
</event>
<event>
 8    1  0.2516265E-006  0.9118800E+02  0.7816164E-02  0.1184000E+00
        -11   -1    0    0    0    0  0.00000000000E+00  0.00000000000E+00  0.45593999997E+02  0.45594000000E+02  0.51100000000E-03 0. -1.
         11   -1    0    0    0    0 -0.00000000000E+00 -0.00000000000E+00 -0.45593999997E+02  0.45594000000E+02  0.51100000000E-03 0.  1.
         23    2    1    2    0    0  0.00000000000E+00  0.00000000000E+00  0.00000000000E+00  0.91188000000E+02  0.91188000000E+02 0.  0.
    9900012    2    3    3    0    0 -0.32909953200E+01 -0.12898389841E+02  0.34330467124E+02  0.54367080896E+02  0.39999992520E+02 0.  0.
        -12    1    3    3    0    0  0.32909953200E+01  0.12898389841E+02 -0.34330467124E+02  0.36820919104E+02  0.00000000000E+00 0.  1.
         11    1    4    4    0    0 -0.15689304410E+02 -0.26952611741E+01  0.14704566847E+02  0.21671248051E+02  0.51100000000E-03 0. -1.
        -11    1    4    4    0    0  0.66863940557E+01 -0.48180669027E+01  0.22788183540E+02  0.24232683373E+02  0.51100000000E-03 0.  1.
        -12    1    4    4    0    0  0.57119150346E+01 -0.53850617644E+01 -0.31622832622E+01  0.84631494728E+01  0.00000000000E+00 0.  1.
</event>
<event>
 8    1  0.2516265E-006  0.9118800E+02  0.7816164E-02  0.1184000E+00
        -11   -1    0    0    0    0  0.00000000000E+00  0.00000000000E+00  0.45593999997E+02  0.45594000000E+02  0.51100000000E-03 0.  1.
         11   -1    0    0    0    0 -0.00000000000E+00 -0.00000000000E+00 -0.45593999997E+02  0.45594000000E+02  0.51100000000E-03 0. -1.
         23    2    1    2    0    0 -0.17763568394E-14  0.17763568394E-14  0.00000000000E+00  0.91188000000E+02  0.91188000000E+02 0.  0.
    9900012    2    3    3    0    0  0.13029279247E+02  0.93865474276E+01  0.33134669053E+02  0.54367140646E+02  0.40000128731E+02 0.  0.
         12    1    3    3    0    0 -0.13029279247E+02 -0.93865474276E+01 -0.33134669053E+02  0.36820859354E+02  0.00000000000E+00 0. -1.
         11    1    4    4    0    0  0.56556347197E+01 -0.57066805514E+01 -0.57762350069E+00  0.80551881522E+01  0.51100000000E-03 0. -1.
        -11    1    4    4    0    0  0.92206352724E+01 -0.55831443299E+01  0.14151110851E+02  0.17788916606E+02  0.51100000000E-03 0.  1.
         12    1    4    4    0    0 -0.18469907453E+01  0.20676372309E+02  0.19561181703E+02  0.28523035888E+02  0.00000000000E+00 0. -1.
</event>
<event>
 8    1  0.2516265E-006  0.9118800E+02  0.7816164E-02  0.1184000E+00
        -11   -1    0    0    0    0  0.00000000000E+00  0.00000000000E+00  0.45593999997E+02  0.45594000000E+02  0.51100000000E-03 0. -1.
         11   -1    0    0    0    0 -0.00000000000E+00 -0.00000000000E+00 -0.45593999997E+02  0.45594000000E+02  0.51100000000E-03 0.  1.
         23    2    1    2    0    0  0.00000000000E+00  0.17763568394E-14  0.00000000000E+00  0.91188000000E+02  0.91188000000E+02 0.  0.
    9900012    2    3    3    0    0  0.22413345249E+02 -0.15168344356E+02  0.24966853074E+02  0.54367075675E+02  0.39999980615E+02 0.  0.
        -12    1    3    3    0    0 -0.22413345249E+02  0.15168344356E+02 -0.24966853074E+02  0.36820924325E+02  0.00000000000E+00 0.  1.
         11    1    4    4    0    0 -0.27615790315E+01 -0.71208952131E+01 -0.21767364209E+01  0.79417661191E+01  0.51100000000E-03 0.  1.
        -11    1    4    4    0    0  0.15709525630E+02 -0.18002571661E+02  0.18171770204E+02  0.30018244694E+02  0.51100000000E-03 0. -1.
        -12    1    4    4    0    0  0.94653986508E+01  0.99551225181E+01  0.89718192911E+01  0.16407064861E+02  0.00000000000E+00 0.  1.
</event>
<event>
 8    1  0.2516265E-006  0.9118800E+02  0.7816164E-02  0.1184000E+00
        -11   -1    0    0    0    0  0.00000000000E+00  0.00000000000E+00  0.45593999997E+02  0.45594000000E+02  0.51100000000E-03 0.  1.
         11   -1    0    0    0    0 -0.00000000000E+00 -0.00000000000E+00 -0.45593999997E+02  0.45594000000E+02  0.51100000000E-03 0. -1.
         23    2    1    2    0    0  0.00000000000E+00  0.00000000000E+00 -0.71054273576E-14  0.91188000000E+02  0.91188000000E+02 0.  0.
    9900012    2    3    3    0    0  0.18374267948E+02  0.91551258880E+01  0.30567133185E+02  0.54367086326E+02  0.40000004896E+02 0.  0.
         12    1    3    3    0    0 -0.18374267948E+02 -0.91551258880E+01 -0.30567133185E+02  0.36820913674E+02  0.00000000000E+00 0. -1.
         11    1    4    4    0    0 -0.22657601061E+01 -0.32363435233E+00 -0.63381120521E+01  0.67386996297E+01  0.51100000000E-03 0. -1.
        -11    1    4    4    0    0  0.11645780893E+02  0.51600748259E+01  0.35293427530E+02  0.37521681890E+02  0.51100000000E-03 0.  1.
         12    1    4    4    0    0  0.89942471613E+01  0.43186854144E+01  0.16118177078E+01  0.10106704806E+02  0.00000000000E+00 0. -1.
</event>
<event>
 8    1  0.2516265E-006  0.9118800E+02  0.7816164E-02  0.1184000E+00
        -11   -1    0    0    0    0  0.00000000000E+00  0.00000000000E+00  0.45593999997E+02  0.45594000000E+02  0.51100000000E-03 0.  1.
         11   -1    0    0    0    0 -0.00000000000E+00 -0.00000000000E+00 -0.45593999997E+02  0.45594000000E+02  0.51100000000E-03 0. -1.
         23    2    1    2    0    0  0.00000000000E+00  0.00000000000E+00  0.00000000000E+00  0.91188000000E+02  0.91188000000E+02 0.  0.
    9900012    2    3    3    0    0 -0.21143945030E+02 -0.12048451234E+02  0.27632380576E+02  0.54367081423E+02  0.39999993720E+02 0.  0.
         12    1    3    3    0    0  0.21143945030E+02  0.12048451234E+02 -0.27632380576E+02  0.36820918577E+02  0.00000000000E+00 0. -1.
         11    1    4    4    0    0 -0.10920840444E+02 -0.19856539901E+00  0.13258715272E+01  0.11002823265E+02  0.51100000000E-03 0. -1.
        -11    1    4    4    0    0 -0.13259590730E+02  0.49942722609E+01  0.21207424241E+02  0.25505182708E+02  0.51100000000E-03 0.  1.
        -12    1    4    4    0    0  0.30364861446E+01 -0.16844158096E+02  0.50990848069E+01  0.17859075450E+02  0.00000000000E+00 0.  1.
</event>
<event>
 8    1  0.2516265E-006  0.9118800E+02  0.7816164E-02  0.1184000E+00
        -11   -1    0    0    0    0  0.00000000000E+00  0.00000000000E+00  0.45593999997E+02  0.45594000000E+02  0.51100000000E-03 0.  1.
         11   -1    0    0    0    0 -0.00000000000E+00 -0.00000000000E+00 -0.45593999997E+02  0.45594000000E+02  0.51100000000E-03 0. -1.
         23    2    1    2    0    0  0.00000000000E+00 -0.88817841970E-15 -0.71054273576E-14  0.91188000000E+02  0.91188000000E+02 0.  0.
    9900012    2    3    3    0    0  0.90756761786E+00 -0.72507005078E+01  0.36088556829E+02  0.54367078355E+02  0.39999986725E+02 0.  0.
         12    1    3    3    0    0 -0.90756761786E+00  0.72507005078E+01 -0.36088556829E+02  0.36820921645E+02  0.00000000000E+00 0. -1.
         11    1    4    4    0    0 -0.97340924465E+01 -0.57392932965E+01  0.79740024535E+00  0.11328190090E+02  0.51100000000E-03 0. -1.
        -11    1    4    4    0    0  0.47385133955E+01  0.43389026916E+01 -0.35690391178E+00  0.64348245065E+01  0.51100000000E-03 0.  1.
        -12    1    4    4    0    0  0.59031466688E+01 -0.58503099028E+01  0.35648060495E+02  0.36604063758E+02  0.00000000000E+00 0.  1.
</event>
<event>
 8    1  0.2516265E-006  0.9118800E+02  0.7816164E-02  0.1184000E+00
        -11   -1    0    0    0    0  0.00000000000E+00  0.00000000000E+00  0.45593999997E+02  0.45594000000E+02  0.51100000000E-03 0. -1.
         11   -1    0    0    0    0 -0.00000000000E+00 -0.00000000000E+00 -0.45593999997E+02  0.45594000000E+02  0.51100000000E-03 0.  1.
         23    2    1    2    0    0 -0.35527136788E-14  0.00000000000E+00 -0.35527136788E-14  0.91188000000E+02  0.91188000000E+02 0.  0.
    9900012    2    3    3    0    0  0.23424953497E+02  0.16778515753E+02  0.22924544430E+02  0.54367057935E+02  0.39999940174E+02 0.  0.
        -12    1    3    3    0    0 -0.23424953497E+02 -0.16778515753E+02 -0.22924544430E+02  0.36820942065E+02  0.00000000000E+00 0.  1.
         11    1    4    4    0    0  0.30784344517E+02  0.15576485968E+02  0.12780556375E+02  0.36791920362E+02  0.51100000000E-03 0. -1.
        -11    1    4    4    0    0 -0.86454791979E+01 -0.91786220479E+00  0.18104731593E+01  0.88805740192E+01  0.51100000000E-03 0.  1.
         12    1    4    4    0    0  0.12860881787E+01  0.21198919894E+01  0.83335148966E+01  0.86945635533E+01  0.00000000000E+00 0. -1.
</event>
<event>
 8    1  0.2516265E-006  0.9118800E+02  0.7816164E-02  0.1184000E+00
        -11   -1    0    0    0    0  0.00000000000E+00  0.00000000000E+00  0.45593999997E+02  0.45594000000E+02  0.51100000000E-03 0.  1.
         11   -1    0    0    0    0 -0.00000000000E+00 -0.00000000000E+00 -0.45593999997E+02  0.45594000000E+02  0.51100000000E-03 0. -1.
         23    2    1    2    0    0  0.35527136788E-14  0.00000000000E+00 -0.35527136788E-14  0.91188000000E+02  0.91188000000E+02 0.  0.
    9900012    2    3    3    0    0  0.24073721126E+02 -0.97723204526E+01 -0.26090924101E+02  0.54367100821E+02  0.40000037942E+02 0.  0.
        -12    1    3    3    0    0 -0.24073721126E+02  0.97723204526E+01  0.26090924101E+02  0.36820899179E+02  0.00000000000E+00 0.  1.
         11    1    4    4    0    0  0.10809839648E+02 -0.97550044275E+01 -0.11077240904E+02  0.18295300241E+02  0.51100000000E-03 0. -1.
        -11    1    4    4    0    0  0.17170655347E+02 -0.10202776245E+02 -0.36216369456E+01  0.20298874417E+02  0.51100000000E-03 0.  1.
        -12    1    4    4    0    0 -0.39067738697E+01  0.10185460220E+02 -0.11392046251E+02  0.15772926163E+02  0.00000000000E+00 0.  1.
</event>
<event>
 8    1  0.2516265E-006  0.9118800E+02  0.7816164E-02  0.1184000E+00
        -11   -1    0    0    0    0  0.00000000000E+00  0.00000000000E+00  0.45593999997E+02  0.45594000000E+02  0.51100000000E-03 0.  1.
         11   -1    0    0    0    0 -0.00000000000E+00 -0.00000000000E+00 -0.45593999997E+02  0.45594000000E+02  0.51100000000E-03 0. -1.
         23    2    1    2    0    0  0.00000000000E+00 -0.11102230246E-15  0.00000000000E+00  0.91188000000E+02  0.91188000000E+02 0.  0.
    9900012    2    3    3    0    0 -0.32230419850E+02 -0.35722715452E+00 -0.17800336884E+02  0.54367087897E+02  0.40000008479E+02 0.  0.
         12    1    3    3    0    0  0.32230419850E+02  0.35722715452E+00  0.17800336884E+02  0.36820912103E+02  0.00000000000E+00 0. -1.
         11    1    4    4    0    0 -0.53812509318E+01 -0.35449998010E+01 -0.18928938364E+02  0.19995739372E+02  0.51100000000E-03 0. -1.
        -11    1    4    4    0    0 -0.58340049198E+01  0.90700467601E+00 -0.91318254374E+01  0.10874212935E+02  0.51100000000E-03 0.  1.
        -12    1    4    4    0    0 -0.21015163998E+02  0.22807679705E+01  0.10260426917E+02  0.23497135590E+02  0.00000000000E+00 0.  1.
</event>
<event>
 8    1  0.2516265E-006  0.9118800E+02  0.7816164E-02  0.1184000E+00
        -11   -1    0    0    0    0  0.00000000000E+00  0.00000000000E+00  0.45593999997E+02  0.45594000000E+02  0.51100000000E-03 0.  1.
         11   -1    0    0    0    0 -0.00000000000E+00 -0.00000000000E+00 -0.45593999997E+02  0.45594000000E+02  0.51100000000E-03 0. -1.
         23    2    1    2    0    0  0.00000000000E+00  0.00000000000E+00  0.00000000000E+00  0.91188000000E+02  0.91188000000E+02 0.  0.
    9900012    2    3    3    0    0  0.25947792422E+02 -0.54116060433E+01 -0.25557885363E+02  0.54367096755E+02  0.40000028673E+02 0.  0.
        -12    1    3    3    0    0 -0.25947792422E+02  0.54116060433E+01  0.25557885363E+02  0.36820903245E+02  0.00000000000E+00 0.  1.
         11    1    4    4    0    0  0.21100393926E+02 -0.11507364945E+01 -0.20375874278E+02  0.29355188147E+02  0.51100000000E-03 0. -1.
        -11    1    4    4    0    0  0.97581427591E+01  0.69024613871E+01 -0.45841478285E+01  0.12801552050E+02  0.51100000000E-03 0.  1.
         12    1    4    4    0    0 -0.49107442630E+01 -0.11163330936E+02 -0.59786325608E+00  0.12210356558E+02  0.00000000000E+00 0. -1.
</event>
<event>
 8    1  0.2516265E-006  0.9118800E+02  0.7816164E-02  0.1184000E+00
        -11   -1    0    0    0    0  0.00000000000E+00  0.00000000000E+00  0.45593999997E+02  0.45594000000E+02  0.51100000000E-03 0. -1.
         11   -1    0    0    0    0 -0.00000000000E+00 -0.00000000000E+00 -0.45593999997E+02  0.45594000000E+02  0.51100000000E-03 0.  1.
         23    2    1    2    0    0  0.00000000000E+00  0.35527136788E-14  0.00000000000E+00  0.91188000000E+02  0.91188000000E+02 0.  0.
    9900012    2    3    3    0    0  0.25526856873E+02  0.26204920541E+02  0.41774934347E+01  0.54367221439E+02  0.40000312914E+02 0.  0.
         12    1    3    3    0    0 -0.25526856873E+02 -0.26204920541E+02 -0.41774934347E+01  0.36820778561E+02  0.00000000000E+00 0. -1.
         11    1    4    4    0    0  0.12122093286E+02  0.13403683770E+02  0.85521177227E+01  0.19993564015E+02  0.51100000000E-03 0.  1.
        -11    1    4    4    0    0  0.10292182168E+02 -0.61916939955E+01  0.49455834178E+01  0.12989414302E+02  0.51100000000E-03 0. -1.
         12    1    4    4    0    0  0.31125814198E+01  0.18992930767E+02 -0.93202077058E+01  0.21384243122E+02  0.00000000000E+00 0. -1.
</event>
<event>
 8    1  0.2516265E-006  0.9118800E+02  0.7816164E-02  0.1184000E+00
        -11   -1    0    0    0    0  0.00000000000E+00  0.00000000000E+00  0.45593999997E+02  0.45594000000E+02  0.51100000000E-03 0. -1.
         11   -1    0    0    0    0 -0.00000000000E+00 -0.00000000000E+00 -0.45593999997E+02  0.45594000000E+02  0.51100000000E-03 0.  1.
         23    2    1    2    0    0  0.00000000000E+00  0.35527136788E-14  0.00000000000E+00  0.91188000000E+02  0.91188000000E+02 0.  0.
    9900012    2    3    3    0    0  0.12673959485E+02 -0.29965790682E+02  0.17239845065E+02  0.54366944636E+02  0.39999681885E+02 0.  0.
        -12    1    3    3    0    0 -0.12673959485E+02  0.29965790682E+02 -0.17239845065E+02  0.36821055364E+02  0.00000000000E+00 0.  1.
         11    1    4    4    0    0  0.11043253937E+02  0.52787084953E+01  0.14351467183E+02  0.18862206431E+02  0.51100000000E-03 0. -1.
        -11    1    4    4    0    0  0.16065371972E+01 -0.23993680077E+02  0.31369576910E+01  0.24251147379E+02  0.51100000000E-03 0.  1.
         12    1    4    4    0    0  0.24168350968E-01 -0.11250819101E+02 -0.24857980860E+00  0.11253590826E+02  0.00000000000E+00 0. -1.
</event>
<event>
 8    1  0.2516265E-006  0.9118800E+02  0.7816164E-02  0.1184000E+00
        -11   -1    0    0    0    0  0.00000000000E+00  0.00000000000E+00  0.45593999997E+02  0.45594000000E+02  0.51100000000E-03 0. -1.
         11   -1    0    0    0    0 -0.00000000000E+00 -0.00000000000E+00 -0.45593999997E+02  0.45594000000E+02  0.51100000000E-03 0.  1.
         23    2    1    2    0    0 -0.26645352591E-14  0.00000000000E+00  0.00000000000E+00  0.91188000000E+02  0.91188000000E+02 0.  0.
    9900012    2    3    3    0    0 -0.54222535006E+01  0.10731751565E+02 -0.34802462791E+02  0.54367044812E+02  0.39999910257E+02 0.  0.
         12    1    3    3    0    0  0.54222535006E+01 -0.10731751565E+02  0.34802462791E+02  0.36820955188E+02  0.00000000000E+00 0. -1.
         11    1    4    4    0    0  0.47719919195E+01 -0.49171217072E+01  0.23262554355E+01  0.72361217082E+01  0.51100000000E-03 0. -1.
        -11    1    4    4    0    0  0.50562224892E+01  0.12303743867E+02 -0.19186036819E+02  0.23346338215E+02  0.51100000000E-03 0.  1.
         12    1    4    4    0    0 -0.15250467909E+02  0.33451294054E+01 -0.17942681408E+02  0.23784584888E+02  0.00000000000E+00 0. -1.
</event>
<event>
 8    1  0.2516265E-006  0.9118800E+02  0.7816164E-02  0.1184000E+00
        -11   -1    0    0    0    0  0.00000000000E+00  0.00000000000E+00  0.45593999997E+02  0.45594000000E+02  0.51100000000E-03 0. -1.
         11   -1    0    0    0    0 -0.00000000000E+00 -0.00000000000E+00 -0.45593999997E+02  0.45594000000E+02  0.51100000000E-03 0.  1.
         23    2    1    2    0    0  0.35527136788E-14  0.00000000000E+00  0.00000000000E+00  0.91188000000E+02  0.91188000000E+02 0.  0.
    9900012    2    3    3    0    0 -0.29128296073E+02  0.11255830545E+02 -0.19509625237E+02  0.54367125075E+02  0.40000093233E+02 0.  0.
         12    1    3    3    0    0  0.29128296073E+02 -0.11255830545E+02  0.19509625237E+02  0.36820874925E+02  0.00000000000E+00 0. -1.
         11    1    4    4    0    0  0.26846856048E+01  0.14047499282E+02 -0.10993698356E+02  0.18038879585E+02  0.51100000000E-03 0. -1.
        -11    1    4    4    0    0 -0.29774069492E+02 -0.34773809860E+01 -0.26653152189E+01  0.30094705483E+02  0.51100000000E-03 0.  1.
        -12    1    4    4    0    0 -0.20389121853E+01  0.68571224879E+00 -0.58506116623E+01  0.62335400063E+01  0.00000000000E+00 0.  1.
</event>
<event>
 8    1  0.2516265E-006  0.9118800E+02  0.7816164E-02  0.1184000E+00
        -11   -1    0    0    0    0  0.00000000000E+00  0.00000000000E+00  0.45593999997E+02  0.45594000000E+02  0.51100000000E-03 0. -1.
         11   -1    0    0    0    0 -0.00000000000E+00 -0.00000000000E+00 -0.45593999997E+02  0.45594000000E+02  0.51100000000E-03 0.  1.
         23    2    1    2    0    0  0.00000000000E+00 -0.35527136788E-14 -0.44408920985E-15  0.91188000000E+02  0.91188000000E+02 0.  0.
    9900012    2    3    3    0    0 -0.32091693599E+02 -0.17854052632E+02  0.26712193224E+01  0.54367090097E+02  0.40000013493E+02 0.  0.
        -12    1    3    3    0    0  0.32091693599E+02  0.17854052632E+02 -0.26712193224E+01  0.36820909903E+02  0.00000000000E+00 0.  1.
         11    1    4    4    0    0 -0.25482860182E+02 -0.19048082953E+02 -0.10198330175E+02  0.33409752556E+02  0.51100000000E-03 0. -1.
        -11    1    4    4    0    0 -0.26970997422E+01  0.70908725817E+01  0.17639469065E+01  0.77888593478E+01  0.51100000000E-03 0.  1.
         12    1    4    4    0    0 -0.39117336743E+01 -0.58968422610E+01  0.11105602591E+02  0.13168478192E+02  0.00000000000E+00 0. -1.
</event>
<event>
 8    1  0.2516265E-006  0.9118800E+02  0.7816164E-02  0.1184000E+00
        -11   -1    0    0    0    0  0.00000000000E+00  0.00000000000E+00  0.45593999997E+02  0.45594000000E+02  0.51100000000E-03 0. -1.
         11   -1    0    0    0    0 -0.00000000000E+00 -0.00000000000E+00 -0.45593999997E+02  0.45594000000E+02  0.51100000000E-03 0.  1.
         23    2    1    2    0    0  0.00000000000E+00  0.00000000000E+00  0.00000000000E+00  0.91188000000E+02  0.91188000000E+02 0.  0.
    9900012    2    3    3    0    0 -0.33500741163E+02  0.11798663645E+02 -0.97090084401E+01  0.54367177533E+02  0.40000212821E+02 0.  0.
         12    1    3    3    0    0  0.33500741163E+02 -0.11798663645E+02  0.97090084401E+01  0.36820822467E+02  0.00000000000E+00 0. -1.
         11    1    4    4    0    0 -0.13701152868E+02  0.13468192218E+02 -0.15665503934E+02  0.24789550324E+02  0.51100000000E-03 0. -1.
        -11    1    4    4    0    0 -0.87173930201E+01 -0.13526279101E+01 -0.78928972756E+01  0.11837245076E+02  0.51100000000E-03 0.  1.
         12    1    4    4    0    0 -0.11082195274E+02 -0.31690066202E+00  0.13849392769E+02  0.17740382132E+02  0.00000000000E+00 0. -1.
</event>
<event>
 8    1  0.2516265E-006  0.9118800E+02  0.7816164E-02  0.1184000E+00
        -11   -1    0    0    0    0  0.00000000000E+00  0.00000000000E+00  0.45593999997E+02  0.45594000000E+02  0.51100000000E-03 0. -1.
         11   -1    0    0    0    0 -0.00000000000E+00 -0.00000000000E+00 -0.45593999997E+02  0.45594000000E+02  0.51100000000E-03 0.  1.
         23    2    1    2    0    0  0.35527136788E-14  0.00000000000E+00 -0.35527136788E-14  0.91188000000E+02  0.91188000000E+02 0.  0.
    9900012    2    3    3    0    0 -0.23253027682E+02 -0.16000486299E+02  0.23644417263E+02  0.54367118345E+02  0.40000077891E+02 0.  0.
        -12    1    3    3    0    0  0.23253027682E+02  0.16000486299E+02 -0.23644417263E+02  0.36820881655E+02  0.00000000000E+00 0.  1.
         11    1    4    4    0    0 -0.89994042513E+01  0.53324995477E+01  0.17424138199E+02  0.20323026855E+02  0.51100000000E-03 0. -1.
        -11    1    4    4    0    0 -0.18729155044E+02 -0.22034343499E+02  0.57985498724E+01  0.29494350696E+02  0.51100000000E-03 0.  1.
        -12    1    4    4    0    0  0.44755316137E+01  0.70135765260E+00  0.42172919122E+00  0.45497407940E+01  0.00000000000E+00 0.  1.
</event>
<event>
 8    1  0.2516265E-006  0.9118800E+02  0.7816164E-02  0.1184000E+00
        -11   -1    0    0    0    0  0.00000000000E+00  0.00000000000E+00  0.45593999997E+02  0.45594000000E+02  0.51100000000E-03 0. -1.
         11   -1    0    0    0    0 -0.00000000000E+00 -0.00000000000E+00 -0.45593999997E+02  0.45594000000E+02  0.51100000000E-03 0.  1.
         23    2    1    2    0    0  0.44408920985E-15  0.35527136788E-14 -0.35527136788E-14  0.91188000000E+02  0.91188000000E+02 0.  0.
    9900012    2    3    3    0    0  0.24919494121E+01  0.26105949643E+02 -0.25846654472E+02  0.54367082493E+02  0.39999996160E+02 0.  0.
         12    1    3    3    0    0 -0.24919494121E+01 -0.26105949643E+02  0.25846654472E+02  0.36820917507E+02  0.00000000000E+00 0. -1.
         11    1    4    4    0    0 -0.10709757019E+02  0.21202023802E+02 -0.11931441831E+01  0.23783361874E+02  0.51100000000E-03 0. -1.
        -11    1    4    4    0    0  0.12487315942E+02  0.37463395163E+01 -0.11573384529E+02  0.17433053345E+02  0.51100000000E-03 0.  1.
        -12    1    4    4    0    0  0.71439048955E+00  0.11575863244E+01 -0.13080125760E+02  0.13150667275E+02  0.00000000000E+00 0.  1.
</event>
<event>
 8    1  0.2516265E-006  0.9118800E+02  0.7816164E-02  0.1184000E+00
        -11   -1    0    0    0    0  0.00000000000E+00  0.00000000000E+00  0.45593999997E+02  0.45594000000E+02  0.51100000000E-03 0.  1.
         11   -1    0    0    0    0 -0.00000000000E+00 -0.00000000000E+00 -0.45593999997E+02  0.45594000000E+02  0.51100000000E-03 0. -1.
         23    2    1    2    0    0  0.88817841970E-15  0.00000000000E+00 -0.88817841970E-15  0.91188000000E+02  0.91188000000E+02 0.  0.
    9900012    2    3    3    0    0  0.64895490232E+01 -0.35829405219E+02 -0.54697841231E+01  0.54367094753E+02  0.40000024108E+02 0.  0.
        -12    1    3    3    0    0 -0.64895490232E+01  0.35829405219E+02  0.54697841231E+01  0.36820905247E+02  0.00000000000E+00 0.  1.
         11    1    4    4    0    0 -0.85518197394E+00 -0.29388254650E+02 -0.49747889408E+01  0.29818607829E+02  0.51100000000E-03 0.  1.
        -11    1    4    4    0    0  0.91199114024E+01 -0.13680716720E+02 -0.29421662099E+01  0.16703027756E+02  0.51100000000E-03 0. -1.
        -12    1    4    4    0    0 -0.17751804052E+01  0.72395661507E+01  0.24471710276E+01  0.78454591682E+01  0.00000000000E+00 0.  1.
</event>
<event>
 8    1  0.2516265E-006  0.9118800E+02  0.7816164E-02  0.1184000E+00
        -11   -1    0    0    0    0  0.00000000000E+00  0.00000000000E+00  0.45593999997E+02  0.45594000000E+02  0.51100000000E-03 0. -1.
         11   -1    0    0    0    0 -0.00000000000E+00 -0.00000000000E+00 -0.45593999997E+02  0.45594000000E+02  0.51100000000E-03 0.  1.
         23    2    1    2    0    0  0.44408920985E-15 -0.71054273576E-14  0.00000000000E+00  0.91188000000E+02  0.91188000000E+02 0.  0.
    9900012    2    3    3    0    0 -0.24994553834E+01 -0.35798593391E+02  0.82458239355E+01  0.54367079610E+02  0.39999989586E+02 0.  0.
         12    1    3    3    0    0  0.24994553834E+01  0.35798593391E+02 -0.82458239355E+01  0.36820920390E+02  0.00000000000E+00 0. -1.
         11    1    4    4    0    0  0.33193995436E+01  0.40559176630E+01 -0.13119513338E+00  0.52427181732E+01  0.51100000000E-03 0. -1.
        -11    1    4    4    0    0 -0.81556451173E+01  0.52548439892E-01  0.34159217996E+01  0.88422751948E+01  0.51100000000E-03 0.  1.
        -12    1    4    4    0    0  0.23367901903E+01 -0.39907059494E+02  0.49610972693E+01  0.40282086242E+02  0.00000000000E+00 0.  1.
</event>
<event>
 8    1  0.2516265E-006  0.9118800E+02  0.7816164E-02  0.1184000E+00
        -11   -1    0    0    0    0  0.00000000000E+00  0.00000000000E+00  0.45593999997E+02  0.45594000000E+02  0.51100000000E-03 0.  1.
         11   -1    0    0    0    0 -0.00000000000E+00 -0.00000000000E+00 -0.45593999997E+02  0.45594000000E+02  0.51100000000E-03 0. -1.
         23    2    1    2    0    0  0.71054273576E-14 -0.11102230246E-15 -0.88817841970E-15  0.91188000000E+02  0.91188000000E+02 0.  0.
    9900012    2    3    3    0    0  0.36416343985E+02  0.91555387609E+00 -0.53657016345E+01  0.54367094224E+02  0.40000022902E+02 0.  0.
        -12    1    3    3    0    0 -0.36416343985E+02 -0.91555387609E+00  0.53657016345E+01  0.36820905776E+02  0.00000000000E+00 0.  1.
         11    1    4    4    0    0  0.50609192917E+01  0.18929391197E+00  0.64626944879E+00  0.51055264884E+01  0.51100000000E-03 0. -1.
        -11    1    4    4    0    0  0.38917246629E+02 -0.17683962587E+01 -0.10191787265E+02  0.40268496849E+02  0.51100000000E-03 0.  1.
        -12    1    4    4    0    0 -0.75618219359E+01  0.24946562228E+01  0.41798161820E+01  0.89930708868E+01  0.00000000000E+00 0.  1.
</event>
<event>
 8    1  0.2516265E-006  0.9118800E+02  0.7816164E-02  0.1184000E+00
        -11   -1    0    0    0    0  0.00000000000E+00  0.00000000000E+00  0.45593999997E+02  0.45594000000E+02  0.51100000000E-03 0.  1.
         11   -1    0    0    0    0 -0.00000000000E+00 -0.00000000000E+00 -0.45593999997E+02  0.45594000000E+02  0.51100000000E-03 0. -1.
         23    2    1    2    0    0  0.00000000000E+00 -0.35527136788E-14 -0.35527136788E-14  0.91188000000E+02  0.91188000000E+02 0.  0.
    9900012    2    3    3    0    0  0.14348584160E+02  0.20533472424E+02 -0.26986565406E+02  0.54367081087E+02  0.39999992955E+02 0.  0.
        -12    1    3    3    0    0 -0.14348584160E+02 -0.20533472424E+02  0.26986565406E+02  0.36820918913E+02  0.00000000000E+00 0.  1.
         11    1    4    4    0    0  0.18028872163E+02  0.85665109021E+01 -0.73740203634E+01  0.21279133372E+02  0.51100000000E-03 0. -1.
        -11    1    4    4    0    0  0.56405641612E+01 -0.46460702828E+01 -0.33404381822E+01  0.80349524354E+01  0.51100000000E-03 0.  1.
         12    1    4    4    0    0 -0.93208521642E+01  0.16613031805E+02 -0.16272106860E+02  0.25052995280E+02  0.00000000000E+00 0. -1.
</event>
<event>
 8    1  0.2516265E-006  0.9118800E+02  0.7816164E-02  0.1184000E+00
        -11   -1    0    0    0    0  0.00000000000E+00  0.00000000000E+00  0.45593999997E+02  0.45594000000E+02  0.51100000000E-03 0.  1.
         11   -1    0    0    0    0 -0.00000000000E+00 -0.00000000000E+00 -0.45593999997E+02  0.45594000000E+02  0.51100000000E-03 0. -1.
         23    2    1    2    0    0  0.17763568394E-14  0.00000000000E+00  0.71054273576E-14  0.91188000000E+02  0.91188000000E+02 0.  0.
    9900012    2    3    3    0    0  0.10572055168E+02 -0.18397591353E+02  0.30092194189E+02  0.54367083809E+02  0.39999999160E+02 0.  0.
        -12    1    3    3    0    0 -0.10572055168E+02  0.18397591353E+02 -0.30092194189E+02  0.36820916191E+02  0.00000000000E+00 0.  1.
         11    1    4    4    0    0  0.42131924136E+01 -0.53808307973E+01  0.19925797562E+01  0.71186167708E+01  0.51100000000E-03 0. -1.
        -11    1    4    4    0    0  0.73223964044E+01 -0.24924748618E+02  0.20460936551E+02  0.33068270405E+02  0.51100000000E-03 0.  1.
         12    1    4    4    0    0 -0.96353365011E+00  0.11907988062E+02  0.76386778818E+01  0.14180196634E+02  0.00000000000E+00 0. -1.
</event>
<event>
 8    1  0.2516265E-006  0.9118800E+02  0.7816164E-02  0.1184000E+00
        -11   -1    0    0    0    0  0.00000000000E+00  0.00000000000E+00  0.45593999997E+02  0.45594000000E+02  0.51100000000E-03 0. -1.
         11   -1    0    0    0    0 -0.00000000000E+00 -0.00000000000E+00 -0.45593999997E+02  0.45594000000E+02  0.51100000000E-03 0.  1.
         23    2    1    2    0    0  0.17763568394E-14  0.00000000000E+00  0.00000000000E+00  0.91188000000E+02  0.91188000000E+02 0.  0.
    9900012    2    3    3    0    0 -0.93540451649E+01 -0.95082474296E+01 -0.34320177210E+02  0.54367088905E+02  0.40000010777E+02 0.  0.
         12    1    3    3    0    0  0.93540451649E+01  0.95082474296E+01  0.34320177210E+02  0.36820911095E+02  0.00000000000E+00 0. -1.
         11    1    4    4    0    0 -0.18202870537E+01 -0.13727358465E+02 -0.96424633612E+00  0.13881051352E+02  0.51100000000E-03 0. -1.
        -11    1    4    4    0    0 -0.41856841080E+01  0.25670812910E+00  0.20739749804E+01  0.46783782443E+01  0.51100000000E-03 0.  1.
        -12    1    4    4    0    0 -0.33480740031E+01  0.39624029061E+01 -0.35429905854E+02  0.35807659309E+02  0.00000000000E+00 0.  1.
</event>
<event>
 8    1  0.2516265E-006  0.9118800E+02  0.7816164E-02  0.1184000E+00
        -11   -1    0    0    0    0  0.00000000000E+00  0.00000000000E+00  0.45593999997E+02  0.45594000000E+02  0.51100000000E-03 0. -1.
         11   -1    0    0    0    0 -0.00000000000E+00 -0.00000000000E+00 -0.45593999997E+02  0.45594000000E+02  0.51100000000E-03 0.  1.
         23    2    1    2    0    0 -0.71054273576E-14  0.36082248300E-15  0.00000000000E+00  0.91188000000E+02  0.91188000000E+02 0.  0.
    9900012    2    3    3    0    0  0.34423393773E+02  0.11962278976E+00 -0.13068853819E+02  0.54367091692E+02  0.40000017131E+02 0.  0.
         12    1    3    3    0    0 -0.34423393773E+02 -0.11962278976E+00  0.13068853819E+02  0.36820908308E+02  0.00000000000E+00 0. -1.
         11    1    4    4    0    0  0.56083172114E+01 -0.74200144274E+01  0.90704557807E+01  0.12991651334E+02  0.51100000000E-03 0. -1.
        -11    1    4    4    0    0  0.28754891965E+02  0.58919795469E+01 -0.13023709083E+02  0.32111932882E+02  0.51100000000E-03 0.  1.
         12    1    4    4    0    0  0.60184596951E-01  0.16476576703E+01 -0.91156005168E+01  0.92635074764E+01  0.00000000000E+00 0. -1.
</event>
<event>
 8    1  0.2516265E-006  0.9118800E+02  0.7816164E-02  0.1184000E+00
        -11   -1    0    0    0    0  0.00000000000E+00  0.00000000000E+00  0.45593999997E+02  0.45594000000E+02  0.51100000000E-03 0. -1.
         11   -1    0    0    0    0 -0.00000000000E+00 -0.00000000000E+00 -0.45593999997E+02  0.45594000000E+02  0.51100000000E-03 0.  1.
         23    2    1    2    0    0  0.88817841970E-15 -0.35527136788E-14  0.00000000000E+00  0.91188000000E+02  0.91188000000E+02 0.  0.
    9900012    2    3    3    0    0 -0.60341352026E+01  0.19099718724E+02  0.30896127707E+02  0.54367071844E+02  0.39999971882E+02 0.  0.
        -12    1    3    3    0    0  0.60341352026E+01 -0.19099718724E+02 -0.30896127707E+02  0.36820928156E+02  0.00000000000E+00 0.  1.
         11    1    4    4    0    0 -0.33836680923E+01  0.19736156555E+01  0.29152659206E+02  0.29414654640E+02  0.51100000000E-03 0. -1.
        -11    1    4    4    0    0 -0.94069875667E+01  0.74718632343E+01  0.45380746328E+01  0.12841895378E+02  0.51100000000E-03 0.  1.
         12    1    4    4    0    0  0.67565204565E+01  0.96542398343E+01 -0.27946061321E+01  0.12110521826E+02  0.00000000000E+00 0. -1.
</event>
<event>
 8    1  0.2516265E-006  0.9118800E+02  0.7816164E-02  0.1184000E+00
        -11   -1    0    0    0    0  0.00000000000E+00  0.00000000000E+00  0.45593999997E+02  0.45594000000E+02  0.51100000000E-03 0.  1.
         11   -1    0    0    0    0 -0.00000000000E+00 -0.00000000000E+00 -0.45593999997E+02  0.45594000000E+02  0.51100000000E-03 0. -1.
         23    2    1    2    0    0 -0.88817841970E-15  0.71054273576E-14  0.17763568394E-14  0.91188000000E+02  0.91188000000E+02 0.  0.
    9900012    2    3    3    0    0  0.66912202171E+01 -0.34564234550E+02  0.10785231837E+02  0.54367082524E+02  0.39999996230E+02 0.  0.
        -12    1    3    3    0    0 -0.66912202171E+01  0.34564234550E+02 -0.10785231837E+02  0.36820917476E+02  0.00000000000E+00 0.  1.
         11    1    4    4    0    0  0.93270025279E+01 -0.15123917449E+02 -0.43352989048E+01  0.18289906288E+02  0.51100000000E-03 0. -1.
        -11    1    4    4    0    0  0.90663143296E+01 -0.50664131780E+01 -0.23033497764E+01  0.10638233804E+02  0.51100000000E-03 0.  1.
         12    1    4    4    0    0 -0.11702096640E+02 -0.14373903922E+02  0.17423880518E+02  0.25438942432E+02  0.00000000000E+00 0. -1.
</event>
<event>
 8    1  0.2516265E-006  0.9118800E+02  0.7816164E-02  0.1184000E+00
        -11   -1    0    0    0    0  0.00000000000E+00  0.00000000000E+00  0.45593999997E+02  0.45594000000E+02  0.51100000000E-03 0.  1.
         11   -1    0    0    0    0 -0.00000000000E+00 -0.00000000000E+00 -0.45593999997E+02  0.45594000000E+02  0.51100000000E-03 0. -1.
         23    2    1    2    0    0 -0.17763568394E-14  0.35527136788E-14  0.35527136788E-14  0.91188000000E+02  0.91188000000E+02 0.  0.
    9900012    2    3    3    0    0  0.82940832759E+01 -0.31969969682E+02 -0.16276043742E+02  0.54367076889E+02  0.39999983385E+02 0.  0.
         12    1    3    3    0    0 -0.82940832759E+01  0.31969969682E+02  0.16276043742E+02  0.36820923111E+02  0.00000000000E+00 0. -1.
         11    1    4    4    0    0 -0.44944289093E+01 -0.11612999197E+02 -0.16077181324E+02  0.20335619026E+02  0.51100000000E-03 0. -1.
        -11    1    4    4    0    0  0.20715260041E+01 -0.38159306974E+01 -0.10808410449E+02  0.11647930450E+02  0.51100000000E-03 0.  1.
        -12    1    4    4    0    0  0.10716986181E+02 -0.16541039787E+02  0.10609548031E+02  0.22383527414E+02  0.00000000000E+00 0.  1.
</event>
<event>
 8    1  0.2516265E-006  0.9118800E+02  0.7816164E-02  0.1184000E+00
        -11   -1    0    0    0    0  0.00000000000E+00  0.00000000000E+00  0.45593999997E+02  0.45594000000E+02  0.51100000000E-03 0. -1.
         11   -1    0    0    0    0 -0.00000000000E+00 -0.00000000000E+00 -0.45593999997E+02  0.45594000000E+02  0.51100000000E-03 0.  1.
         23    2    1    2    0    0  0.00000000000E+00  0.35527136788E-14 -0.35527136788E-14  0.91188000000E+02  0.91188000000E+02 0.  0.
    9900012    2    3    3    0    0 -0.90130043272E+01 -0.25362405157E+02  0.25125588020E+02  0.54367068240E+02  0.39999963666E+02 0.  0.
        -12    1    3    3    0    0  0.90130043272E+01  0.25362405157E+02 -0.25125588020E+02  0.36820931760E+02  0.00000000000E+00 0.  1.
         11    1    4    4    0    0 -0.56658924207E+01 -0.89405748128E+01  0.95928288262E+01  0.14284907422E+02  0.51100000000E-03 0. -1.
        -11    1    4    4    0    0 -0.11638475416E+01 -0.10387036563E+02 -0.95703648155E+01  0.14171695475E+02  0.51100000000E-03 0.  1.
        -12    1    4    4    0    0 -0.21832643649E+01 -0.60347937808E+01  0.25103124009E+02  0.25910465343E+02  0.00000000000E+00 0.  1.
</event>
<event>
 8    1  0.2516265E-006  0.9118800E+02  0.7816164E-02  0.1184000E+00
        -11   -1    0    0    0    0  0.00000000000E+00  0.00000000000E+00  0.45593999997E+02  0.45594000000E+02  0.51100000000E-03 0.  1.
         11   -1    0    0    0    0 -0.00000000000E+00 -0.00000000000E+00 -0.45593999997E+02  0.45594000000E+02  0.51100000000E-03 0. -1.
         23    2    1    2    0    0 -0.35527136788E-14 -0.17763568394E-14  0.71054273576E-14  0.91188000000E+02  0.91188000000E+02 0.  0.
    9900012    2    3    3    0    0  0.25084073594E+02 -0.11111755503E+02 -0.24558048031E+02  0.54367087715E+02  0.40000008065E+02 0.  0.
        -12    1    3    3    0    0 -0.25084073594E+02  0.11111755503E+02  0.24558048031E+02  0.36820912285E+02  0.00000000000E+00 0.  1.
         11    1    4    4    0    0  0.14521275900E+01  0.41940567740E+01 -0.10633183281E+02  0.11522298977E+02  0.51100000000E-03 0. -1.
        -11    1    4    4    0    0  0.16630717172E+02 -0.20881823125E+02 -0.48768793392E+00  0.26699609182E+02  0.51100000000E-03 0.  1.
        -12    1    4    4    0    0  0.70012288319E+01  0.55760108486E+01 -0.13437176816E+02  0.16145179557E+02  0.00000000000E+00 0.  1.
</event>
<event>
 8    1  0.2516265E-006  0.9118800E+02  0.7816164E-02  0.1184000E+00
        -11   -1    0    0    0    0  0.00000000000E+00  0.00000000000E+00  0.45593999997E+02  0.45594000000E+02  0.51100000000E-03 0.  1.
         11   -1    0    0    0    0 -0.00000000000E+00 -0.00000000000E+00 -0.45593999997E+02  0.45594000000E+02  0.51100000000E-03 0. -1.
         23    2    1    2    0    0  0.00000000000E+00  0.17763568394E-14  0.00000000000E+00  0.91188000000E+02  0.91188000000E+02 0.  0.
    9900012    2    3    3    0    0 -0.78004667785E+01 -0.29612829405E+01  0.35863129946E+02  0.54367074318E+02  0.39999977522E+02 0.  0.
         12    1    3    3    0    0  0.78004667785E+01  0.29612829405E+01 -0.35863129946E+02  0.36820925682E+02  0.00000000000E+00 0. -1.
         11    1    4    4    0    0 -0.27364717244E+01  0.98116601402E+01 -0.18491645944E+01  0.10352601710E+02  0.51100000000E-03 0. -1.
        -11    1    4    4    0    0 -0.39706511274E+00 -0.16219134892E+02  0.31973510132E+02  0.35854195679E+02  0.51100000000E-03 0.  1.
        -12    1    4    4    0    0 -0.46669299413E+01  0.34461918113E+01  0.57387844080E+01  0.81602769291E+01  0.00000000000E+00 0.  1.
</event>
<event>
 8    1  0.2516265E-006  0.9118800E+02  0.7816164E-02  0.1184000E+00
        -11   -1    0    0    0    0  0.00000000000E+00  0.00000000000E+00  0.45593999997E+02  0.45594000000E+02  0.51100000000E-03 0. -1.
         11   -1    0    0    0    0 -0.00000000000E+00 -0.00000000000E+00 -0.45593999997E+02  0.45594000000E+02  0.51100000000E-03 0.  1.
         23    2    1    2    0    0  0.00000000000E+00  0.17763568394E-14  0.00000000000E+00  0.91188000000E+02  0.91188000000E+02 0.  0.
    9900012    2    3    3    0    0  0.26692772315E+02 -0.42180093579E+01 -0.25009672225E+02  0.54367090158E+02  0.40000013634E+02 0.  0.
         12    1    3    3    0    0 -0.26692772315E+02  0.42180093579E+01  0.25009672225E+02  0.36820909842E+02  0.00000000000E+00 0. -1.
         11    1    4    4    0    0 -0.47978130779E+01 -0.72343962599E+01 -0.82863755703E+01  0.12000813303E+02  0.51100000000E-03 0. -1.
        -11    1    4    4    0    0  0.29339529355E+02  0.95221350259E+01 -0.91968394018E+01  0.32187899799E+02  0.51100000000E-03 0.  1.
        -12    1    4    4    0    0  0.21510560370E+01 -0.65057481239E+01 -0.75264572525E+01  0.10178377056E+02  0.00000000000E+00 0.  1.
</event>
<event>
 8    1  0.2516265E-006  0.9118800E+02  0.7816164E-02  0.1184000E+00
        -11   -1    0    0    0    0  0.00000000000E+00  0.00000000000E+00  0.45593999997E+02  0.45594000000E+02  0.51100000000E-03 0.  1.
         11   -1    0    0    0    0 -0.00000000000E+00 -0.00000000000E+00 -0.45593999997E+02  0.45594000000E+02  0.51100000000E-03 0. -1.
         23    2    1    2    0    0  0.71054273576E-14  0.17763568394E-14  0.00000000000E+00  0.91188000000E+02  0.91188000000E+02 0.  0.
    9900012    2    3    3    0    0  0.33492330508E+02  0.14285359989E+02  0.54746432108E+01  0.54367089757E+02  0.40000012718E+02 0.  0.
         12    1    3    3    0    0 -0.33492330508E+02 -0.14285359989E+02 -0.54746432108E+01  0.36820910243E+02  0.00000000000E+00 0. -1.
         11    1    4    4    0    0 -0.41537490876E+00  0.10754049336E+01 -0.41191820858E+01  0.42774634310E+01  0.51100000000E-03 0. -1.
        -11    1    4    4    0    0 -0.62598493548E+01 -0.12616777591E+01  0.22322643856E+01  0.67646544080E+01  0.51100000000E-03 0.  1.
        -12    1    4    4    0    0  0.40167554771E+02  0.14471632814E+02  0.73615609111E+01  0.43324971918E+02  0.00000000000E+00 0.  1.
</event>
<event>
 8    1  0.2516265E-006  0.9118800E+02  0.7816164E-02  0.1184000E+00
        -11   -1    0    0    0    0  0.00000000000E+00  0.00000000000E+00  0.45593999997E+02  0.45594000000E+02  0.51100000000E-03 0. -1.
         11   -1    0    0    0    0 -0.00000000000E+00 -0.00000000000E+00 -0.45593999997E+02  0.45594000000E+02  0.51100000000E-03 0.  1.
         23    2    1    2    0    0  0.88817841970E-15  0.35527136788E-14 -0.71054273576E-14  0.91188000000E+02  0.91188000000E+02 0.  0.
    9900012    2    3    3    0    0  0.54817967376E+01 -0.18693086429E+02  0.31245779619E+02  0.54367077690E+02  0.39999985211E+02 0.  0.
        -12    1    3    3    0    0 -0.54817967376E+01  0.18693086429E+02 -0.31245779619E+02  0.36820922310E+02  0.00000000000E+00 0.  1.
         11    1    4    4    0    0  0.15774648604E+02 -0.36274025744E+01  0.14751471331E+02  0.21899851477E+02  0.51100000000E-03 0. -1.
        -11    1    4    4    0    0 -0.49498018967E+00 -0.13471501545E+02  0.31363901561E+00  0.13484240022E+02  0.51100000000E-03 0.  1.
         12    1    4    4    0    0 -0.97978716772E+01 -0.15941823097E+01  0.16180669272E+02  0.18982986191E+02  0.00000000000E+00 0. -1.
</event>
<event>
 8    1  0.2516265E-006  0.9118800E+02  0.7816164E-02  0.1184000E+00
        -11   -1    0    0    0    0  0.00000000000E+00  0.00000000000E+00  0.45593999997E+02  0.45594000000E+02  0.51100000000E-03 0.  1.
         11   -1    0    0    0    0 -0.00000000000E+00 -0.00000000000E+00 -0.45593999997E+02  0.45594000000E+02  0.51100000000E-03 0. -1.
         23    2    1    2    0    0  0.00000000000E+00  0.88817841970E-15 -0.71054273576E-14  0.91188000000E+02  0.91188000000E+02 0.  0.
    9900012    2    3    3    0    0  0.10745917915E+02  0.74426302194E+01 -0.34422540828E+02  0.54367098144E+02  0.40000031839E+02 0.  0.
        -12    1    3    3    0    0 -0.10745917915E+02 -0.74426302194E+01  0.34422540828E+02  0.36820901856E+02  0.00000000000E+00 0.  1.
         11    1    4    4    0    0  0.21531622431E+01 -0.39143294012E+01  0.23922647703E+01  0.50676437620E+01  0.51100000000E-03 0.  1.
        -11    1    4    4    0    0 -0.30480358055E+01  0.11296241303E+02 -0.35742989595E+02  0.37609266083E+02  0.51100000000E-03 0. -1.
         12    1    4    4    0    0  0.11640791477E+02  0.60718317564E-01 -0.10718160032E+01  0.11690188299E+02  0.00000000000E+00 0. -1.
</event>
<event>
 8    1  0.2516265E-006  0.9118800E+02  0.7816164E-02  0.1184000E+00
        -11   -1    0    0    0    0  0.00000000000E+00  0.00000000000E+00  0.45593999997E+02  0.45594000000E+02  0.51100000000E-03 0.  1.
         11   -1    0    0    0    0 -0.00000000000E+00 -0.00000000000E+00 -0.45593999997E+02  0.45594000000E+02  0.51100000000E-03 0. -1.
         23    2    1    2    0    0 -0.17763568394E-14  0.00000000000E+00  0.17763568394E-14  0.91188000000E+02  0.91188000000E+02 0.  0.
    9900012    2    3    3    0    0 -0.11155896012E+02 -0.34126232210E+02  0.81686271762E+01  0.54367079172E+02  0.39999988588E+02 0.  0.
         12    1    3    3    0    0  0.11155896012E+02  0.34126232210E+02 -0.81686271762E+01  0.36820920828E+02  0.00000000000E+00 0. -1.
         11    1    4    4    0    0  0.77407688003E+01 -0.14056450256E+02 -0.30804873617E+01  0.16339911201E+02  0.51100000000E-03 0. -1.
        -11    1    4    4    0    0  0.17274104602E+00 -0.14299052343E+02 -0.14925554166E+01  0.14377776577E+02  0.51100000000E-03 0.  1.
        -12    1    4    4    0    0 -0.19069405858E+02 -0.57707296113E+01  0.12741669955E+02  0.23649391393E+02  0.00000000000E+00 0.  1.
</event>
<event>
 8    1  0.2516265E-006  0.9118800E+02  0.7816164E-02  0.1184000E+00
        -11   -1    0    0    0    0  0.00000000000E+00  0.00000000000E+00  0.45593999997E+02  0.45594000000E+02  0.51100000000E-03 0. -1.
         11   -1    0    0    0    0 -0.00000000000E+00 -0.00000000000E+00 -0.45593999997E+02  0.45594000000E+02  0.51100000000E-03 0.  1.
         23    2    1    2    0    0  0.17763568394E-14 -0.17763568394E-14  0.00000000000E+00  0.91188000000E+02  0.91188000000E+02 0.  0.
    9900012    2    3    3    0    0  0.13678718218E+02  0.11714056642E+02 -0.32116274178E+02  0.54367061362E+02  0.39999947986E+02 0.  0.
         12    1    3    3    0    0 -0.13678718218E+02 -0.11714056642E+02  0.32116274178E+02  0.36820938638E+02  0.00000000000E+00 0. -1.
         11    1    4    4    0    0  0.34302033881E+01  0.17713102197E+02 -0.39268113228E+00  0.18046453487E+02  0.51100000000E-03 0. -1.
        -11    1    4    4    0    0 -0.14450231788E+01  0.19060575299E+01 -0.10931590479E+02  0.11190210809E+02  0.51100000000E-03 0.  1.
         12    1    4    4    0    0  0.11693538009E+02 -0.79051030841E+01 -0.20792002567E+02  0.25130397066E+02  0.00000000000E+00 0. -1.
</event>
<event>
 8    1  0.2516265E-006  0.9118800E+02  0.7816164E-02  0.1184000E+00
        -11   -1    0    0    0    0  0.00000000000E+00  0.00000000000E+00  0.45593999997E+02  0.45594000000E+02  0.51100000000E-03 0.  1.
         11   -1    0    0    0    0 -0.00000000000E+00 -0.00000000000E+00 -0.45593999997E+02  0.45594000000E+02  0.51100000000E-03 0. -1.
         23    2    1    2    0    0  0.71054273576E-14 -0.17763568394E-14  0.88817841970E-15  0.91188000000E+02  0.91188000000E+02 0.  0.
    9900012    2    3    3    0    0 -0.34979973064E+02  0.93479472017E+01  0.66932176249E+01  0.54367057662E+02  0.39999939552E+02 0.  0.
         12    1    3    3    0    0  0.34979973064E+02 -0.93479472017E+01 -0.66932176249E+01  0.36820942338E+02  0.00000000000E+00 0. -1.
         11    1    4    4    0    0 -0.28441642999E+02  0.64883570496E+01 -0.67578119218E+01  0.29944846901E+02  0.51100000000E-03 0. -1.
        -11    1    4    4    0    0  0.11210840841E+01 -0.72744267784E+01  0.29077396882E+01  0.79138527174E+01  0.51100000000E-03 0.  1.
        -12    1    4    4    0    0 -0.76594141497E+01  0.10134016931E+02  0.10543289859E+02  0.16508358044E+02  0.00000000000E+00 0.  1.
</event>
<event>
 8    1  0.2516265E-006  0.9118800E+02  0.7816164E-02  0.1184000E+00
        -11   -1    0    0    0    0  0.00000000000E+00  0.00000000000E+00  0.45593999997E+02  0.45594000000E+02  0.51100000000E-03 0.  1.
         11   -1    0    0    0    0 -0.00000000000E+00 -0.00000000000E+00 -0.45593999997E+02  0.45594000000E+02  0.51100000000E-03 0. -1.
         23    2    1    2    0    0 -0.88817841970E-15  0.00000000000E+00  0.00000000000E+00  0.91188000000E+02  0.91188000000E+02 0.  0.
    9900012    2    3    3    0    0 -0.69027546417E+01  0.17112835702E+02  0.31863496947E+02  0.54367087394E+02  0.40000007332E+02 0.  0.
         12    1    3    3    0    0  0.69027546417E+01 -0.17112835702E+02 -0.31863496947E+02  0.36820912606E+02  0.00000000000E+00 0. -1.
         11    1    4    4    0    0 -0.73443413582E+01  0.86155144341E+01 -0.76359374635E+01  0.13655547596E+02  0.51100000000E-03 0. -1.
        -11    1    4    4    0    0 -0.13922108107E+01  0.65984492349E+01  0.21886870161E+02  0.22902245937E+02  0.51100000000E-03 0.  1.
         12    1    4    4    0    0  0.18337975273E+01  0.18988720334E+01  0.17612564250E+02  0.17809293861E+02  0.00000000000E+00 0. -1.
</event>
<event>
 8    1  0.2516265E-006  0.9118800E+02  0.7816164E-02  0.1184000E+00
        -11   -1    0    0    0    0  0.00000000000E+00  0.00000000000E+00  0.45593999997E+02  0.45594000000E+02  0.51100000000E-03 0. -1.
         11   -1    0    0    0    0 -0.00000000000E+00 -0.00000000000E+00 -0.45593999997E+02  0.45594000000E+02  0.51100000000E-03 0.  1.
         23    2    1    2    0    0 -0.26645352591E-14  0.00000000000E+00  0.00000000000E+00  0.91188000000E+02  0.91188000000E+02 0.  0.
    9900012    2    3    3    0    0 -0.63030735479E+01  0.41353815829E+01 -0.36040938045E+02  0.54367091101E+02  0.40000015782E+02 0.  0.
         12    1    3    3    0    0  0.63030735479E+01 -0.41353815829E+01  0.36040938045E+02  0.36820908899E+02  0.00000000000E+00 0. -1.
         11    1    4    4    0    0  0.53661218247E+01 -0.75014382029E+01 -0.32742712369E+01  0.97871186232E+01  0.51100000000E-03 0. -1.
        -11    1    4    4    0    0  0.55140865990E+01  0.98394484358E+01 -0.20476613134E+02  0.23377587177E+02  0.51100000000E-03 0.  1.
         12    1    4    4    0    0 -0.17183281972E+02  0.17973713500E+01 -0.12290053675E+02  0.21202385300E+02  0.00000000000E+00 0. -1.
</event>
<event>
 8    1  0.2516265E-006  0.9118800E+02  0.7816164E-02  0.1184000E+00
        -11   -1    0    0    0    0  0.00000000000E+00  0.00000000000E+00  0.45593999997E+02  0.45594000000E+02  0.51100000000E-03 0.  1.
         11   -1    0    0    0    0 -0.00000000000E+00 -0.00000000000E+00 -0.45593999997E+02  0.45594000000E+02  0.51100000000E-03 0. -1.
         23    2    1    2    0    0 -0.88817841970E-15 -0.71054273576E-14  0.00000000000E+00  0.91188000000E+02  0.91188000000E+02 0.  0.
    9900012    2    3    3    0    0  0.63976849429E+01  0.35812629938E+02  0.56838045532E+01  0.54367075652E+02  0.39999980563E+02 0.  0.
         12    1    3    3    0    0 -0.63976849429E+01 -0.35812629938E+02 -0.56838045532E+01  0.36820924348E+02  0.00000000000E+00 0. -1.
         11    1    4    4    0    0 -0.48651934958E+01 -0.21004321492E+01  0.15704815398E+01  0.55270548661E+01  0.51100000000E-03 0. -1.
        -11    1    4    4    0    0  0.15548390432E+02  0.88044997132E+01  0.71831512186E+01  0.19257967752E+02  0.51100000000E-03 0.  1.
         12    1    4    4    0    0 -0.42855119934E+01  0.29108562374E+02 -0.30698282051E+01  0.29582053034E+02  0.00000000000E+00 0. -1.
</event>
<event>
 8    1  0.2516265E-006  0.9118800E+02  0.7816164E-02  0.1184000E+00
        -11   -1    0    0    0    0  0.00000000000E+00  0.00000000000E+00  0.45593999997E+02  0.45594000000E+02  0.51100000000E-03 0.  1.
         11   -1    0    0    0    0 -0.00000000000E+00 -0.00000000000E+00 -0.45593999997E+02  0.45594000000E+02  0.51100000000E-03 0. -1.
         23    2    1    2    0    0  0.17763568394E-14  0.17763568394E-14 -0.71054273576E-14  0.91188000000E+02  0.91188000000E+02 0.  0.
    9900012    2    3    3    0    0  0.14749206217E+02 -0.49251543902E+01 -0.33376448830E+02  0.54367033604E+02  0.39999884707E+02 0.  0.
        -12    1    3    3    0    0 -0.14749206217E+02  0.49251543902E+01  0.33376448830E+02  0.36820966396E+02  0.00000000000E+00 0.  1.
         11    1    4    4    0    0 -0.45903367420E+00 -0.16073991746E+02 -0.58396883856E+01  0.17108064861E+02  0.51100000000E-03 0. -1.
        -11    1    4    4    0    0 -0.30698753822E+01 -0.21940256209E+00 -0.63484509136E+01  0.70551471714E+01  0.51100000000E-03 0.  1.
         12    1    4    4    0    0  0.18278115273E+02  0.11368239918E+02 -0.21188309531E+02  0.30203821572E+02  0.00000000000E+00 0. -1.
</event>
<event>
 8    1  0.2516265E-006  0.9118800E+02  0.7816164E-02  0.1184000E+00
        -11   -1    0    0    0    0  0.00000000000E+00  0.00000000000E+00  0.45593999997E+02  0.45594000000E+02  0.51100000000E-03 0.  1.
         11   -1    0    0    0    0 -0.00000000000E+00 -0.00000000000E+00 -0.45593999997E+02  0.45594000000E+02  0.51100000000E-03 0. -1.
         23    2    1    2    0    0  0.00000000000E+00  0.00000000000E+00 -0.35527136788E-14  0.91188000000E+02  0.91188000000E+02 0.  0.
    9900012    2    3    3    0    0  0.30070257764E+01  0.20412020371E+02  0.30497334457E+02  0.54367079470E+02  0.39999989269E+02 0.  0.
         12    1    3    3    0    0 -0.30070257764E+01 -0.20412020371E+02 -0.30497334457E+02  0.36820920530E+02  0.00000000000E+00 0. -1.
         11    1    4    4    0    0  0.58490947716E+00  0.24831835480E+02  0.13442680823E+02  0.28243014010E+02  0.51100000000E-03 0. -1.
        -11    1    4    4    0    0  0.81437354462E+00  0.75392205354E+01  0.51018786681E+01  0.91395960937E+01  0.51100000000E-03 0.  1.
         12    1    4    4    0    0  0.16077427546E+01 -0.11959035644E+02  0.11952774966E+02  0.16984469367E+02  0.00000000000E+00 0. -1.
</event>
<event>
 8    1  0.2516265E-006  0.9118800E+02  0.7816164E-02  0.1184000E+00
        -11   -1    0    0    0    0  0.00000000000E+00  0.00000000000E+00  0.45593999997E+02  0.45594000000E+02  0.51100000000E-03 0.  1.
         11   -1    0    0    0    0 -0.00000000000E+00 -0.00000000000E+00 -0.45593999997E+02  0.45594000000E+02  0.51100000000E-03 0. -1.
         23    2    1    2    0    0  0.00000000000E+00 -0.35527136788E-14  0.00000000000E+00  0.91188000000E+02  0.91188000000E+02 0.  0.
    9900012    2    3    3    0    0  0.11436284384E+02  0.30320845693E+02 -0.17482499607E+02  0.54367080993E+02  0.39999992739E+02 0.  0.
         12    1    3    3    0    0 -0.11436284384E+02 -0.30320845693E+02  0.17482499607E+02  0.36820919007E+02  0.00000000000E+00 0. -1.
         11    1    4    4    0    0  0.37247639080E+01  0.33629101914E+02 -0.24612048425E+01  0.33924149086E+02  0.51100000000E-03 0.  1.
        -11    1    4    4    0    0 -0.25673010127E+01 -0.11143045458E+01 -0.11174956693E+01  0.30135537066E+01  0.51100000000E-03 0. -1.
         12    1    4    4    0    0  0.10278821489E+02 -0.21939516748E+01 -0.13903799095E+02  0.17429378200E+02  0.00000000000E+00 0. -1.
</event>
<event>
 8    1  0.2516265E-006  0.9118800E+02  0.7816164E-02  0.1184000E+00
        -11   -1    0    0    0    0  0.00000000000E+00  0.00000000000E+00  0.45593999997E+02  0.45594000000E+02  0.51100000000E-03 0.  1.
         11   -1    0    0    0    0 -0.00000000000E+00 -0.00000000000E+00 -0.45593999997E+02  0.45594000000E+02  0.51100000000E-03 0. -1.
         23    2    1    2    0    0  0.00000000000E+00  0.00000000000E+00  0.00000000000E+00  0.91188000000E+02  0.91188000000E+02 0.  0.
    9900012    2    3    3    0    0 -0.32819608668E+02  0.17211727395E+01  0.16603938873E+02  0.54367082917E+02  0.39999997126E+02 0.  0.
         12    1    3    3    0    0  0.32819608668E+02 -0.17211727395E+01 -0.16603938873E+02  0.36820917083E+02  0.00000000000E+00 0. -1.
         11    1    4    4    0    0 -0.11590431029E+02  0.13742418166E+02  0.88932073956E+01  0.20056951078E+02  0.51100000000E-03 0. -1.
        -11    1    4    4    0    0 -0.12517490016E+02  0.30293844046E+01 -0.38332649557E+01  0.13437211268E+02  0.51100000000E-03 0.  1.
         12    1    4    4    0    0 -0.87116876226E+01 -0.15050629831E+02  0.11543996433E+02  0.20872920572E+02  0.00000000000E+00 0. -1.
</event>
<event>
 8    1  0.2516265E-006  0.9118800E+02  0.7816164E-02  0.1184000E+00
        -11   -1    0    0    0    0  0.00000000000E+00  0.00000000000E+00  0.45593999997E+02  0.45594000000E+02  0.51100000000E-03 0. -1.
         11   -1    0    0    0    0 -0.00000000000E+00 -0.00000000000E+00 -0.45593999997E+02  0.45594000000E+02  0.51100000000E-03 0.  1.
         23    2    1    2    0    0 -0.35527136788E-14 -0.35527136788E-14  0.00000000000E+00  0.91188000000E+02  0.91188000000E+02 0.  0.
    9900012    2    3    3    0    0  0.27989237662E+02  0.17446681731E+02  0.16370544120E+02  0.54367097742E+02  0.40000030923E+02 0.  0.
        -12    1    3    3    0    0 -0.27989237662E+02 -0.17446681731E+02 -0.16370544120E+02  0.36820902258E+02  0.00000000000E+00 0.  1.
         11    1    4    4    0    0  0.28725797969E+02  0.14136368521E+02  0.11995688695E+02  0.34189251695E+02  0.51100000000E-03 0. -1.
        -11    1    4    4    0    0 -0.11598072786E+01  0.59471458342E+01 -0.65549969185E+01  0.89264596207E+01  0.51100000000E-03 0.  1.
        -12    1    4    4    0    0  0.42324697127E+00 -0.26368326240E+01  0.10929852343E+02  0.11251386427E+02  0.00000000000E+00 0.  1.
</event>
<event>
 8    1  0.2516265E-006  0.9118800E+02  0.7816164E-02  0.1184000E+00
        -11   -1    0    0    0    0  0.00000000000E+00  0.00000000000E+00  0.45593999997E+02  0.45594000000E+02  0.51100000000E-03 0. -1.
         11   -1    0    0    0    0 -0.00000000000E+00 -0.00000000000E+00 -0.45593999997E+02  0.45594000000E+02  0.51100000000E-03 0.  1.
         23    2    1    2    0    0 -0.17763568394E-14 -0.17763568394E-14  0.10658141036E-13  0.91188000000E+02  0.91188000000E+02 0.  0.
    9900012    2    3    3    0    0 -0.11816397852E+02 -0.15145272945E+02  0.31412954034E+02  0.54367078883E+02  0.39999987929E+02 0.  0.
        -12    1    3    3    0    0  0.11816397852E+02  0.15145272945E+02 -0.31412954034E+02  0.36820921117E+02  0.00000000000E+00 0.  1.
         11    1    4    4    0    0  0.31609909496E+01 -0.12993151397E+00  0.47029888569E+00  0.31984257510E+01  0.51100000000E-03 0. -1.
        -11    1    4    4    0    0 -0.38330038547E+01  0.56961924909E+01 -0.48033247979E+01  0.83791680267E+01  0.51100000000E-03 0.  1.
        -12    1    4    4    0    0 -0.11144384947E+02 -0.20711533922E+02  0.35745979946E+02  0.42789485105E+02  0.00000000000E+00 0.  1.
</event>
<event>
 8    1  0.2516265E-006  0.9118800E+02  0.7816164E-02  0.1184000E+00
        -11   -1    0    0    0    0  0.00000000000E+00  0.00000000000E+00  0.45593999997E+02  0.45594000000E+02  0.51100000000E-03 0. -1.
         11   -1    0    0    0    0 -0.00000000000E+00 -0.00000000000E+00 -0.45593999997E+02  0.45594000000E+02  0.51100000000E-03 0.  1.
         23    2    1    2    0    0  0.00000000000E+00  0.00000000000E+00 -0.35527136788E-14  0.91188000000E+02  0.91188000000E+02 0.  0.
    9900012    2    3    3    0    0 -0.20559404197E+02  0.18375341234E+02  0.24401622217E+02  0.54367062570E+02  0.39999950741E+02 0.  0.
         12    1    3    3    0    0  0.20559404197E+02 -0.18375341234E+02 -0.24401622217E+02  0.36820937430E+02  0.00000000000E+00 0. -1.
         11    1    4    4    0    0 -0.13663621196E+01 -0.58396224897E+00  0.11761616750E+02  0.11855108021E+02  0.51100000000E-03 0. -1.
        -11    1    4    4    0    0 -0.15484276313E+02 -0.48387245361E+01  0.75554104429E+01  0.17895817816E+02  0.51100000000E-03 0.  1.
        -12    1    4    4    0    0 -0.37087657644E+01  0.23798028019E+02  0.50845950235E+01  0.24616136733E+02  0.00000000000E+00 0.  1.
</event>
<event>
 8    1  0.2516265E-006  0.9118800E+02  0.7816164E-02  0.1184000E+00
        -11   -1    0    0    0    0  0.00000000000E+00  0.00000000000E+00  0.45593999997E+02  0.45594000000E+02  0.51100000000E-03 0. -1.
         11   -1    0    0    0    0 -0.00000000000E+00 -0.00000000000E+00 -0.45593999997E+02  0.45594000000E+02  0.51100000000E-03 0.  1.
         23    2    1    2    0    0  0.00000000000E+00  0.00000000000E+00  0.00000000000E+00  0.91188000000E+02  0.91188000000E+02 0.  0.
    9900012    2    3    3    0    0 -0.84536941655E+01  0.90283522677E+01  0.34681463883E+02  0.54367081668E+02  0.39999994279E+02 0.  0.
        -12    1    3    3    0    0  0.84536941655E+01 -0.90283522677E+01 -0.34681463883E+02  0.36820918332E+02  0.00000000000E+00 0.  1.
         11    1    4    4    0    0 -0.42190191797E+01 -0.85888080765E+01  0.12002629547E+01  0.96440851528E+01  0.51100000000E-03 0.  1.
        -11    1    4    4    0    0 -0.11186405382E+02  0.57860250219E+01  0.58807913888E+01  0.13899548861E+02  0.51100000000E-03 0. -1.
         12    1    4    4    0    0  0.69517303962E+01  0.11831135322E+02  0.27600409540E+02  0.30823447654E+02  0.00000000000E+00 0. -1.
</event>
<event>
 8    1  0.2516265E-006  0.9118800E+02  0.7816164E-02  0.1184000E+00
        -11   -1    0    0    0    0  0.00000000000E+00  0.00000000000E+00  0.45593999997E+02  0.45594000000E+02  0.51100000000E-03 0. -1.
         11   -1    0    0    0    0 -0.00000000000E+00 -0.00000000000E+00 -0.45593999997E+02  0.45594000000E+02  0.51100000000E-03 0.  1.
         23    2    1    2    0    0 -0.35527136788E-14  0.00000000000E+00  0.35527136788E-14  0.91188000000E+02  0.91188000000E+02 0.  0.
    9900012    2    3    3    0    0  0.28386155821E+02  0.17815293267E+02 -0.15251952331E+02  0.54367074341E+02  0.39999977575E+02 0.  0.
         12    1    3    3    0    0 -0.28386155821E+02 -0.17815293267E+02  0.15251952331E+02  0.36820925659E+02  0.00000000000E+00 0. -1.
         11    1    4    4    0    0 -0.93373833638E+00 -0.25301964380E+01  0.98470014145E+01  0.10209662013E+02  0.51100000000E-03 0. -1.
        -11    1    4    4    0    0  0.79323292807E+01  0.28166759174E+01 -0.37152499914E+01  0.92010104771E+01  0.51100000000E-03 0.  1.
         12    1    4    4    0    0  0.21387564876E+02  0.17528813788E+02 -0.21383703754E+02  0.34956401851E+02  0.00000000000E+00 0. -1.
</event>
<event>
 8    1  0.2516265E-006  0.9118800E+02  0.7816164E-02  0.1184000E+00
        -11   -1    0    0    0    0  0.00000000000E+00  0.00000000000E+00  0.45593999997E+02  0.45594000000E+02  0.51100000000E-03 0. -1.
         11   -1    0    0    0    0 -0.00000000000E+00 -0.00000000000E+00 -0.45593999997E+02  0.45594000000E+02  0.51100000000E-03 0.  1.
         23    2    1    2    0    0 -0.88817841970E-15  0.00000000000E+00  0.00000000000E+00  0.91188000000E+02  0.91188000000E+02 0.  0.
    9900012    2    3    3    0    0 -0.35953380414E+01 -0.34318906854E+02 -0.12847820566E+02  0.54367077734E+02  0.39999985309E+02 0.  0.
         12    1    3    3    0    0  0.35953380414E+01  0.34318906854E+02  0.12847820566E+02  0.36820922266E+02  0.00000000000E+00 0. -1.
         11    1    4    4    0    0 -0.17628127368E+02 -0.16958715330E+02 -0.23987662568E+01  0.24578506463E+02  0.51100000000E-03 0. -1.
        -11    1    4    4    0    0  0.16419276859E+02 -0.18684482885E+02 -0.10637246654E+02  0.27052792275E+02  0.51100000000E-03 0.  1.
        -12    1    4    4    0    0 -0.23864875326E+01  0.13242913606E+01  0.18819234538E+00  0.27357789951E+01  0.00000000000E+00 0.  1.
</event>
<event>
 8    1  0.2516265E-006  0.9118800E+02  0.7816164E-02  0.1184000E+00
        -11   -1    0    0    0    0  0.00000000000E+00  0.00000000000E+00  0.45593999997E+02  0.45594000000E+02  0.51100000000E-03 0.  1.
         11   -1    0    0    0    0 -0.00000000000E+00 -0.00000000000E+00 -0.45593999997E+02  0.45594000000E+02  0.51100000000E-03 0. -1.
         23    2    1    2    0    0  0.00000000000E+00  0.00000000000E+00 -0.17763568394E-14  0.91188000000E+02  0.91188000000E+02 0.  0.
    9900012    2    3    3    0    0 -0.31375322331E+02  0.11027118948E+02  0.15804152724E+02  0.54367089542E+02  0.40000012228E+02 0.  0.
         12    1    3    3    0    0  0.31375322331E+02 -0.11027118948E+02 -0.15804152724E+02  0.36820910458E+02  0.00000000000E+00 0. -1.
         11    1    4    4    0    0 -0.88080214328E+01  0.47202797763E+01  0.12645829554E+02  0.16117670058E+02  0.51100000000E-03 0. -1.
        -11    1    4    4    0    0 -0.12227723156E+02  0.17899375995E+02  0.59224614964E+01  0.22471769512E+02  0.51100000000E-03 0.  1.
         12    1    4    4    0    0 -0.10339577743E+02 -0.11592536824E+02 -0.27641383270E+01  0.15777649971E+02  0.00000000000E+00 0. -1.
</event>
<event>
 8    1  0.2516265E-006  0.9118800E+02  0.7816164E-02  0.1184000E+00
        -11   -1    0    0    0    0  0.00000000000E+00  0.00000000000E+00  0.45593999997E+02  0.45594000000E+02  0.51100000000E-03 0.  1.
         11   -1    0    0    0    0 -0.00000000000E+00 -0.00000000000E+00 -0.45593999997E+02  0.45594000000E+02  0.51100000000E-03 0. -1.
         23    2    1    2    0    0  0.17763568394E-14  0.00000000000E+00  0.00000000000E+00  0.91188000000E+02  0.91188000000E+02 0.  0.
    9900012    2    3    3    0    0  0.10907919726E+02 -0.13057309372E+02 -0.32654435577E+02  0.54366970633E+02  0.39999741151E+02 0.  0.
        -12    1    3    3    0    0 -0.10907919726E+02  0.13057309372E+02  0.32654435577E+02  0.36821029367E+02  0.00000000000E+00 0.  1.
         11    1    4    4    0    0  0.74994855405E+01 -0.33030290140E+01 -0.25448650188E+02  0.26735483551E+02  0.51100000000E-03 0. -1.
        -11    1    4    4    0    0 -0.72799411269E+01  0.30967337881E+01 -0.75179520258E+01  0.10913611038E+02  0.51100000000E-03 0.  1.
        -12    1    4    4    0    0  0.10688375312E+02 -0.12851014146E+02  0.31216663702E+00  0.16717876044E+02  0.00000000000E+00 0.  1.
</event>
<event>
 8    1  0.2516265E-006  0.9118800E+02  0.7816164E-02  0.1184000E+00
        -11   -1    0    0    0    0  0.00000000000E+00  0.00000000000E+00  0.45593999997E+02  0.45594000000E+02  0.51100000000E-03 0.  1.
         11   -1    0    0    0    0 -0.00000000000E+00 -0.00000000000E+00 -0.45593999997E+02  0.45594000000E+02  0.51100000000E-03 0. -1.
         23    2    1    2    0    0  0.71054273576E-14  0.00000000000E+00  0.00000000000E+00  0.91188000000E+02  0.91188000000E+02 0.  0.
    9900012    2    3    3    0    0 -0.32287062876E+02  0.10421983847E+02  0.14307536529E+02  0.54367112205E+02  0.40000063894E+02 0.  0.
         12    1    3    3    0    0  0.32287062876E+02 -0.10421983847E+02 -0.14307536529E+02  0.36820887795E+02  0.00000000000E+00 0. -1.
         11    1    4    4    0    0 -0.24827011262E+02  0.77969118311E+01 -0.44093600046E+01  0.26393460898E+02  0.51100000000E-03 0. -1.
        -11    1    4    4    0    0 -0.13056931706E+02  0.53755108256E+01  0.10205494770E+02  0.17422161346E+02  0.51100000000E-03 0.  1.
         12    1    4    4    0    0  0.55968800914E+01 -0.27504388092E+01  0.85114017644E+01  0.10551489961E+02  0.00000000000E+00 0. -1.
</event>
<event>
 8    1  0.2516265E-006  0.9118800E+02  0.7816164E-02  0.1184000E+00
        -11   -1    0    0    0    0  0.00000000000E+00  0.00000000000E+00  0.45593999997E+02  0.45594000000E+02  0.51100000000E-03 0.  1.
         11   -1    0    0    0    0 -0.00000000000E+00 -0.00000000000E+00 -0.45593999997E+02  0.45594000000E+02  0.51100000000E-03 0. -1.
         23    2    1    2    0    0  0.35527136788E-14  0.35527136788E-14  0.35527136788E-14  0.91188000000E+02  0.91188000000E+02 0.  0.
    9900012    2    3    3    0    0  0.17480118728E+02  0.25121466851E+02  0.20472829358E+02  0.54367090323E+02  0.40000014010E+02 0.  0.
        -12    1    3    3    0    0 -0.17480118728E+02 -0.25121466851E+02 -0.20472829358E+02  0.36820909677E+02  0.00000000000E+00 0.  1.
         11    1    4    4    0    0  0.66521306065E+01 -0.47018087679E+00  0.10260410263E+02  0.12237153700E+02  0.51100000000E-03 0. -1.
        -11    1    4    4    0    0  0.51997655930E+01  0.12769913079E+02 -0.10358492043E+02  0.17245480565E+02  0.51100000000E-03 0.  1.
         12    1    4    4    0    0  0.56282225284E+01  0.12821734649E+02  0.20570911138E+02  0.24884456058E+02  0.00000000000E+00 0. -1.
</event>
<event>
 8    1  0.2516265E-006  0.9118800E+02  0.7816164E-02  0.1184000E+00
        -11   -1    0    0    0    0  0.00000000000E+00  0.00000000000E+00  0.45593999997E+02  0.45594000000E+02  0.51100000000E-03 0. -1.
         11   -1    0    0    0    0 -0.00000000000E+00 -0.00000000000E+00 -0.45593999997E+02  0.45594000000E+02  0.51100000000E-03 0.  1.
         23    2    1    2    0    0  0.00000000000E+00  0.00000000000E+00  0.00000000000E+00  0.91188000000E+02  0.91188000000E+02 0.  0.
    9900012    2    3    3    0    0 -0.31611197893E+02  0.16456209987E+02  0.92577398679E+01  0.54367076236E+02  0.39999981896E+02 0.  0.
        -12    1    3    3    0    0  0.31611197893E+02 -0.16456209987E+02 -0.92577398679E+01  0.36820923764E+02  0.00000000000E+00 0.  1.
         11    1    4    4    0    0 -0.32765745716E+02  0.51569706858E+01  0.17701302216E+02  0.37596868744E+02  0.51100000000E-03 0. -1.
        -11    1    4    4    0    0 -0.36350400485E+01  0.24372714927E+01 -0.31356535664E+01  0.53838770448E+01  0.51100000000E-03 0.  1.
         12    1    4    4    0    0  0.47895878715E+01  0.88619678083E+01 -0.53079087816E+01  0.11386330447E+02  0.00000000000E+00 0. -1.
</event>
<event>
 8    1  0.2516265E-006  0.9118800E+02  0.7816164E-02  0.1184000E+00
        -11   -1    0    0    0    0  0.00000000000E+00  0.00000000000E+00  0.45593999997E+02  0.45594000000E+02  0.51100000000E-03 0.  1.
         11   -1    0    0    0    0 -0.00000000000E+00 -0.00000000000E+00 -0.45593999997E+02  0.45594000000E+02  0.51100000000E-03 0. -1.
         23    2    1    2    0    0  0.00000000000E+00  0.35527136788E-14 -0.44408920985E-15  0.91188000000E+02  0.91188000000E+02 0.  0.
    9900012    2    3    3    0    0  0.18919392653E+02 -0.31428959015E+02 -0.31712719058E+01  0.54367084087E+02  0.39999999794E+02 0.  0.
        -12    1    3    3    0    0 -0.18919392653E+02  0.31428959015E+02  0.31712719058E+01  0.36820915913E+02  0.00000000000E+00 0.  1.
         11    1    4    4    0    0  0.58425895471E+01 -0.86317334381E+00 -0.70654272753E+01  0.92087558161E+01  0.51100000000E-03 0. -1.
        -11    1    4    4    0    0  0.70789712881E+01 -0.16777270904E+01 -0.10145330210E+02  0.12484163088E+02  0.51100000000E-03 0.  1.
         12    1    4    4    0    0  0.59978318181E+01 -0.28888058581E+02  0.14039485579E+02  0.32674165183E+02  0.00000000000E+00 0. -1.
</event>
<event>
 8    1  0.2516265E-006  0.9118800E+02  0.7816164E-02  0.1184000E+00
        -11   -1    0    0    0    0  0.00000000000E+00  0.00000000000E+00  0.45593999997E+02  0.45594000000E+02  0.51100000000E-03 0.  1.
         11   -1    0    0    0    0 -0.00000000000E+00 -0.00000000000E+00 -0.45593999997E+02  0.45594000000E+02  0.51100000000E-03 0. -1.
         23    2    1    2    0    0  0.00000000000E+00  0.00000000000E+00 -0.53290705182E-14  0.91188000000E+02  0.91188000000E+02 0.  0.
    9900012    2    3    3    0    0  0.24566845698E+02  0.23286855761E+02 -0.14490413507E+02  0.54367086888E+02  0.40000006179E+02 0.  0.
        -12    1    3    3    0    0 -0.24566845698E+02 -0.23286855761E+02  0.14490413507E+02  0.36820913112E+02  0.00000000000E+00 0.  1.
         11    1    4    4    0    0 -0.34001216497E+01 -0.31501840818E+01  0.45118922145E+00  0.46570440149E+01  0.51100000000E-03 0. -1.
        -11    1    4    4    0    0 -0.21740761752E+00  0.13519537797E+02  0.30545264122E+01  0.13862009241E+02  0.51100000000E-03 0.  1.
         12    1    4    4    0    0  0.28184374965E+02  0.12917502046E+02 -0.17996129140E+02  0.35848033632E+02  0.00000000000E+00 0. -1.
</event>
<event>
 8    1  0.2516265E-006  0.9118800E+02  0.7816164E-02  0.1184000E+00
        -11   -1    0    0    0    0  0.00000000000E+00  0.00000000000E+00  0.45593999997E+02  0.45594000000E+02  0.51100000000E-03 0.  1.
         11   -1    0    0    0    0 -0.00000000000E+00 -0.00000000000E+00 -0.45593999997E+02  0.45594000000E+02  0.51100000000E-03 0. -1.
         23    2    1    2    0    0 -0.71054273576E-14  0.00000000000E+00 -0.35527136788E-14  0.91188000000E+02  0.91188000000E+02 0.  0.
    9900012    2    3    3    0    0  0.30362060307E+02  0.16852844802E+02  0.12243650918E+02  0.54367081057E+02  0.39999992885E+02 0.  0.
         12    1    3    3    0    0 -0.30362060307E+02 -0.16852844802E+02 -0.12243650918E+02  0.36820918943E+02  0.00000000000E+00 0. -1.
         11    1    4    4    0    0  0.11077105874E+02 -0.61427781862E+01 -0.18974833351E+01  0.12807671203E+02  0.51100000000E-03 0. -1.
        -11    1    4    4    0    0  0.36956560693E+01  0.21759155825E+01 -0.68868303011E+01  0.81130089524E+01  0.51100000000E-03 0.  1.
        -12    1    4    4    0    0  0.15589298365E+02  0.20819707406E+02  0.21027964554E+02  0.33446400901E+02  0.00000000000E+00 0.  1.
</event>
<event>
 8    1  0.2516265E-006  0.9118800E+02  0.7816164E-02  0.1184000E+00
        -11   -1    0    0    0    0  0.00000000000E+00  0.00000000000E+00  0.45593999997E+02  0.45594000000E+02  0.51100000000E-03 0. -1.
         11   -1    0    0    0    0 -0.00000000000E+00 -0.00000000000E+00 -0.45593999997E+02  0.45594000000E+02  0.51100000000E-03 0.  1.
         23    2    1    2    0    0  0.00000000000E+00 -0.88817841970E-15  0.00000000000E+00  0.91188000000E+02  0.91188000000E+02 0.  0.
    9900012    2    3    3    0    0 -0.32988035659E+02 -0.63697075721E+01  0.15066379971E+02  0.54367089139E+02  0.40000011310E+02 0.  0.
        -12    1    3    3    0    0  0.32988035659E+02  0.63697075721E+01 -0.15066379971E+02  0.36820910861E+02  0.00000000000E+00 0.  1.
         11    1    4    4    0    0  0.51287250811E+01 -0.12059142743E+01  0.82031646590E+01  0.97493569469E+01  0.51100000000E-03 0. -1.
        -11    1    4    4    0    0 -0.40219841978E+02 -0.25210575573E+01  0.46188918213E+01  0.40562613104E+02  0.51100000000E-03 0.  1.
         12    1    4    4    0    0  0.21030812374E+01 -0.26427357404E+01  0.22443234904E+01  0.40551190876E+01  0.00000000000E+00 0. -1.
</event>
<event>
 8    1  0.2516265E-006  0.9118800E+02  0.7816164E-02  0.1184000E+00
        -11   -1    0    0    0    0  0.00000000000E+00  0.00000000000E+00  0.45593999997E+02  0.45594000000E+02  0.51100000000E-03 0. -1.
         11   -1    0    0    0    0 -0.00000000000E+00 -0.00000000000E+00 -0.45593999997E+02  0.45594000000E+02  0.51100000000E-03 0.  1.
         23    2    1    2    0    0  0.00000000000E+00 -0.88817841970E-15  0.00000000000E+00  0.91188000000E+02  0.91188000000E+02 0.  0.
    9900012    2    3    3    0    0  0.27257646620E+02 -0.78872471438E+01 -0.23464653549E+02  0.54367110101E+02  0.40000059097E+02 0.  0.
         12    1    3    3    0    0 -0.27257646620E+02  0.78872471438E+01  0.23464653549E+02  0.36820889899E+02  0.00000000000E+00 0. -1.
         11    1    4    4    0    0  0.17714382223E+02 -0.11379137262E+02 -0.10228123568E+02  0.23407234231E+02  0.51100000000E-03 0. -1.
        -11    1    4    4    0    0 -0.17113476273E+01 -0.14361980318E+01  0.69655549274E+01  0.73150756111E+01  0.51100000000E-03 0.  1.
        -12    1    4    4    0    0  0.11254612025E+02  0.49280881497E+01 -0.20202084908E+02  0.23644800259E+02  0.00000000000E+00 0.  1.
</event>
<event>
 8    1  0.2516265E-006  0.9118800E+02  0.7816164E-02  0.1184000E+00
        -11   -1    0    0    0    0  0.00000000000E+00  0.00000000000E+00  0.45593999997E+02  0.45594000000E+02  0.51100000000E-03 0.  1.
         11   -1    0    0    0    0 -0.00000000000E+00 -0.00000000000E+00 -0.45593999997E+02  0.45594000000E+02  0.51100000000E-03 0. -1.
         23    2    1    2    0    0  0.00000000000E+00  0.00000000000E+00  0.44408920985E-15  0.91188000000E+02  0.91188000000E+02 0.  0.
    9900012    2    3    3    0    0  0.15378836095E+02 -0.33250563299E+02 -0.36973726616E+01  0.54367093928E+02  0.40000022229E+02 0.  0.
        -12    1    3    3    0    0 -0.15378836095E+02  0.33250563299E+02  0.36973726616E+01  0.36820906072E+02  0.00000000000E+00 0.  1.
         11    1    4    4    0    0 -0.28369440682E+01  0.13416313797E+01 -0.36362801034E+01  0.48032030622E+01  0.51100000000E-03 0. -1.
        -11    1    4    4    0    0 -0.86101944920E+01 -0.95042129324E+01 -0.45548645387E+00  0.12832497061E+02  0.51100000000E-03 0.  1.
        -12    1    4    4    0    0  0.26825974656E+02 -0.25087981746E+02  0.39439389571E+00  0.36731393805E+02  0.00000000000E+00 0.  1.
</event>
<event>
 8    1  0.2516265E-006  0.9118800E+02  0.7816164E-02  0.1184000E+00
        -11   -1    0    0    0    0  0.00000000000E+00  0.00000000000E+00  0.45593999997E+02  0.45594000000E+02  0.51100000000E-03 0. -1.
         11   -1    0    0    0    0 -0.00000000000E+00 -0.00000000000E+00 -0.45593999997E+02  0.45594000000E+02  0.51100000000E-03 0.  1.
         23    2    1    2    0    0  0.44408920985E-15 -0.88817841970E-15 -0.71054273576E-14  0.91188000000E+02  0.91188000000E+02 0.  0.
    9900012    2    3    3    0    0  0.21993919552E+01  0.49222389132E+01 -0.36424042605E+02  0.54367127651E+02  0.40000099105E+02 0.  0.
         12    1    3    3    0    0 -0.21993919552E+01 -0.49222389132E+01  0.36424042605E+02  0.36820872349E+02  0.00000000000E+00 0. -1.
         11    1    4    4    0    0  0.41419130388E+01 -0.16536237001E+01 -0.13338822352E+02  0.14064639952E+02  0.51100000000E-03 0. -1.
        -11    1    4    4    0    0  0.47736482955E+01 -0.10031841984E+02 -0.35439164199E-01  0.11109762726E+02  0.51100000000E-03 0.  1.
         12    1    4    4    0    0 -0.67161693790E+01  0.16607704597E+02 -0.23049781088E+02  0.29192724973E+02  0.00000000000E+00 0. -1.
</event>
<event>
 8    1  0.2516265E-006  0.9118800E+02  0.7816164E-02  0.1184000E+00
        -11   -1    0    0    0    0  0.00000000000E+00  0.00000000000E+00  0.45593999997E+02  0.45594000000E+02  0.51100000000E-03 0. -1.
         11   -1    0    0    0    0 -0.00000000000E+00 -0.00000000000E+00 -0.45593999997E+02  0.45594000000E+02  0.51100000000E-03 0.  1.
         23    2    1    2    0    0  0.00000000000E+00  0.00000000000E+00  0.00000000000E+00  0.91188000000E+02  0.91188000000E+02 0.  0.
    9900012    2    3    3    0    0  0.11138041574E+02  0.17537494215E+02 -0.30400001848E+02  0.54367084940E+02  0.40000001738E+02 0.  0.
         12    1    3    3    0    0 -0.11138041574E+02 -0.17537494215E+02  0.30400001848E+02  0.36820915060E+02  0.00000000000E+00 0. -1.
         11    1    4    4    0    0  0.95944196056E+01  0.15345183660E+02 -0.62387880335E+01  0.19142884462E+02  0.51100000000E-03 0. -1.
        -11    1    4    4    0    0  0.12169323948E+02 -0.46092637437E+01 -0.12513533724E+02  0.18053428598E+02  0.51100000000E-03 0.  1.
         12    1    4    4    0    0 -0.10625701979E+02  0.68015742991E+01 -0.11647680091E+02  0.17170771881E+02  0.00000000000E+00 0. -1.
</event>
<event>
 8    1  0.2516265E-006  0.9118800E+02  0.7816164E-02  0.1184000E+00
        -11   -1    0    0    0    0  0.00000000000E+00  0.00000000000E+00  0.45593999997E+02  0.45594000000E+02  0.51100000000E-03 0.  1.
         11   -1    0    0    0    0 -0.00000000000E+00 -0.00000000000E+00 -0.45593999997E+02  0.45594000000E+02  0.51100000000E-03 0. -1.
         23    2    1    2    0    0  0.00000000000E+00  0.00000000000E+00  0.00000000000E+00  0.91188000000E+02  0.91188000000E+02 0.  0.
    9900012    2    3    3    0    0  0.29576384198E+02  0.21319412078E+02  0.51478562593E+01  0.54367078534E+02  0.39999987134E+02 0.  0.
        -12    1    3    3    0    0 -0.29576384198E+02 -0.21319412078E+02 -0.51478562593E+01  0.36820921466E+02  0.00000000000E+00 0.  1.
         11    1    4    4    0    0  0.31059506485E+02  0.27591942524E+02 -0.19399134033E+01  0.41590521752E+02  0.51100000000E-03 0. -1.
        -11    1    4    4    0    0  0.17766126314E+00  0.10465297069E+01 -0.11956176663E+01  0.15988401474E+01  0.51100000000E-03 0.  1.
         12    1    4    4    0    0 -0.16607835505E+01 -0.73190601528E+01  0.82833873288E+01  0.11177716634E+02  0.00000000000E+00 0. -1.
</event>
<event>
 8    1  0.2516265E-006  0.9118800E+02  0.7816164E-02  0.1184000E+00
        -11   -1    0    0    0    0  0.00000000000E+00  0.00000000000E+00  0.45593999997E+02  0.45594000000E+02  0.51100000000E-03 0.  1.
         11   -1    0    0    0    0 -0.00000000000E+00 -0.00000000000E+00 -0.45593999997E+02  0.45594000000E+02  0.51100000000E-03 0. -1.
         23    2    1    2    0    0  0.17763568394E-14  0.00000000000E+00  0.00000000000E+00  0.91188000000E+02  0.91188000000E+02 0.  0.
    9900012    2    3    3    0    0  0.14035498912E+02  0.10560406404E+02 -0.32361430599E+02  0.54367087415E+02  0.40000007381E+02 0.  0.
        -12    1    3    3    0    0 -0.14035498912E+02 -0.10560406404E+02  0.32361430599E+02  0.36820912585E+02  0.00000000000E+00 0.  1.
         11    1    4    4    0    0 -0.17513103084E+01  0.83900417687E+00  0.70662321034E-01  0.19431956232E+01  0.51100000000E-03 0.  1.
        -11    1    4    4    0    0  0.26631543615E+02  0.24231107102E+01 -0.15084497107E+02  0.30702648649E+02  0.51100000000E-03 0. -1.
         12    1    4    4    0    0 -0.10844734395E+02  0.72982915174E+01 -0.17347595813E+02  0.21721243143E+02  0.00000000000E+00 0. -1.
</event>
<event>
 8    1  0.2516265E-006  0.9118800E+02  0.7816164E-02  0.1184000E+00
        -11   -1    0    0    0    0  0.00000000000E+00  0.00000000000E+00  0.45593999997E+02  0.45594000000E+02  0.51100000000E-03 0. -1.
         11   -1    0    0    0    0 -0.00000000000E+00 -0.00000000000E+00 -0.45593999997E+02  0.45594000000E+02  0.51100000000E-03 0.  1.
         23    2    1    2    0    0 -0.88817841970E-15  0.00000000000E+00  0.00000000000E+00  0.91188000000E+02  0.91188000000E+02 0.  0.
    9900012    2    3    3    0    0  0.10920246629E+01 -0.72495337245E+01 -0.36083695598E+02  0.54367063766E+02  0.39999953468E+02 0.  0.
         12    1    3    3    0    0 -0.10920246629E+01  0.72495337245E+01  0.36083695598E+02  0.36820936234E+02  0.00000000000E+00 0. -1.
         11    1    4    4    0    0 -0.68081902618E-01  0.34554141810E+01 -0.90684899305E+01  0.97047427678E+01  0.51100000000E-03 0. -1.
        -11    1    4    4    0    0  0.15073910095E+02 -0.34672561692E+01 -0.24210755910E+02  0.28729868307E+02  0.51100000000E-03 0.  1.
         12    1    4    4    0    0 -0.13913803530E+02 -0.72376917363E+01 -0.28044497575E+01  0.15932452692E+02  0.00000000000E+00 0. -1.
</event>
<event>
 8    1  0.2516265E-006  0.9118800E+02  0.7816164E-02  0.1184000E+00
        -11   -1    0    0    0    0  0.00000000000E+00  0.00000000000E+00  0.45593999997E+02  0.45594000000E+02  0.51100000000E-03 0.  1.
         11   -1    0    0    0    0 -0.00000000000E+00 -0.00000000000E+00 -0.45593999997E+02  0.45594000000E+02  0.51100000000E-03 0. -1.
         23    2    1    2    0    0  0.35527136788E-14  0.00000000000E+00  0.00000000000E+00  0.91188000000E+02  0.91188000000E+02 0.  0.
    9900012    2    3    3    0    0  0.21116928271E+02 -0.99993014252E+01  0.28458195716E+02  0.54367087572E+02  0.40000007738E+02 0.  0.
         12    1    3    3    0    0 -0.21116928271E+02  0.99993014252E+01 -0.28458195716E+02  0.36820912428E+02  0.00000000000E+00 0. -1.
         11    1    4    4    0    0 -0.61115359247E+01  0.61798599760E+01  0.48656581353E+01  0.99607314005E+01  0.51100000000E-03 0. -1.
        -11    1    4    4    0    0  0.19808254461E+02 -0.20911387008E+02  0.17513333090E+02  0.33710085844E+02  0.51100000000E-03 0.  1.
        -12    1    4    4    0    0  0.74202097344E+01  0.47322256066E+01  0.60792044904E+01  0.10696270328E+02  0.00000000000E+00 0.  1.
</event>
<event>
 8    1  0.2516265E-006  0.9118800E+02  0.7816164E-02  0.1184000E+00
        -11   -1    0    0    0    0  0.00000000000E+00  0.00000000000E+00  0.45593999997E+02  0.45594000000E+02  0.51100000000E-03 0. -1.
         11   -1    0    0    0    0 -0.00000000000E+00 -0.00000000000E+00 -0.45593999997E+02  0.45594000000E+02  0.51100000000E-03 0.  1.
         23    2    1    2    0    0 -0.71054273576E-14 -0.17763568394E-14  0.16653345369E-14  0.91188000000E+02  0.91188000000E+02 0.  0.
    9900012    2    3    3    0    0 -0.33227656877E+02  0.15854989895E+02  0.56570428127E+00  0.54367110448E+02  0.40000059888E+02 0.  0.
         12    1    3    3    0    0  0.33227656877E+02 -0.15854989895E+02 -0.56570428127E+00  0.36820889552E+02  0.00000000000E+00 0. -1.
         11    1    4    4    0    0 -0.13041743162E+02  0.91064801067E+01  0.18283499213E+00  0.15907497400E+02  0.51100000000E-03 0. -1.
        -11    1    4    4    0    0 -0.15096995095E+02  0.11655112669E+02 -0.13167348641E+02  0.23176280606E+02  0.51100000000E-03 0.  1.
         12    1    4    4    0    0 -0.50889186194E+01 -0.49066028811E+01  0.13550217930E+02  0.15283332441E+02  0.00000000000E+00 0. -1.
</event>
<event>
 8    1  0.2516265E-006  0.9118800E+02  0.7816164E-02  0.1184000E+00
        -11   -1    0    0    0    0  0.00000000000E+00  0.00000000000E+00  0.45593999997E+02  0.45594000000E+02  0.51100000000E-03 0. -1.
         11   -1    0    0    0    0 -0.00000000000E+00 -0.00000000000E+00 -0.45593999997E+02  0.45594000000E+02  0.51100000000E-03 0.  1.
         23    2    1    2    0    0  0.00000000000E+00  0.00000000000E+00 -0.13322676296E-14  0.91188000000E+02  0.91188000000E+02 0.  0.
    9900012    2    3    3    0    0  0.82357194526E+01 -0.35776714032E+02  0.28248732939E+01  0.54367078625E+02  0.39999987341E+02 0.  0.
         12    1    3    3    0    0 -0.82357194526E+01  0.35776714032E+02 -0.28248732939E+01  0.36820921375E+02  0.00000000000E+00 0. -1.
         11    1    4    4    0    0  0.11046481621E+02 -0.28132854758E+02 -0.14555232633E+02  0.33546044033E+02  0.51100000000E-03 0.  1.
        -11    1    4    4    0    0 -0.16941963143E+01  0.14616000257E+01  0.26549774710E+01  0.34721004333E+01  0.51100000000E-03 0. -1.
         12    1    4    4    0    0 -0.11165658546E+01 -0.91054592999E+01  0.14725128456E+02  0.17348934158E+02  0.00000000000E+00 0. -1.
</event>
<event>
 8    1  0.2516265E-006  0.9118800E+02  0.7816164E-02  0.1184000E+00
        -11   -1    0    0    0    0  0.00000000000E+00  0.00000000000E+00  0.45593999997E+02  0.45594000000E+02  0.51100000000E-03 0.  1.
         11   -1    0    0    0    0 -0.00000000000E+00 -0.00000000000E+00 -0.45593999997E+02  0.45594000000E+02  0.51100000000E-03 0. -1.
         23    2    1    2    0    0  0.00000000000E+00  0.00000000000E+00  0.35527136788E-14  0.91188000000E+02  0.91188000000E+02 0.  0.
    9900012    2    3    3    0    0 -0.29288627276E+02  0.11894810995E+02  0.18880375193E+02  0.54367098547E+02  0.40000032758E+02 0.  0.
        -12    1    3    3    0    0  0.29288627276E+02 -0.11894810995E+02 -0.18880375193E+02  0.36820901453E+02  0.00000000000E+00 0.  1.
         11    1    4    4    0    0 -0.56656498187E+01  0.10593436915E+02 -0.45088626024E+01  0.12831614698E+02  0.51100000000E-03 0. -1.
        -11    1    4    4    0    0 -0.27827877939E+02  0.35057581333E+01  0.14779631144E+02  0.31703605910E+02  0.51100000000E-03 0.  1.
         12    1    4    4    0    0  0.42049004815E+01 -0.22043840529E+01  0.86096066513E+01  0.98318779387E+01  0.00000000000E+00 0. -1.
</event>
<event>
 8    1  0.2516265E-006  0.9118800E+02  0.7816164E-02  0.1184000E+00
        -11   -1    0    0    0    0  0.00000000000E+00  0.00000000000E+00  0.45593999997E+02  0.45594000000E+02  0.51100000000E-03 0.  1.
         11   -1    0    0    0    0 -0.00000000000E+00 -0.00000000000E+00 -0.45593999997E+02  0.45594000000E+02  0.51100000000E-03 0. -1.
         23    2    1    2    0    0  0.00000000000E+00  0.00000000000E+00  0.35527136788E-14  0.91188000000E+02  0.91188000000E+02 0.  0.
    9900012    2    3    3    0    0 -0.17880071482E+02  0.17401265206E+02 -0.27079121173E+02  0.54367084877E+02  0.40000001595E+02 0.  0.
        -12    1    3    3    0    0  0.17880071482E+02 -0.17401265206E+02  0.27079121173E+02  0.36820915123E+02  0.00000000000E+00 0.  1.
         11    1    4    4    0    0  0.25937714576E+01 -0.42546870467E+01 -0.81775592691E+01  0.95761416082E+01  0.51100000000E-03 0. -1.
        -11    1    4    4    0    0 -0.76604887306E+01 -0.48352214383E+01 -0.11138009291E+02  0.14356799963E+02  0.51100000000E-03 0.  1.
        -12    1    4    4    0    0 -0.12813354209E+02  0.26491173691E+02 -0.77635526131E+01  0.30434143306E+02  0.00000000000E+00 0.  1.
</event>
<event>
 8    1  0.2516265E-006  0.9118800E+02  0.7816164E-02  0.1184000E+00
        -11   -1    0    0    0    0  0.00000000000E+00  0.00000000000E+00  0.45593999997E+02  0.45594000000E+02  0.51100000000E-03 0. -1.
         11   -1    0    0    0    0 -0.00000000000E+00 -0.00000000000E+00 -0.45593999997E+02  0.45594000000E+02  0.51100000000E-03 0.  1.
         23    2    1    2    0    0 -0.17763568394E-14  0.00000000000E+00  0.00000000000E+00  0.91188000000E+02  0.91188000000E+02 0.  0.
    9900012    2    3    3    0    0  0.14803583364E+02 -0.14468628353E+02 -0.30451465852E+02  0.54367094805E+02  0.40000024227E+02 0.  0.
         12    1    3    3    0    0 -0.14803583364E+02  0.14468628353E+02  0.30451465852E+02  0.36820905195E+02  0.00000000000E+00 0. -1.
         11    1    4    4    0    0 -0.83131083163E+01  0.59077443923E+01 -0.46329921183E+01  0.11201510162E+02  0.51100000000E-03 0. -1.
        -11    1    4    4    0    0  0.21641092245E+02 -0.13927664618E+02 -0.25951926335E+02  0.36548860393E+02  0.51100000000E-03 0.  1.
        -12    1    4    4    0    0  0.14755994353E+01 -0.64487081273E+01  0.13345260076E+00  0.66167242501E+01  0.00000000000E+00 0.  1.
</event>
<event>
 8    1  0.2516265E-006  0.9118800E+02  0.7816164E-02  0.1184000E+00
        -11   -1    0    0    0    0  0.00000000000E+00  0.00000000000E+00  0.45593999997E+02  0.45594000000E+02  0.51100000000E-03 0. -1.
         11   -1    0    0    0    0 -0.00000000000E+00 -0.00000000000E+00 -0.45593999997E+02  0.45594000000E+02  0.51100000000E-03 0.  1.
         23    2    1    2    0    0  0.35527136788E-14  0.35527136788E-14 -0.17763568394E-14  0.91188000000E+02  0.91188000000E+02 0.  0.
    9900012    2    3    3    0    0 -0.18681548869E+02 -0.28605365243E+02  0.13730015027E+02  0.54367075222E+02  0.39999979584E+02 0.  0.
        -12    1    3    3    0    0  0.18681548869E+02  0.28605365243E+02 -0.13730015027E+02  0.36820924778E+02  0.00000000000E+00 0.  1.
         11    1    4    4    0    0 -0.26357441629E+01 -0.11985081124E+02  0.12200434682E+02  0.17304332508E+02  0.51100000000E-03 0. -1.
        -11    1    4    4    0    0 -0.44822022302E+01 -0.16274182154E+01 -0.12577457877E+02  0.13451062181E+02  0.51100000000E-03 0.  1.
        -12    1    4    4    0    0 -0.11563602476E+02 -0.14992865904E+02  0.14107038222E+02  0.23611680534E+02  0.00000000000E+00 0.  1.
</event>
<event>
 8    1  0.2516265E-006  0.9118800E+02  0.7816164E-02  0.1184000E+00
        -11   -1    0    0    0    0  0.00000000000E+00  0.00000000000E+00  0.45593999997E+02  0.45594000000E+02  0.51100000000E-03 0.  1.
         11   -1    0    0    0    0 -0.00000000000E+00 -0.00000000000E+00 -0.45593999997E+02  0.45594000000E+02  0.51100000000E-03 0. -1.
         23    2    1    2    0    0  0.88817841970E-15 -0.71054273576E-14 -0.88817841970E-15  0.91188000000E+02  0.91188000000E+02 0.  0.
    9900012    2    3    3    0    0  0.27758189380E+01  0.36715566791E+02  0.20620806718E+00  0.54367074735E+02  0.39999978474E+02 0.  0.
         12    1    3    3    0    0 -0.27758189380E+01 -0.36715566791E+02 -0.20620806718E+00  0.36820925265E+02  0.00000000000E+00 0. -1.
         11    1    4    4    0    0  0.80365401055E+01  0.15430555369E+01 -0.79950606853E+01  0.11440629042E+02  0.51100000000E-03 0. -1.
        -11    1    4    4    0    0  0.45027804382E+01  0.32566465575E+01 -0.45656876860E+01  0.71920986355E+01  0.51100000000E-03 0.  1.
        -12    1    4    4    0    0 -0.97635016058E+01  0.31915864697E+02  0.12766956438E+02  0.35734347058E+02  0.00000000000E+00 0.  1.
</event>
<event>
 8    1  0.2516265E-006  0.9118800E+02  0.7816164E-02  0.1184000E+00
        -11   -1    0    0    0    0  0.00000000000E+00  0.00000000000E+00  0.45593999997E+02  0.45594000000E+02  0.51100000000E-03 0.  1.
         11   -1    0    0    0    0 -0.00000000000E+00 -0.00000000000E+00 -0.45593999997E+02  0.45594000000E+02  0.51100000000E-03 0. -1.
         23    2    1    2    0    0  0.17763568394E-14  0.00000000000E+00  0.00000000000E+00  0.91188000000E+02  0.91188000000E+02 0.  0.
    9900012    2    3    3    0    0  0.46103961138E+01 -0.32307421783E+02 -0.17051712300E+02  0.54366998561E+02  0.39999804819E+02 0.  0.
         12    1    3    3    0    0 -0.46103961138E+01  0.32307421783E+02  0.17051712300E+02  0.36821001439E+02  0.00000000000E+00 0. -1.
         11    1    4    4    0    0 -0.50171295229E+01 -0.23644654338E+02 -0.30442300517E+01  0.24362032022E+02  0.51100000000E-03 0. -1.
        -11    1    4    4    0    0  0.17155579916E+02 -0.80198752565E+01 -0.92445671693E+01  0.21073546066E+02  0.51100000000E-03 0.  1.
         12    1    4    4    0    0 -0.75280542796E+01 -0.64289218897E+00 -0.47629150792E+01  0.89314204724E+01  0.00000000000E+00 0. -1.
</event>
<event>
 8    1  0.2516265E-006  0.9118800E+02  0.7816164E-02  0.1184000E+00
        -11   -1    0    0    0    0  0.00000000000E+00  0.00000000000E+00  0.45593999997E+02  0.45594000000E+02  0.51100000000E-03 0.  1.
         11   -1    0    0    0    0 -0.00000000000E+00 -0.00000000000E+00 -0.45593999997E+02  0.45594000000E+02  0.51100000000E-03 0. -1.
         23    2    1    2    0    0  0.35527136788E-14  0.00000000000E+00  0.00000000000E+00  0.91188000000E+02  0.91188000000E+02 0.  0.
    9900012    2    3    3    0    0 -0.27953488050E+02 -0.19038216663E+02  0.14557727203E+02  0.54367100918E+02  0.40000038163E+02 0.  0.
        -12    1    3    3    0    0  0.27953488050E+02  0.19038216663E+02 -0.14557727203E+02  0.36820899082E+02  0.00000000000E+00 0.  1.
         11    1    4    4    0    0 -0.68836069026E+01 -0.11742676972E+02 -0.17418202537E+01  0.13722552405E+02  0.51100000000E-03 0. -1.
        -11    1    4    4    0    0 -0.67052101383E+01 -0.11646717252E+02 -0.52120804962E+01  0.14414286285E+02  0.51100000000E-03 0.  1.
        -12    1    4    4    0    0 -0.14364671009E+02  0.43511775608E+01  0.21511627953E+02  0.26230262228E+02  0.00000000000E+00 0.  1.
</event>
<event>
 8    1  0.2516265E-006  0.9118800E+02  0.7816164E-02  0.1184000E+00
        -11   -1    0    0    0    0  0.00000000000E+00  0.00000000000E+00  0.45593999997E+02  0.45594000000E+02  0.51100000000E-03 0.  1.
         11   -1    0    0    0    0 -0.00000000000E+00 -0.00000000000E+00 -0.45593999997E+02  0.45594000000E+02  0.51100000000E-03 0. -1.
         23    2    1    2    0    0  0.00000000000E+00  0.00000000000E+00  0.00000000000E+00  0.91188000000E+02  0.91188000000E+02 0.  0.
    9900012    2    3    3    0    0  0.11380901461E+02  0.77127879916E+01  0.34158077834E+02  0.54366996510E+02  0.39999800143E+02 0.  0.
         12    1    3    3    0    0 -0.11380901461E+02 -0.77127879916E+01 -0.34158077834E+02  0.36821003490E+02  0.00000000000E+00 0. -1.
         11    1    4    4    0    0  0.43479273724E+01  0.10555821076E+02  0.70065346993E+01  0.13394825858E+02  0.51100000000E-03 0. -1.
        -11    1    4    4    0    0  0.17534744307E+02  0.13737283618E+01  0.94609813374E+01  0.19971593718E+02  0.51100000000E-03 0.  1.
         12    1    4    4    0    0 -0.10501770219E+02 -0.42167614458E+01  0.17690561798E+02  0.21000576934E+02  0.00000000000E+00 0. -1.
</event>
<event>
 8    1  0.2516265E-006  0.9118800E+02  0.7816164E-02  0.1184000E+00
        -11   -1    0    0    0    0  0.00000000000E+00  0.00000000000E+00  0.45593999997E+02  0.45594000000E+02  0.51100000000E-03 0. -1.
         11   -1    0    0    0    0 -0.00000000000E+00 -0.00000000000E+00 -0.45593999997E+02  0.45594000000E+02  0.51100000000E-03 0.  1.
         23    2    1    2    0    0  0.35527136788E-14  0.00000000000E+00  0.00000000000E+00  0.91188000000E+02  0.91188000000E+02 0.  0.
    9900012    2    3    3    0    0  0.26461727243E+02  0.19873379913E+02 -0.16143289228E+02  0.54367081693E+02  0.39999994336E+02 0.  0.
         12    1    3    3    0    0 -0.26461727243E+02 -0.19873379913E+02  0.16143289228E+02  0.36820918307E+02  0.00000000000E+00 0. -1.
         11    1    4    4    0    0  0.89560919843E+01 -0.77231133804E+00 -0.18075956851E+02  0.20187824666E+02  0.51100000000E-03 0. -1.
        -11    1    4    4    0    0  0.74440881315E+01  0.38106498474E+00 -0.66421311802E+01  0.99838652589E+01  0.51100000000E-03 0.  1.
         12    1    4    4    0    0  0.10061547127E+02  0.20264626266E+02  0.85747988026E+01  0.24195391768E+02  0.00000000000E+00 0. -1.
</event>
<event>
 8    1  0.2516265E-006  0.9118800E+02  0.7816164E-02  0.1184000E+00
        -11   -1    0    0    0    0  0.00000000000E+00  0.00000000000E+00  0.45593999997E+02  0.45594000000E+02  0.51100000000E-03 0. -1.
         11   -1    0    0    0    0 -0.00000000000E+00 -0.00000000000E+00 -0.45593999997E+02  0.45594000000E+02  0.51100000000E-03 0.  1.
         23    2    1    2    0    0  0.00000000000E+00  0.88817841970E-15 -0.71054273576E-14  0.91188000000E+02  0.91188000000E+02 0.  0.
    9900012    2    3    3    0    0  0.11235854157E+02  0.48319128854E+01 -0.34730234043E+02  0.54367069030E+02  0.39999965469E+02 0.  0.
         12    1    3    3    0    0 -0.11235854157E+02 -0.48319128854E+01  0.34730234043E+02  0.36820930970E+02  0.00000000000E+00 0. -1.
         11    1    4    4    0    0 -0.55764708078E+01 -0.33327003910E+01 -0.73960137385E+01  0.98440305793E+01  0.51100000000E-03 0. -1.
        -11    1    4    4    0    0 -0.36500326167E+01  0.12087484301E+02 -0.40096269441E+01  0.13247910149E+02  0.51100000000E-03 0.  1.
        -12    1    4    4    0    0  0.20462357581E+02 -0.39228710246E+01 -0.23324593361E+02  0.31275128302E+02  0.00000000000E+00 0.  1.
</event>
<event>
 8    1  0.2516265E-006  0.9118800E+02  0.7816164E-02  0.1184000E+00
        -11   -1    0    0    0    0  0.00000000000E+00  0.00000000000E+00  0.45593999997E+02  0.45594000000E+02  0.51100000000E-03 0. -1.
         11   -1    0    0    0    0 -0.00000000000E+00 -0.00000000000E+00 -0.45593999997E+02  0.45594000000E+02  0.51100000000E-03 0.  1.
         23    2    1    2    0    0  0.00000000000E+00 -0.35527136788E-14 -0.35527136788E-14  0.91188000000E+02  0.91188000000E+02 0.  0.
    9900012    2    3    3    0    0  0.12970707723E+02  0.20425390869E+02  0.27755105284E+02  0.54367058672E+02  0.39999941855E+02 0.  0.
        -12    1    3    3    0    0 -0.12970707723E+02 -0.20425390869E+02 -0.27755105284E+02  0.36820941328E+02  0.00000000000E+00 0.  1.
         11    1    4    4    0    0  0.13917108668E+02  0.20780403508E+02  0.15842645735E+01  0.25060346728E+02  0.51100000000E-03 0. -1.
        -11    1    4    4    0    0 -0.61850968621E+01 -0.28365714578E+01  0.97249678968E+01  0.11869143258E+02  0.51100000000E-03 0.  1.
         12    1    4    4    0    0  0.52386959174E+01  0.24815588184E+01  0.16445872813E+02  0.17437568686E+02  0.00000000000E+00 0. -1.
</event>
<event>
 8    1  0.2516265E-006  0.9118800E+02  0.7816164E-02  0.1184000E+00
        -11   -1    0    0    0    0  0.00000000000E+00  0.00000000000E+00  0.45593999997E+02  0.45594000000E+02  0.51100000000E-03 0. -1.
         11   -1    0    0    0    0 -0.00000000000E+00 -0.00000000000E+00 -0.45593999997E+02  0.45594000000E+02  0.51100000000E-03 0.  1.
         23    2    1    2    0    0  0.00000000000E+00 -0.22204460493E-15  0.00000000000E+00  0.91188000000E+02  0.91188000000E+02 0.  0.
    9900012    2    3    3    0    0  0.30766359679E+02  0.10096627165E+01  0.20203777504E+02  0.54367069375E+02  0.39999966254E+02 0.  0.
        -12    1    3    3    0    0 -0.30766359679E+02 -0.10096627165E+01 -0.20203777504E+02  0.36820930625E+02  0.00000000000E+00 0.  1.
         11    1    4    4    0    0  0.17079846816E+02  0.12210230975E+01  0.26026217971E+02  0.31154070149E+02  0.51100000000E-03 0. -1.
        -11    1    4    4    0    0  0.29658942808E+01  0.14799645276E+01  0.61913373186E+01  0.70227830624E+01  0.51100000000E-03 0.  1.
        -12    1    4    4    0    0  0.10720618582E+02 -0.16913249086E+01 -0.12013777786E+02  0.16190216164E+02  0.00000000000E+00 0.  1.
</event>
<event>
 8    1  0.2516265E-006  0.9118800E+02  0.7816164E-02  0.1184000E+00
        -11   -1    0    0    0    0  0.00000000000E+00  0.00000000000E+00  0.45593999997E+02  0.45594000000E+02  0.51100000000E-03 0. -1.
         11   -1    0    0    0    0 -0.00000000000E+00 -0.00000000000E+00 -0.45593999997E+02  0.45594000000E+02  0.51100000000E-03 0.  1.
         23    2    1    2    0    0  0.00000000000E+00  0.00000000000E+00 -0.35527136788E-14  0.91188000000E+02  0.91188000000E+02 0.  0.
    9900012    2    3    3    0    0 -0.14945436924E+02 -0.27977814287E+02 -0.18699030823E+02  0.54367110130E+02  0.40000059163E+02 0.  0.
         12    1    3    3    0    0  0.14945436924E+02  0.27977814287E+02  0.18699030823E+02  0.36820889870E+02  0.00000000000E+00 0. -1.
         11    1    4    4    0    0  0.51576506446E+01  0.14431580877E+01  0.48648531828E+01  0.72353895672E+01  0.51100000000E-03 0. -1.
        -11    1    4    4    0    0 -0.53193092056E+01 -0.23061572015E+02 -0.19148891498E+02  0.30443574037E+02  0.51100000000E-03 0.  1.
        -12    1    4    4    0    0 -0.14783778363E+02 -0.63594003590E+01 -0.44149925074E+01  0.16688146526E+02  0.00000000000E+00 0.  1.
</event>
<event>
 8    1  0.2516265E-006  0.9118800E+02  0.7816164E-02  0.1184000E+00
        -11   -1    0    0    0    0  0.00000000000E+00  0.00000000000E+00  0.45593999997E+02  0.45594000000E+02  0.51100000000E-03 0.  1.
         11   -1    0    0    0    0 -0.00000000000E+00 -0.00000000000E+00 -0.45593999997E+02  0.45594000000E+02  0.51100000000E-03 0. -1.
         23    2    1    2    0    0  0.00000000000E+00  0.00000000000E+00  0.00000000000E+00  0.91188000000E+02  0.91188000000E+02 0.  0.
    9900012    2    3    3    0    0  0.16112974108E+02  0.10020331482E+02  0.31555438096E+02  0.54367073192E+02  0.39999974955E+02 0.  0.
         12    1    3    3    0    0 -0.16112974108E+02 -0.10020331482E+02 -0.31555438096E+02  0.36820926808E+02  0.00000000000E+00 0. -1.
         11    1    4    4    0    0 -0.47847118900E+01  0.54233151943E+01  0.26035698738E+02  0.27021536311E+02  0.51100000000E-03 0. -1.
        -11    1    4    4    0    0  0.14196582633E+02  0.33452934457E+01  0.11265984618E+02  0.18429768212E+02  0.51100000000E-03 0.  1.
         12    1    4    4    0    0  0.67011033644E+01  0.12517228419E+01 -0.57462452592E+01  0.89157686687E+01  0.00000000000E+00 0. -1.
</event>
<event>
 8    1  0.2516265E-006  0.9118800E+02  0.7816164E-02  0.1184000E+00
        -11   -1    0    0    0    0  0.00000000000E+00  0.00000000000E+00  0.45593999997E+02  0.45594000000E+02  0.51100000000E-03 0.  1.
         11   -1    0    0    0    0 -0.00000000000E+00 -0.00000000000E+00 -0.45593999997E+02  0.45594000000E+02  0.51100000000E-03 0. -1.
         23    2    1    2    0    0  0.00000000000E+00  0.35527136788E-14  0.00000000000E+00  0.91188000000E+02  0.91188000000E+02 0.  0.
    9900012    2    3    3    0    0 -0.35349872065E+02  0.87479074899E+01 -0.54445047522E+01  0.54367055247E+02  0.39999934048E+02 0.  0.
        -12    1    3    3    0    0  0.35349872065E+02 -0.87479074899E+01  0.54445047522E+01  0.36820944753E+02  0.00000000000E+00 0.  1.
         11    1    4    4    0    0 -0.26830456297E+02  0.11283605141E+02 -0.17002594600E+02  0.33708772648E+02  0.51100000000E-03 0. -1.
        -11    1    4    4    0    0 -0.12073514126E+02 -0.46918816787E+01  0.90805091739E+01  0.15818948896E+02  0.51100000000E-03 0.  1.
        -12    1    4    4    0    0  0.35540983579E+01  0.21561840277E+01  0.24775806737E+01  0.48393337035E+01  0.00000000000E+00 0.  1.
</event>
<event>
 8    1  0.2516265E-006  0.9118800E+02  0.7816164E-02  0.1184000E+00
        -11   -1    0    0    0    0  0.00000000000E+00  0.00000000000E+00  0.45593999997E+02  0.45594000000E+02  0.51100000000E-03 0. -1.
         11   -1    0    0    0    0 -0.00000000000E+00 -0.00000000000E+00 -0.45593999997E+02  0.45594000000E+02  0.51100000000E-03 0.  1.
         23    2    1    2    0    0 -0.44408920985E-15 -0.17763568394E-14 -0.71054273576E-14  0.91188000000E+02  0.91188000000E+02 0.  0.
    9900012    2    3    3    0    0  0.11151765628E+01 -0.14481606912E+02  0.33834957073E+02  0.54367287383E+02  0.40000463244E+02 0.  0.
        -12    1    3    3    0    0 -0.11151765628E+01  0.14481606912E+02 -0.33834957073E+02  0.36820712617E+02  0.00000000000E+00 0.  1.
         11    1    4    4    0    0 -0.17585932835E+01  0.10372282219E+02  0.74449888705E+01  0.12888163109E+02  0.51100000000E-03 0. -1.
        -11    1    4    4    0    0  0.14607394062E+01  0.21499111907E+01 -0.11863695896E+01  0.28571578194E+01  0.51100000000E-03 0.  1.
        -12    1    4    4    0    0  0.14130304402E+01 -0.27003800322E+02  0.27576337792E+02  0.38621966455E+02  0.00000000000E+00 0.  1.
</event>
<event>
 8    1  0.2516265E-006  0.9118800E+02  0.7816164E-02  0.1184000E+00
        -11   -1    0    0    0    0  0.00000000000E+00  0.00000000000E+00  0.45593999997E+02  0.45594000000E+02  0.51100000000E-03 0.  1.
         11   -1    0    0    0    0 -0.00000000000E+00 -0.00000000000E+00 -0.45593999997E+02  0.45594000000E+02  0.51100000000E-03 0. -1.
         23    2    1    2    0    0 -0.17763568394E-14  0.88817841970E-15  0.00000000000E+00  0.91188000000E+02  0.91188000000E+02 0.  0.
    9900012    2    3    3    0    0  0.99895320319E+01 -0.74899161020E+01 -0.34639444771E+02  0.54367072154E+02  0.39999972589E+02 0.  0.
        -12    1    3    3    0    0 -0.99895320319E+01  0.74899161020E+01  0.34639444771E+02  0.36820927846E+02  0.00000000000E+00 0.  1.
         11    1    4    4    0    0  0.16479182084E+02 -0.12341167936E+02 -0.13656881926E+02  0.24705835189E+02  0.51100000000E-03 0. -1.
        -11    1    4    4    0    0  0.38838579295E+01  0.14156269941E+01  0.17108521850E+01  0.44738537820E+01  0.51100000000E-03 0.  1.
        -12    1    4    4    0    0 -0.10373507981E+02  0.34356248398E+01 -0.22693415030E+02  0.25187383183E+02  0.00000000000E+00 0.  1.
</event>
<event>
 8    1  0.2516265E-006  0.9118800E+02  0.7816164E-02  0.1184000E+00
        -11   -1    0    0    0    0  0.00000000000E+00  0.00000000000E+00  0.45593999997E+02  0.45594000000E+02  0.51100000000E-03 0.  1.
         11   -1    0    0    0    0 -0.00000000000E+00 -0.00000000000E+00 -0.45593999997E+02  0.45594000000E+02  0.51100000000E-03 0. -1.
         23    2    1    2    0    0  0.35527136788E-14  0.00000000000E+00  0.00000000000E+00  0.91188000000E+02  0.91188000000E+02 0.  0.
    9900012    2    3    3    0    0  0.28885397534E+02  0.15850216904E+02  0.16437281931E+02  0.54367084696E+02  0.40000001181E+02 0.  0.
         12    1    3    3    0    0 -0.28885397534E+02 -0.15850216904E+02 -0.16437281931E+02  0.36820915304E+02  0.00000000000E+00 0. -1.
         11    1    4    4    0    0 -0.25416456068E+01 -0.41788950668E+01  0.66113042494E+01  0.82238963095E+01  0.51100000000E-03 0. -1.
        -11    1    4    4    0    0  0.12795742557E+02  0.12580782775E+01 -0.71542306688E+01  0.14713830408E+02  0.51100000000E-03 0.  1.
        -12    1    4    4    0    0  0.18631300583E+02  0.18771033693E+02  0.16980208350E+02  0.31429357979E+02  0.00000000000E+00 0.  1.
</event>
<event>
 8    1  0.2516265E-006  0.9118800E+02  0.7816164E-02  0.1184000E+00
        -11   -1    0    0    0    0  0.00000000000E+00  0.00000000000E+00  0.45593999997E+02  0.45594000000E+02  0.51100000000E-03 0. -1.
         11   -1    0    0    0    0 -0.00000000000E+00 -0.00000000000E+00 -0.45593999997E+02  0.45594000000E+02  0.51100000000E-03 0.  1.
         23    2    1    2    0    0  0.00000000000E+00  0.00000000000E+00  0.00000000000E+00  0.91188000000E+02  0.91188000000E+02 0.  0.
    9900012    2    3    3    0    0 -0.19471824007E+02  0.26019531721E+02  0.17309290762E+02  0.54367088716E+02  0.40000010345E+02 0.  0.
         12    1    3    3    0    0  0.19471824007E+02 -0.26019531721E+02 -0.17309290762E+02  0.36820911284E+02  0.00000000000E+00 0. -1.
         11    1    4    4    0    0  0.34968031861E+01  0.11912123676E+02  0.24335868786E+00  0.12417147285E+02  0.51100000000E-03 0. -1.
        -11    1    4    4    0    0 -0.28630933404E+02  0.77667317715E+01  0.11655112637E+02  0.31873093996E+02  0.51100000000E-03 0.  1.
        -12    1    4    4    0    0  0.56623062115E+01  0.63406762736E+01  0.54108194366E+01  0.10076847434E+02  0.00000000000E+00 0.  1.
</event>
<event>
 8    1  0.2516265E-006  0.9118800E+02  0.7816164E-02  0.1184000E+00
        -11   -1    0    0    0    0  0.00000000000E+00  0.00000000000E+00  0.45593999997E+02  0.45594000000E+02  0.51100000000E-03 0. -1.
         11   -1    0    0    0    0 -0.00000000000E+00 -0.00000000000E+00 -0.45593999997E+02  0.45594000000E+02  0.51100000000E-03 0.  1.
         23    2    1    2    0    0 -0.13322676296E-14  0.71054273576E-14  0.17763568394E-14  0.91188000000E+02  0.91188000000E+02 0.  0.
    9900012    2    3    3    0    0 -0.39220170730E+01 -0.34401308075E+02 -0.12527839718E+02  0.54367095840E+02  0.40000026586E+02 0.  0.
         12    1    3    3    0    0  0.39220170730E+01  0.34401308075E+02  0.12527839718E+02  0.36820904160E+02  0.00000000000E+00 0. -1.
         11    1    4    4    0    0 -0.62977515847E+01 -0.21469351706E+02  0.30735635352E+01  0.22584099069E+02  0.51100000000E-03 0. -1.
        -11    1    4    4    0    0  0.12687063287E+02 -0.45313542237E+01 -0.11905843212E+02  0.17978983531E+02  0.51100000000E-03 0.  1.
        -12    1    4    4    0    0 -0.10311328775E+02 -0.84006021451E+01 -0.36955600414E+01  0.13804013240E+02  0.00000000000E+00 0.  1.
</event>
<event>
 8    1  0.2516265E-006  0.9118800E+02  0.7816164E-02  0.1184000E+00
        -11   -1    0    0    0    0  0.00000000000E+00  0.00000000000E+00  0.45593999997E+02  0.45594000000E+02  0.51100000000E-03 0.  1.
         11   -1    0    0    0    0 -0.00000000000E+00 -0.00000000000E+00 -0.45593999997E+02  0.45594000000E+02  0.51100000000E-03 0. -1.
         23    2    1    2    0    0  0.00000000000E+00  0.00000000000E+00 -0.71054273576E-14  0.91188000000E+02  0.91188000000E+02 0.  0.
    9900012    2    3    3    0    0  0.13099724619E+02 -0.20014229939E+02 -0.27992973013E+02  0.54367099369E+02  0.40000034632E+02 0.  0.
        -12    1    3    3    0    0 -0.13099724619E+02  0.20014229939E+02  0.27992973013E+02  0.36820900631E+02  0.00000000000E+00 0.  1.
         11    1    4    4    0    0  0.20277551628E+01 -0.11037899015E+02 -0.25165836315E+02  0.27554787666E+02  0.51100000000E-03 0. -1.
        -11    1    4    4    0    0  0.44092452207E+01 -0.15948635879E+02  0.65271666392E+00  0.16559784694E+02  0.51100000000E-03 0.  1.
        -12    1    4    4    0    0  0.66627242356E+01  0.69723049556E+01 -0.34798533627E+01  0.10252527009E+02  0.00000000000E+00 0.  1.
</event>
<event>
 8    1  0.2516265E-006  0.9118800E+02  0.7816164E-02  0.1184000E+00
        -11   -1    0    0    0    0  0.00000000000E+00  0.00000000000E+00  0.45593999997E+02  0.45594000000E+02  0.51100000000E-03 0. -1.
         11   -1    0    0    0    0 -0.00000000000E+00 -0.00000000000E+00 -0.45593999997E+02  0.45594000000E+02  0.51100000000E-03 0.  1.
         23    2    1    2    0    0  0.88817841970E-15 -0.35527136788E-14  0.00000000000E+00  0.91188000000E+02  0.91188000000E+02 0.  0.
    9900012    2    3    3    0    0  0.71311151453E+01  0.16750729457E+02 -0.32005336572E+02  0.54367064248E+02  0.39999954566E+02 0.  0.
         12    1    3    3    0    0 -0.71311151453E+01 -0.16750729457E+02  0.32005336572E+02  0.36820935752E+02  0.00000000000E+00 0. -1.
         11    1    4    4    0    0 -0.59051166718E+01  0.36909258523E+01  0.29579898430E+01  0.75659130796E+01  0.51100000000E-03 0. -1.
        -11    1    4    4    0    0  0.14197075848E+02  0.19727117091E+02 -0.26355469821E+02  0.35851456053E+02  0.51100000000E-03 0.  1.
        -12    1    4    4    0    0 -0.11608440311E+01 -0.66673134860E+01 -0.86078565943E+01  0.10949695116E+02  0.00000000000E+00 0.  1.
</event>
<event>
 8    1  0.2516265E-006  0.9118800E+02  0.7816164E-02  0.1184000E+00
        -11   -1    0    0    0    0  0.00000000000E+00  0.00000000000E+00  0.45593999997E+02  0.45594000000E+02  0.51100000000E-03 0.  1.
         11   -1    0    0    0    0 -0.00000000000E+00 -0.00000000000E+00 -0.45593999997E+02  0.45594000000E+02  0.51100000000E-03 0. -1.
         23    2    1    2    0    0  0.00000000000E+00  0.00000000000E+00  0.35527136788E-14  0.91188000000E+02  0.91188000000E+02 0.  0.
    9900012    2    3    3    0    0  0.28416184138E+02  0.11143984613E+02 -0.20593975609E+02  0.54367085489E+02  0.40000002989E+02 0.  0.
        -12    1    3    3    0    0 -0.28416184138E+02 -0.11143984613E+02  0.20593975609E+02  0.36820914511E+02  0.00000000000E+00 0.  1.
         11    1    4    4    0    0  0.15615305376E+01  0.25732352447E+01 -0.75205329273E+01  0.81005143673E+01  0.51100000000E-03 0. -1.
        -11    1    4    4    0    0  0.19806225018E+02  0.59013736278E+01  0.92962705458E+01  0.22661275482E+02  0.51100000000E-03 0.  1.
        -12    1    4    4    0    0  0.70484285823E+01  0.26693757405E+01 -0.22369713228E+02  0.23605295639E+02  0.00000000000E+00 0.  1.
</event>
<event>
 8    1  0.2516265E-006  0.9118800E+02  0.7816164E-02  0.1184000E+00
        -11   -1    0    0    0    0  0.00000000000E+00  0.00000000000E+00  0.45593999997E+02  0.45594000000E+02  0.51100000000E-03 0. -1.
         11   -1    0    0    0    0 -0.00000000000E+00 -0.00000000000E+00 -0.45593999997E+02  0.45594000000E+02  0.51100000000E-03 0.  1.
         23    2    1    2    0    0  0.00000000000E+00  0.00000000000E+00  0.35527136788E-14  0.91188000000E+02  0.91188000000E+02 0.  0.
    9900012    2    3    3    0    0 -0.22878555139E+02 -0.20462501804E+02 -0.20338536549E+02  0.54366833068E+02  0.39999427541E+02 0.  0.
         12    1    3    3    0    0  0.22878555139E+02  0.20462501804E+02  0.20338536549E+02  0.36821166932E+02  0.00000000000E+00 0. -1.
         11    1    4    4    0    0  0.57315437109E+01 -0.87555428110E+01  0.34254601855E+00  0.10470313332E+02  0.51100000000E-03 0. -1.
        -11    1    4    4    0    0 -0.75748262031E+01 -0.88356062703E+01 -0.19405560731E+02  0.22627896891E+02  0.51100000000E-03 0.  1.
         12    1    4    4    0    0 -0.21035272646E+02 -0.28713527226E+01 -0.12755218360E+01  0.21268622845E+02  0.00000000000E+00 0. -1.
</event>
<event>
 8    1  0.2516265E-006  0.9118800E+02  0.7816164E-02  0.1184000E+00
        -11   -1    0    0    0    0  0.00000000000E+00  0.00000000000E+00  0.45593999997E+02  0.45594000000E+02  0.51100000000E-03 0.  1.
         11   -1    0    0    0    0 -0.00000000000E+00 -0.00000000000E+00 -0.45593999997E+02  0.45594000000E+02  0.51100000000E-03 0. -1.
         23    2    1    2    0    0 -0.88817841970E-15 -0.35527136788E-14  0.35527136788E-14  0.91188000000E+02  0.91188000000E+02 0.  0.
    9900012    2    3    3    0    0 -0.70036133321E+01 -0.20776699764E+02  0.29581405410E+02  0.54367063037E+02  0.39999951806E+02 0.  0.
         12    1    3    3    0    0  0.70036133321E+01  0.20776699764E+02 -0.29581405410E+02  0.36820936963E+02  0.00000000000E+00 0. -1.
         11    1    4    4    0    0  0.46006545464E+01  0.49792656442E+01  0.99621090283E+00  0.68521197475E+01  0.51100000000E-03 0. -1.
        -11    1    4    4    0    0 -0.10148914543E+02  0.16243569203E+01  0.54162343806E+01  0.11617856813E+02  0.51100000000E-03 0.  1.
         12    1    4    4    0    0 -0.14553533353E+01 -0.27380322328E+02  0.23168960127E+02  0.35897086476E+02  0.00000000000E+00 0. -1.
</event>
<event>
 8    1  0.2516265E-006  0.9118800E+02  0.7816164E-02  0.1184000E+00
        -11   -1    0    0    0    0  0.00000000000E+00  0.00000000000E+00  0.45593999997E+02  0.45594000000E+02  0.51100000000E-03 0.  1.
         11   -1    0    0    0    0 -0.00000000000E+00 -0.00000000000E+00 -0.45593999997E+02  0.45594000000E+02  0.51100000000E-03 0. -1.
         23    2    1    2    0    0  0.00000000000E+00  0.00000000000E+00  0.00000000000E+00  0.91188000000E+02  0.91188000000E+02 0.  0.
    9900012    2    3    3    0    0 -0.28726159395E+02 -0.19823262132E+02 -0.11731380567E+02  0.54367092282E+02  0.40000018475E+02 0.  0.
        -12    1    3    3    0    0  0.28726159395E+02  0.19823262132E+02  0.11731380567E+02  0.36820907718E+02  0.00000000000E+00 0.  1.
         11    1    4    4    0    0 -0.80983009036E+01 -0.83543564043E+00 -0.18655252365E+02  0.20354332986E+02  0.51100000000E-03 0.  1.
        -11    1    4    4    0    0 -0.75784010132E+01 -0.30828749333E+01 -0.56119585410E+01  0.99212075222E+01  0.51100000000E-03 0. -1.
        -12    1    4    4    0    0 -0.13049457479E+02 -0.15904951558E+02  0.12535830339E+02  0.24091551773E+02  0.00000000000E+00 0.  1.
</event>
<event>
 8    1  0.2516265E-006  0.9118800E+02  0.7816164E-02  0.1184000E+00
        -11   -1    0    0    0    0  0.00000000000E+00  0.00000000000E+00  0.45593999997E+02  0.45594000000E+02  0.51100000000E-03 0. -1.
         11   -1    0    0    0    0 -0.00000000000E+00 -0.00000000000E+00 -0.45593999997E+02  0.45594000000E+02  0.51100000000E-03 0.  1.
         23    2    1    2    0    0  0.35527136788E-14  0.71054273576E-14  0.00000000000E+00  0.91188000000E+02  0.91188000000E+02 0.  0.
    9900012    2    3    3    0    0 -0.12706419186E+02 -0.30509508548E+02  0.16232605412E+02  0.54367072814E+02  0.39999974094E+02 0.  0.
        -12    1    3    3    0    0  0.12706419186E+02  0.30509508548E+02 -0.16232605412E+02  0.36820927186E+02  0.00000000000E+00 0.  1.
         11    1    4    4    0    0 -0.38437530535E+01 -0.10250740664E+02  0.10629040591E+02  0.15258722942E+02  0.51100000000E-03 0. -1.
        -11    1    4    4    0    0  0.11738769665E+02 -0.62479997196E+01  0.49379601913E+01  0.14185191745E+02  0.51100000000E-03 0.  1.
        -12    1    4    4    0    0 -0.20601435797E+02 -0.14010768164E+02  0.66560463022E+00  0.24923158126E+02  0.00000000000E+00 0.  1.
</event>
<event>
 8    1  0.2516265E-006  0.9118800E+02  0.7816164E-02  0.1184000E+00
        -11   -1    0    0    0    0  0.00000000000E+00  0.00000000000E+00  0.45593999997E+02  0.45594000000E+02  0.51100000000E-03 0. -1.
         11   -1    0    0    0    0 -0.00000000000E+00 -0.00000000000E+00 -0.45593999997E+02  0.45594000000E+02  0.51100000000E-03 0.  1.
         23    2    1    2    0    0  0.00000000000E+00  0.00000000000E+00  0.66613381478E-15  0.91188000000E+02  0.91188000000E+02 0.  0.
    9900012    2    3    3    0    0 -0.16238249131E+02  0.33039530861E+02  0.70036304371E+00  0.54367057009E+02  0.39999938064E+02 0.  0.
        -12    1    3    3    0    0  0.16238249131E+02 -0.33039530861E+02 -0.70036304371E+00  0.36820942991E+02  0.00000000000E+00 0.  1.
         11    1    4    4    0    0 -0.15141023097E+02  0.13042955809E+02  0.10255088345E+02  0.22461881352E+02  0.51100000000E-03 0. -1.
        -11    1    4    4    0    0 -0.97990255000E+01  0.16461418306E+02 -0.11457300438E+02  0.22321938244E+02  0.51100000000E-03 0.  1.
        -12    1    4    4    0    0  0.87017994657E+01  0.35351567458E+01  0.19025751368E+01  0.95832374128E+01  0.00000000000E+00 0.  1.
</event>
<event>
 8    1  0.2516265E-006  0.9118800E+02  0.7816164E-02  0.1184000E+00
        -11   -1    0    0    0    0  0.00000000000E+00  0.00000000000E+00  0.45593999997E+02  0.45594000000E+02  0.51100000000E-03 0.  1.
         11   -1    0    0    0    0 -0.00000000000E+00 -0.00000000000E+00 -0.45593999997E+02  0.45594000000E+02  0.51100000000E-03 0. -1.
         23    2    1    2    0    0  0.00000000000E+00  0.71054273576E-14  0.00000000000E+00  0.91188000000E+02  0.91188000000E+02 0.  0.
    9900012    2    3    3    0    0 -0.13832808089E+02 -0.33117695301E+02 -0.82251555117E+01  0.54367061597E+02  0.39999948523E+02 0.  0.
        -12    1    3    3    0    0  0.13832808089E+02  0.33117695301E+02  0.82251555117E+01  0.36820938403E+02  0.00000000000E+00 0.  1.
         11    1    4    4    0    0 -0.78214604548E+01 -0.22156677767E+02 -0.20263937601E+01  0.23583890376E+02  0.51100000000E-03 0. -1.
        -11    1    4    4    0    0  0.86520998142E+01 -0.91569338326E+01  0.35427444658E+01  0.13086607926E+02  0.51100000000E-03 0.  1.
        -12    1    4    4    0    0 -0.14663447449E+02 -0.18040837014E+01 -0.97415062174E+01  0.17696563295E+02  0.00000000000E+00 0.  1.
</event>
<event>
 8    1  0.2516265E-006  0.9118800E+02  0.7816164E-02  0.1184000E+00
        -11   -1    0    0    0    0  0.00000000000E+00  0.00000000000E+00  0.45593999997E+02  0.45594000000E+02  0.51100000000E-03 0.  1.
         11   -1    0    0    0    0 -0.00000000000E+00 -0.00000000000E+00 -0.45593999997E+02  0.45594000000E+02  0.51100000000E-03 0. -1.
         23    2    1    2    0    0 -0.24849913793E-15  0.00000000000E+00  0.22204460493E-15  0.91188000000E+02  0.91188000000E+02 0.  0.
    9900012    2    3    3    0    0  0.30437422157E-02  0.36819712945E+02  0.29758954243E+00  0.54367084339E+02  0.40000000367E+02 0.  0.
         12    1    3    3    0    0 -0.30437422157E-02 -0.36819712945E+02 -0.29758954243E+00  0.36820915661E+02  0.00000000000E+00 0. -1.
         11    1    4    4    0    0 -0.65167802366E+01  0.15230097007E+02  0.50903250957E+01  0.17330195883E+02  0.51100000000E-03 0. -1.
        -11    1    4    4    0    0  0.56186574549E+01  0.28236947532E+02  0.34436091322E-02  0.28790528471E+02  0.51100000000E-03 0.  1.
         12    1    4    4    0    0  0.90116652386E+00 -0.66473315949E+01 -0.47961791624E+01  0.82463599845E+01  0.00000000000E+00 0. -1.
</event>
<event>
 8    1  0.2516265E-006  0.9118800E+02  0.7816164E-02  0.1184000E+00
        -11   -1    0    0    0    0  0.00000000000E+00  0.00000000000E+00  0.45593999997E+02  0.45594000000E+02  0.51100000000E-03 0.  1.
         11   -1    0    0    0    0 -0.00000000000E+00 -0.00000000000E+00 -0.45593999997E+02  0.45594000000E+02  0.51100000000E-03 0. -1.
         23    2    1    2    0    0  0.35527136788E-14 -0.35527136788E-14  0.00000000000E+00  0.91188000000E+02  0.91188000000E+02 0.  0.
    9900012    2    3    3    0    0 -0.17573246279E+02 -0.30622147494E+02 -0.10452045264E+02  0.54367079967E+02  0.39999990400E+02 0.  0.
        -12    1    3    3    0    0  0.17573246279E+02  0.30622147494E+02  0.10452045264E+02  0.36820920033E+02  0.00000000000E+00 0.  1.
         11    1    4    4    0    0 -0.88171137030E+00 -0.12860368803E+01  0.93518860890E+01  0.94809851535E+01  0.51100000000E-03 0. -1.
        -11    1    4    4    0    0 -0.14113524318E+02 -0.46221557269E+01 -0.11162099924E+02  0.18578169103E+02  0.51100000000E-03 0.  1.
         12    1    4    4    0    0 -0.25780105908E+01 -0.24713954887E+02 -0.86418314291E+01  0.26307925711E+02  0.00000000000E+00 0. -1.
</event>
<event>
 8    1  0.2516265E-006  0.9118800E+02  0.7816164E-02  0.1184000E+00
        -11   -1    0    0    0    0  0.00000000000E+00  0.00000000000E+00  0.45593999997E+02  0.45594000000E+02  0.51100000000E-03 0. -1.
         11   -1    0    0    0    0 -0.00000000000E+00 -0.00000000000E+00 -0.45593999997E+02  0.45594000000E+02  0.51100000000E-03 0.  1.
         23    2    1    2    0    0  0.17763568394E-14 -0.71054273576E-14 -0.35527136788E-14  0.91188000000E+02  0.91188000000E+02 0.  0.
    9900012    2    3    3    0    0  0.41389698310E+01 -0.28117670546E+02 -0.23410321529E+02  0.54367114320E+02  0.40000068716E+02 0.  0.
         12    1    3    3    0    0 -0.41389698310E+01  0.28117670546E+02  0.23410321529E+02  0.36820885680E+02  0.00000000000E+00 0. -1.
         11    1    4    4    0    0 -0.25087696804E+01  0.44903240469E+01  0.19828935091E+01  0.55126039478E+01  0.51100000000E-03 0. -1.
        -11    1    4    4    0    0  0.50383745992E+01 -0.13430630872E+02 -0.25895583046E+02  0.29603180333E+02  0.51100000000E-03 0.  1.
         12    1    4    4    0    0  0.16093649122E+01 -0.19177363720E+02  0.50236800877E+00  0.19251330040E+02  0.00000000000E+00 0. -1.
</event>
<event>
 8    1  0.2516265E-006  0.9118800E+02  0.7816164E-02  0.1184000E+00
        -11   -1    0    0    0    0  0.00000000000E+00  0.00000000000E+00  0.45593999997E+02  0.45594000000E+02  0.51100000000E-03 0. -1.
         11   -1    0    0    0    0 -0.00000000000E+00 -0.00000000000E+00 -0.45593999997E+02  0.45594000000E+02  0.51100000000E-03 0.  1.
         23    2    1    2    0    0  0.00000000000E+00 -0.17763568394E-14  0.00000000000E+00  0.91188000000E+02  0.91188000000E+02 0.  0.
    9900012    2    3    3    0    0 -0.10917055174E+02  0.14362998063E+02 -0.32098338913E+02  0.54367066172E+02  0.39999958951E+02 0.  0.
         12    1    3    3    0    0  0.10917055174E+02 -0.14362998063E+02  0.32098338913E+02  0.36820933828E+02  0.00000000000E+00 0. -1.
         11    1    4    4    0    0 -0.88083787917E+01 -0.29513083778E+01  0.20084594651E+01  0.95042973313E+01  0.51100000000E-03 0. -1.
        -11    1    4    4    0    0  0.59066362571E+01  0.99906449689E+01 -0.31677906924E+02  0.33737088288E+02  0.51100000000E-03 0.  1.
        -12    1    4    4    0    0 -0.80153126398E+01  0.73236614716E+01 -0.24288914538E+01  0.11125680553E+02  0.00000000000E+00 0.  1.
</event>
<event>
 8    1  0.2516265E-006  0.9118800E+02  0.7816164E-02  0.1184000E+00
        -11   -1    0    0    0    0  0.00000000000E+00  0.00000000000E+00  0.45593999997E+02  0.45594000000E+02  0.51100000000E-03 0. -1.
         11   -1    0    0    0    0 -0.00000000000E+00 -0.00000000000E+00 -0.45593999997E+02  0.45594000000E+02  0.51100000000E-03 0.  1.
         23    2    1    2    0    0  0.00000000000E+00  0.00000000000E+00  0.00000000000E+00  0.91188000000E+02  0.91188000000E+02 0.  0.
    9900012    2    3    3    0    0  0.40066510232E+01  0.18747328949E+02 -0.31436676591E+02  0.54367078906E+02  0.39999987982E+02 0.  0.
         12    1    3    3    0    0 -0.40066510232E+01 -0.18747328949E+02  0.31436676591E+02  0.36820921094E+02  0.00000000000E+00 0. -1.
         11    1    4    4    0    0  0.84933537998E+01  0.89840234374E+00  0.24830084265E+01  0.88943530764E+01  0.51100000000E-03 0. -1.
        -11    1    4    4    0    0 -0.76042274567E+01  0.15903498277E+02 -0.36799643734E+02  0.40803912948E+02  0.51100000000E-03 0.  1.
        -12    1    4    4    0    0  0.31175246800E+01  0.19454283288E+01  0.28799587170E+01  0.46688128817E+01  0.00000000000E+00 0.  1.
</event>
<event>
 8    1  0.2516265E-006  0.9118800E+02  0.7816164E-02  0.1184000E+00
        -11   -1    0    0    0    0  0.00000000000E+00  0.00000000000E+00  0.45593999997E+02  0.45594000000E+02  0.51100000000E-03 0. -1.
         11   -1    0    0    0    0 -0.00000000000E+00 -0.00000000000E+00 -0.45593999997E+02  0.45594000000E+02  0.51100000000E-03 0.  1.
         23    2    1    2    0    0  0.00000000000E+00 -0.44408920985E-15 -0.71054273576E-14  0.91188000000E+02  0.91188000000E+02 0.  0.
    9900012    2    3    3    0    0 -0.15778191798E+02  0.30614841403E+01  0.33127881049E+02  0.54367074912E+02  0.39999978876E+02 0.  0.
        -12    1    3    3    0    0  0.15778191798E+02 -0.30614841403E+01 -0.33127881049E+02  0.36820925088E+02  0.00000000000E+00 0.  1.
         11    1    4    4    0    0 -0.82312508897E+00  0.10530685613E+01  0.32625305395E+02  0.32652672796E+02  0.51100000000E-03 0. -1.
        -11    1    4    4    0    0 -0.15250077840E+02  0.14914502164E+01  0.57998747786E+01  0.16383767747E+02  0.51100000000E-03 0.  1.
        -12    1    4    4    0    0  0.29501113076E+00  0.51696536261E+00 -0.52972991252E+01  0.53306343690E+01  0.00000000000E+00 0.  1.
</event>
<event>
 8    1  0.2516265E-006  0.9118800E+02  0.7816164E-02  0.1184000E+00
        -11   -1    0    0    0    0  0.00000000000E+00  0.00000000000E+00  0.45593999997E+02  0.45594000000E+02  0.51100000000E-03 0.  1.
         11   -1    0    0    0    0 -0.00000000000E+00 -0.00000000000E+00 -0.45593999997E+02  0.45594000000E+02  0.51100000000E-03 0. -1.
         23    2    1    2    0    0  0.00000000000E+00  0.00000000000E+00  0.00000000000E+00  0.91188000000E+02  0.91188000000E+02 0.  0.
    9900012    2    3    3    0    0 -0.23953066208E+02  0.27772803718E+02  0.32712614126E+01  0.54367093461E+02  0.40000021163E+02 0.  0.
        -12    1    3    3    0    0  0.23953066208E+02 -0.27772803718E+02 -0.32712614126E+01  0.36820906539E+02  0.00000000000E+00 0.  1.
         11    1    4    4    0    0 -0.30341123386E+01  0.70058703862E+01 -0.19970590292E+01  0.78915336012E+01  0.51100000000E-03 0. -1.
        -11    1    4    4    0    0  0.61892803261E+01  0.65990841708E+01 -0.89667313592E+01  0.12738028669E+02  0.51100000000E-03 0.  1.
        -12    1    4    4    0    0 -0.27108234196E+02  0.14167849161E+02  0.14235051801E+02  0.33737531191E+02  0.00000000000E+00 0.  1.
</event>
<event>
 8    1  0.2516265E-006  0.9118800E+02  0.7816164E-02  0.1184000E+00
        -11   -1    0    0    0    0  0.00000000000E+00  0.00000000000E+00  0.45593999997E+02  0.45594000000E+02  0.51100000000E-03 0.  1.
         11   -1    0    0    0    0 -0.00000000000E+00 -0.00000000000E+00 -0.45593999997E+02  0.45594000000E+02  0.51100000000E-03 0. -1.
         23    2    1    2    0    0  0.71054273576E-14  0.00000000000E+00 -0.66613381478E-15  0.91188000000E+02  0.91188000000E+02 0.  0.
    9900012    2    3    3    0    0  0.35869522423E+02  0.82788569528E+01  0.78595217876E+00  0.54367084312E+02  0.40000000306E+02 0.  0.
        -12    1    3    3    0    0 -0.35869522423E+02 -0.82788569528E+01 -0.78595217876E+00  0.36820915688E+02  0.00000000000E+00 0.  1.
         11    1    4    4    0    0  0.26103200359E+01  0.80017032739E+01 -0.92083383854E+01  0.12475356590E+02  0.51100000000E-03 0. -1.
        -11    1    4    4    0    0  0.29580245730E+02  0.56768739114E+01  0.20325460926E+00  0.30120742812E+02  0.51100000000E-03 0.  1.
        -12    1    4    4    0    0  0.36789566573E+01 -0.53997202325E+01  0.97910359549E+01  0.11770984910E+02  0.00000000000E+00 0.  1.
</event>
<event>
 8    1  0.2516265E-006  0.9118800E+02  0.7816164E-02  0.1184000E+00
        -11   -1    0    0    0    0  0.00000000000E+00  0.00000000000E+00  0.45593999997E+02  0.45594000000E+02  0.51100000000E-03 0.  1.
         11   -1    0    0    0    0 -0.00000000000E+00 -0.00000000000E+00 -0.45593999997E+02  0.45594000000E+02  0.51100000000E-03 0. -1.
         23    2    1    2    0    0  0.00000000000E+00  0.00000000000E+00  0.44408920985E-15  0.91188000000E+02  0.91188000000E+02 0.  0.
    9900012    2    3    3    0    0 -0.36563162917E+02  0.36295694654E+01 -0.23971312835E+01  0.54367015556E+02  0.39999843564E+02 0.  0.
        -12    1    3    3    0    0  0.36563162917E+02 -0.36295694654E+01  0.23971312835E+01  0.36820984444E+02  0.00000000000E+00 0.  1.
         11    1    4    4    0    0 -0.15867646705E+02  0.14678688340E+02 -0.10356298645E+02  0.23968709294E+02  0.51100000000E-03 0. -1.
        -11    1    4    4    0    0 -0.96254714049E+01 -0.13984185489E+02  0.10194251173E+01  0.17007244674E+02  0.51100000000E-03 0.  1.
        -12    1    4    4    0    0 -0.11070044807E+02  0.29350666140E+01  0.69397422439E+01  0.13391061589E+02  0.00000000000E+00 0.  1.
</event>
<event>
 8    1  0.2516265E-006  0.9118800E+02  0.7816164E-02  0.1184000E+00
        -11   -1    0    0    0    0  0.00000000000E+00  0.00000000000E+00  0.45593999997E+02  0.45594000000E+02  0.51100000000E-03 0. -1.
         11   -1    0    0    0    0 -0.00000000000E+00 -0.00000000000E+00 -0.45593999997E+02  0.45594000000E+02  0.51100000000E-03 0.  1.
         23    2    1    2    0    0 -0.17763568394E-14  0.71054273576E-14  0.00000000000E+00  0.91188000000E+02  0.91188000000E+02 0.  0.
    9900012    2    3    3    0    0  0.15095915297E+02 -0.32666655215E+02 -0.77960007320E+01  0.54367154695E+02  0.40000160757E+02 0.  0.
         12    1    3    3    0    0 -0.15095915297E+02  0.32666655215E+02  0.77960007320E+01  0.36820845305E+02  0.00000000000E+00 0. -1.
         11    1    4    4    0    0  0.10975837048E+02 -0.36218041351E+01  0.27994360495E+01  0.11892153151E+02  0.51100000000E-03 0. -1.
        -11    1    4    4    0    0  0.20813434379E+01 -0.33347848946E+02 -0.14396576864E+02  0.36382309513E+02  0.51100000000E-03 0.  1.
        -12    1    4    4    0    0  0.20387348109E+01  0.43029978659E+01  0.38011400824E+01  0.60926920314E+01  0.00000000000E+00 0.  1.
</event>
<event>
 8    1  0.2516265E-006  0.9118800E+02  0.7816164E-02  0.1184000E+00
        -11   -1    0    0    0    0  0.00000000000E+00  0.00000000000E+00  0.45593999997E+02  0.45594000000E+02  0.51100000000E-03 0. -1.
         11   -1    0    0    0    0 -0.00000000000E+00 -0.00000000000E+00 -0.45593999997E+02  0.45594000000E+02  0.51100000000E-03 0.  1.
         23    2    1    2    0    0  0.00000000000E+00 -0.17763568394E-14  0.00000000000E+00  0.91188000000E+02  0.91188000000E+02 0.  0.
    9900012    2    3    3    0    0  0.48123995343E+01 -0.94815757264E+01 -0.35252242984E+02  0.54367080634E+02  0.39999991922E+02 0.  0.
         12    1    3    3    0    0 -0.48123995343E+01  0.94815757264E+01  0.35252242984E+02  0.36820919366E+02  0.00000000000E+00 0. -1.
         11    1    4    4    0    0 -0.84630741030E+01 -0.35770155161E+01  0.37602358839E+01  0.99276400740E+01  0.51100000000E-03 0. -1.
        -11    1    4    4    0    0  0.13273401223E+01  0.88967266079E+00  0.11639693025E+01  0.19769102261E+01  0.51100000000E-03 0.  1.
        -12    1    4    4    0    0  0.11948133515E+02 -0.67942328711E+01 -0.40176448170E+02  0.42462530334E+02  0.00000000000E+00 0.  1.
</event>
<event>
 8    1  0.2516265E-006  0.9118800E+02  0.7816164E-02  0.1184000E+00
        -11   -1    0    0    0    0  0.00000000000E+00  0.00000000000E+00  0.45593999997E+02  0.45594000000E+02  0.51100000000E-03 0. -1.
         11   -1    0    0    0    0 -0.00000000000E+00 -0.00000000000E+00 -0.45593999997E+02  0.45594000000E+02  0.51100000000E-03 0.  1.
         23    2    1    2    0    0  0.00000000000E+00  0.88817841970E-15  0.00000000000E+00  0.91188000000E+02  0.91188000000E+02 0.  0.
    9900012    2    3    3    0    0  0.11134021089E+02  0.21958510052E+01  0.35028439196E+02  0.54367085566E+02  0.40000003164E+02 0.  0.
        -12    1    3    3    0    0 -0.11134021089E+02 -0.21958510052E+01 -0.35028439196E+02  0.36820914434E+02  0.00000000000E+00 0.  1.
         11    1    4    4    0    0  0.78235765328E+01 -0.37193509521E+01  0.15674527241E+02  0.17909012417E+02  0.51100000000E-03 0. -1.
        -11    1    4    4    0    0  0.56672212509E+01 -0.77896754818E+01  0.20351578330E+02  0.22516287029E+02  0.51100000000E-03 0.  1.
        -12    1    4    4    0    0 -0.23567766948E+01  0.13704877439E+02 -0.99766637367E+00  0.13941786120E+02  0.00000000000E+00 0.  1.
</event>
<event>
 8    1  0.2516265E-006  0.9118800E+02  0.7816164E-02  0.1184000E+00
        -11   -1    0    0    0    0  0.00000000000E+00  0.00000000000E+00  0.45593999997E+02  0.45594000000E+02  0.51100000000E-03 0. -1.
         11   -1    0    0    0    0 -0.00000000000E+00 -0.00000000000E+00 -0.45593999997E+02  0.45594000000E+02  0.51100000000E-03 0.  1.
         23    2    1    2    0    0  0.88817841970E-15  0.00000000000E+00 -0.17763568394E-14  0.91188000000E+02  0.91188000000E+02 0.  0.
    9900012    2    3    3    0    0  0.49871351052E+01  0.35516079623E+02  0.83376355894E+01  0.54367087524E+02  0.40000007629E+02 0.  0.
        -12    1    3    3    0    0 -0.49871351052E+01 -0.35516079623E+02 -0.83376355894E+01  0.36820912476E+02  0.00000000000E+00 0.  1.
         11    1    4    4    0    0 -0.34084260305E+01  0.12260045449E+02  0.18236500121E+02  0.22237266454E+02  0.51100000000E-03 0. -1.
        -11    1    4    4    0    0 -0.25866075497E+01  0.28499653206E+01 -0.80010928463E+01  0.88786444878E+01  0.51100000000E-03 0.  1.
         12    1    4    4    0    0  0.10982168685E+02  0.20406068854E+02 -0.18977716857E+01  0.23251176582E+02  0.00000000000E+00 0. -1.
</event>
<event>
 8    1  0.2516265E-006  0.9118800E+02  0.7816164E-02  0.1184000E+00
        -11   -1    0    0    0    0  0.00000000000E+00  0.00000000000E+00  0.45593999997E+02  0.45594000000E+02  0.51100000000E-03 0.  1.
         11   -1    0    0    0    0 -0.00000000000E+00 -0.00000000000E+00 -0.45593999997E+02  0.45594000000E+02  0.51100000000E-03 0. -1.
         23    2    1    2    0    0  0.35527136788E-14  0.00000000000E+00  0.00000000000E+00  0.91188000000E+02  0.91188000000E+02 0.  0.
    9900012    2    3    3    0    0  0.24510240948E+02  0.26216665940E+02 -0.82288427181E+01  0.54367091037E+02  0.40000015637E+02 0.  0.
        -12    1    3    3    0    0 -0.24510240948E+02 -0.26216665940E+02  0.82288427181E+01  0.36820908963E+02  0.00000000000E+00 0.  1.
         11    1    4    4    0    0  0.32170421607E+01 -0.11683743679E+01 -0.29302231143E+01  0.45056261149E+01  0.51100000000E-03 0. -1.
        -11    1    4    4    0    0  0.12477303641E+02  0.34454607292E+02  0.14975302634E+01  0.36674864239E+02  0.51100000000E-03 0.  1.
        -12    1    4    4    0    0  0.88158951468E+01 -0.70695669834E+01 -0.67961498673E+01  0.13186600684E+02  0.00000000000E+00 0.  1.
</event>
<event>
 8    1  0.2516265E-006  0.9118800E+02  0.7816164E-02  0.1184000E+00
        -11   -1    0    0    0    0  0.00000000000E+00  0.00000000000E+00  0.45593999997E+02  0.45594000000E+02  0.51100000000E-03 0.  1.
         11   -1    0    0    0    0 -0.00000000000E+00 -0.00000000000E+00 -0.45593999997E+02  0.45594000000E+02  0.51100000000E-03 0. -1.
         23    2    1    2    0    0  0.00000000000E+00  0.13322676296E-14 -0.71054273576E-14  0.91188000000E+02  0.91188000000E+02 0.  0.
    9900012    2    3    3    0    0  0.13203955534E+02  0.13502672097E+01  0.34345480659E+02  0.54367086039E+02  0.40000004242E+02 0.  0.
         12    1    3    3    0    0 -0.13203955534E+02 -0.13502672097E+01 -0.34345480659E+02  0.36820913961E+02  0.00000000000E+00 0. -1.
         11    1    4    4    0    0 -0.72164487638E+01  0.11043802997E+02  0.54516214669E+01  0.14274554083E+02  0.51100000000E-03 0. -1.
        -11    1    4    4    0    0  0.81523884646E+01  0.19510516989E+01  0.25063953615E+01  0.87492890214E+01  0.51100000000E-03 0.  1.
        -12    1    4    4    0    0  0.12268015833E+02 -0.11644587486E+02  0.26387463830E+02  0.31343242934E+02  0.00000000000E+00 0.  1.
</event>
<event>
 8    1  0.2516265E-006  0.9118800E+02  0.7816164E-02  0.1184000E+00
        -11   -1    0    0    0    0  0.00000000000E+00  0.00000000000E+00  0.45593999997E+02  0.45594000000E+02  0.51100000000E-03 0. -1.
         11   -1    0    0    0    0 -0.00000000000E+00 -0.00000000000E+00 -0.45593999997E+02  0.45594000000E+02  0.51100000000E-03 0.  1.
         23    2    1    2    0    0 -0.10658141036E-13  0.35527136788E-14 -0.35527136788E-14  0.91188000000E+02  0.91188000000E+02 0.  0.
    9900012    2    3    3    0    0  0.29975749578E+02 -0.16014197251E+02  0.14169458720E+02  0.54367168440E+02  0.40000192092E+02 0.  0.
        -12    1    3    3    0    0 -0.29975749578E+02  0.16014197251E+02 -0.14169458720E+02  0.36820831560E+02  0.00000000000E+00 0.  1.
         11    1    4    4    0    0  0.22183295836E+02 -0.81463232190E+01  0.21235112402E+02  0.31770917442E+02  0.51100000000E-03 0. -1.
        -11    1    4    4    0    0  0.82143157355E+01  0.41417787714E+01 -0.13811557761E+01  0.93025214825E+01  0.51100000000E-03 0.  1.
        -12    1    4    4    0    0 -0.42186199333E+00 -0.12009652803E+02 -0.56844979054E+01  0.13293729516E+02  0.00000000000E+00 0.  1.
</event>
<event>
 8    1  0.2516265E-006  0.9118800E+02  0.7816164E-02  0.1184000E+00
        -11   -1    0    0    0    0  0.00000000000E+00  0.00000000000E+00  0.45593999997E+02  0.45594000000E+02  0.51100000000E-03 0.  1.
         11   -1    0    0    0    0 -0.00000000000E+00 -0.00000000000E+00 -0.45593999997E+02  0.45594000000E+02  0.51100000000E-03 0. -1.
         23    2    1    2    0    0  0.11102230246E-14  0.00000000000E+00 -0.35527136788E-14  0.91188000000E+02  0.91188000000E+02 0.  0.
    9900012    2    3    3    0    0 -0.17624197453E+01 -0.27310349105E+02  0.24633706554E+02  0.54367071302E+02  0.39999970647E+02 0.  0.
         12    1    3    3    0    0  0.17624197453E+01  0.27310349105E+02 -0.24633706554E+02  0.36820928698E+02  0.00000000000E+00 0. -1.
         11    1    4    4    0    0 -0.83801721206E+01 -0.77197199128E+01 -0.40729110214E+01  0.12099998543E+02  0.51100000000E-03 0. -1.
        -11    1    4    4    0    0  0.91438519892E+01 -0.68421706637E+01  0.75918488088E+00  0.11445596993E+02  0.51100000000E-03 0.  1.
        -12    1    4    4    0    0 -0.25260996138E+01 -0.12748458529E+02  0.27947432694E+02  0.30821475765E+02  0.00000000000E+00 0.  1.
</event>
<event>
 8    1  0.2516265E-006  0.9118800E+02  0.7816164E-02  0.1184000E+00
        -11   -1    0    0    0    0  0.00000000000E+00  0.00000000000E+00  0.45593999997E+02  0.45594000000E+02  0.51100000000E-03 0. -1.
         11   -1    0    0    0    0 -0.00000000000E+00 -0.00000000000E+00 -0.45593999997E+02  0.45594000000E+02  0.51100000000E-03 0.  1.
         23    2    1    2    0    0 -0.35527136788E-14 -0.88817841970E-15  0.35527136788E-14  0.91188000000E+02  0.91188000000E+02 0.  0.
    9900012    2    3    3    0    0  0.19831607940E+02  0.51089806425E+01 -0.30600511364E+02  0.54367005277E+02  0.39999820128E+02 0.  0.
         12    1    3    3    0    0 -0.19831607940E+02 -0.51089806425E+01  0.30600511364E+02  0.36820994723E+02  0.00000000000E+00 0. -1.
         11    1    4    4    0    0  0.16640735025E+02 -0.12317880790E+02 -0.25450900581E+01  0.20859571736E+02  0.51100000000E-03 0. -1.
        -11    1    4    4    0    0  0.34304780951E+00  0.91218526319E+01 -0.17823189644E+02  0.20024783809E+02  0.51100000000E-03 0.  1.
         12    1    4    4    0    0  0.28478251053E+01  0.83050088008E+01 -0.10232231662E+02  0.13482649732E+02  0.00000000000E+00 0. -1.
</event>
<event>
 8    1  0.2516265E-006  0.9118800E+02  0.7816164E-02  0.1184000E+00
        -11   -1    0    0    0    0  0.00000000000E+00  0.00000000000E+00  0.45593999997E+02  0.45594000000E+02  0.51100000000E-03 0. -1.
         11   -1    0    0    0    0 -0.00000000000E+00 -0.00000000000E+00 -0.45593999997E+02  0.45594000000E+02  0.51100000000E-03 0.  1.
         23    2    1    2    0    0  0.17763568394E-14  0.00000000000E+00  0.00000000000E+00  0.91188000000E+02  0.91188000000E+02 0.  0.
    9900012    2    3    3    0    0  0.11122111343E+02 -0.32109798509E+02  0.14178890676E+02  0.54367062182E+02  0.39999949855E+02 0.  0.
        -12    1    3    3    0    0 -0.11122111343E+02  0.32109798509E+02 -0.14178890676E+02  0.36820937818E+02  0.00000000000E+00 0.  1.
         11    1    4    4    0    0 -0.23641925943E+01  0.83569358187E+00  0.86051554371E+01  0.89630625761E+01  0.51100000000E-03 0. -1.
        -11    1    4    4    0    0  0.65557052407E-03  0.31630626531E+01 -0.45598426743E+01  0.55495163080E+01  0.51100000000E-03 0.  1.
         12    1    4    4    0    0  0.13485648366E+02 -0.36108554744E+02  0.10133577913E+02  0.39854483297E+02  0.00000000000E+00 0. -1.
</event>
<event>
 8    1  0.2516265E-006  0.9118800E+02  0.7816164E-02  0.1184000E+00
        -11   -1    0    0    0    0  0.00000000000E+00  0.00000000000E+00  0.45593999997E+02  0.45594000000E+02  0.51100000000E-03 0. -1.
         11   -1    0    0    0    0 -0.00000000000E+00 -0.00000000000E+00 -0.45593999997E+02  0.45594000000E+02  0.51100000000E-03 0.  1.
         23    2    1    2    0    0  0.00000000000E+00  0.00000000000E+00  0.00000000000E+00  0.91188000000E+02  0.91188000000E+02 0.  0.
    9900012    2    3    3    0    0 -0.18804450436E+02 -0.25163676607E+02  0.19208376890E+02  0.54367085843E+02  0.40000003797E+02 0.  0.
        -12    1    3    3    0    0  0.18804450436E+02  0.25163676607E+02 -0.19208376890E+02  0.36820914157E+02  0.00000000000E+00 0.  1.
         11    1    4    4    0    0 -0.17390963875E+02 -0.12759999261E+02  0.79522694847E+01  0.22989166924E+02  0.51100000000E-03 0. -1.
        -11    1    4    4    0    0 -0.82147597904E+01 -0.15748395475E+02  0.14697007453E+02  0.23054202801E+02  0.51100000000E-03 0.  1.
        -12    1    4    4    0    0  0.68012732293E+01  0.33447181284E+01 -0.34409000473E+01  0.83237161192E+01  0.00000000000E+00 0.  1.
</event>
<event>
 8    1  0.2516265E-006  0.9118800E+02  0.7816164E-02  0.1184000E+00
        -11   -1    0    0    0    0  0.00000000000E+00  0.00000000000E+00  0.45593999997E+02  0.45594000000E+02  0.51100000000E-03 0.  1.
         11   -1    0    0    0    0 -0.00000000000E+00 -0.00000000000E+00 -0.45593999997E+02  0.45594000000E+02  0.51100000000E-03 0. -1.
         23    2    1    2    0    0  0.00000000000E+00 -0.17763568394E-14  0.00000000000E+00  0.91188000000E+02  0.91188000000E+02 0.  0.
    9900012    2    3    3    0    0 -0.12371988322E+02  0.11529289300E+02  0.32707749244E+02  0.54366980630E+02  0.39999763942E+02 0.  0.
         12    1    3    3    0    0  0.12371988322E+02 -0.11529289300E+02 -0.32707749244E+02  0.36821019370E+02  0.00000000000E+00 0. -1.
         11    1    4    4    0    0 -0.12357925397E+02  0.44381889226E+01  0.60957747035E+01  0.14476681613E+02  0.51100000000E-03 0. -1.
        -11    1    4    4    0    0 -0.13731767725E+02  0.67513239691E+01  0.97225875592E+01  0.18129272718E+02  0.51100000000E-03 0.  1.
         12    1    4    4    0    0  0.13717704800E+02  0.33977640843E+00  0.16889386981E+02  0.21761026299E+02  0.00000000000E+00 0. -1.
</event>
<event>
 8    1  0.2516265E-006  0.9118800E+02  0.7816164E-02  0.1184000E+00
        -11   -1    0    0    0    0  0.00000000000E+00  0.00000000000E+00  0.45593999997E+02  0.45594000000E+02  0.51100000000E-03 0. -1.
         11   -1    0    0    0    0 -0.00000000000E+00 -0.00000000000E+00 -0.45593999997E+02  0.45594000000E+02  0.51100000000E-03 0.  1.
         23    2    1    2    0    0  0.00000000000E+00  0.00000000000E+00  0.00000000000E+00  0.91188000000E+02  0.91188000000E+02 0.  0.
    9900012    2    3    3    0    0  0.10022083656E+02  0.10857644979E+02  0.33726244351E+02  0.54366943886E+02  0.39999680176E+02 0.  0.
        -12    1    3    3    0    0 -0.10022083656E+02 -0.10857644979E+02 -0.33726244351E+02  0.36821056114E+02  0.00000000000E+00 0.  1.
         11    1    4    4    0    0 -0.10611651704E+02  0.11565807390E+01  0.65822971246E+01  0.12540792104E+02  0.51100000000E-03 0. -1.
        -11    1    4    4    0    0  0.20751343492E+02  0.81601014857E+01  0.97045042400E+01  0.24318365812E+02  0.51100000000E-03 0.  1.
         12    1    4    4    0    0 -0.11760813149E+00  0.15409627543E+01  0.17439442987E+02  0.17507785970E+02  0.00000000000E+00 0. -1.
</event>
<event>
 8    1  0.2516265E-006  0.9118800E+02  0.7816164E-02  0.1184000E+00
        -11   -1    0    0    0    0  0.00000000000E+00  0.00000000000E+00  0.45593999997E+02  0.45594000000E+02  0.51100000000E-03 0. -1.
         11   -1    0    0    0    0 -0.00000000000E+00 -0.00000000000E+00 -0.45593999997E+02  0.45594000000E+02  0.51100000000E-03 0.  1.
         23    2    1    2    0    0  0.00000000000E+00  0.17763568394E-14 -0.88817841970E-15  0.91188000000E+02  0.91188000000E+02 0.  0.
    9900012    2    3    3    0    0  0.35117196351E+02 -0.87301852687E+01  0.68077998218E+01  0.54367085389E+02  0.40000002762E+02 0.  0.
         12    1    3    3    0    0 -0.35117196351E+02  0.87301852687E+01 -0.68077998218E+01  0.36820914611E+02  0.00000000000E+00 0. -1.
         11    1    4    4    0    0  0.17981273841E+02  0.69652110656E+01  0.27316934730E+01  0.19475690581E+02  0.51100000000E-03 0. -1.
        -11    1    4    4    0    0  0.21065041338E+02 -0.10448481471E+02  0.10465311395E+02  0.25737705307E+02  0.51100000000E-03 0.  1.
         12    1    4    4    0    0 -0.39291188282E+01 -0.52469148629E+01 -0.63892050467E+01  0.91536895006E+01  0.00000000000E+00 0. -1.
</event>
<event>
 8    1  0.2516265E-006  0.9118800E+02  0.7816164E-02  0.1184000E+00
        -11   -1    0    0    0    0  0.00000000000E+00  0.00000000000E+00  0.45593999997E+02  0.45594000000E+02  0.51100000000E-03 0.  1.
         11   -1    0    0    0    0 -0.00000000000E+00 -0.00000000000E+00 -0.45593999997E+02  0.45594000000E+02  0.51100000000E-03 0. -1.
         23    2    1    2    0    0  0.00000000000E+00  0.00000000000E+00  0.88817841970E-15  0.91188000000E+02  0.91188000000E+02 0.  0.
    9900012    2    3    3    0    0  0.18555850757E+02  0.31546572763E+02 -0.40340978083E+01  0.54367084809E+02  0.40000001438E+02 0.  0.
         12    1    3    3    0    0 -0.18555850757E+02 -0.31546572763E+02  0.40340978083E+01  0.36820915191E+02  0.00000000000E+00 0. -1.
         11    1    4    4    0    0  0.17246090588E+02  0.17884162554E+02 -0.14018991404E+02  0.28527233148E+02  0.51100000000E-03 0. -1.
        -11    1    4    4    0    0 -0.62963498390E+01  0.78826616941E+01  0.12400722561E+02  0.15986190821E+02  0.51100000000E-03 0.  1.
        -12    1    4    4    0    0  0.76061100081E+01  0.57797485150E+01 -0.24158289653E+01  0.98536608396E+01  0.00000000000E+00 0.  1.
</event>
<event>
 8    1  0.2516265E-006  0.9118800E+02  0.7816164E-02  0.1184000E+00
        -11   -1    0    0    0    0  0.00000000000E+00  0.00000000000E+00  0.45593999997E+02  0.45594000000E+02  0.51100000000E-03 0. -1.
         11   -1    0    0    0    0 -0.00000000000E+00 -0.00000000000E+00 -0.45593999997E+02  0.45594000000E+02  0.51100000000E-03 0.  1.
         23    2    1    2    0    0  0.00000000000E+00  0.88817841970E-15  0.35527136788E-14  0.91188000000E+02  0.91188000000E+02 0.  0.
    9900012    2    3    3    0    0 -0.22148582907E+02  0.74476215302E+01  0.28456161735E+02  0.54367082957E+02  0.39999997216E+02 0.  0.
        -12    1    3    3    0    0  0.22148582907E+02 -0.74476215302E+01 -0.28456161735E+02  0.36820917043E+02  0.00000000000E+00 0.  1.
         11    1    4    4    0    0 -0.18762197181E+02 -0.14949310783E+01  0.17072400432E+02  0.25411055049E+02  0.51100000000E-03 0.  1.
        -11    1    4    4    0    0  0.61760627722E+01 -0.42941982432E+00 -0.48848777095E+01  0.78860752754E+01  0.51100000000E-03 0. -1.
         12    1    4    4    0    0 -0.95624484986E+01  0.93719724329E+01  0.16268639013E+02  0.21069952632E+02  0.00000000000E+00 0. -1.
</event>
<event>
 8    1  0.2516265E-006  0.9118800E+02  0.7816164E-02  0.1184000E+00
        -11   -1    0    0    0    0  0.00000000000E+00  0.00000000000E+00  0.45593999997E+02  0.45594000000E+02  0.51100000000E-03 0. -1.
         11   -1    0    0    0    0 -0.00000000000E+00 -0.00000000000E+00 -0.45593999997E+02  0.45594000000E+02  0.51100000000E-03 0.  1.
         23    2    1    2    0    0 -0.17763568394E-14  0.88817841970E-15  0.71054273576E-14  0.91188000000E+02  0.91188000000E+02 0.  0.
    9900012    2    3    3    0    0 -0.14412716539E+02  0.43895323626E+01  0.33597409742E+02  0.54367077499E+02  0.39999984776E+02 0.  0.
        -12    1    3    3    0    0  0.14412716539E+02 -0.43895323626E+01 -0.33597409742E+02  0.36820922501E+02  0.00000000000E+00 0.  1.
         11    1    4    4    0    0  0.30216006705E+01 -0.20203455747E+01  0.63480469060E+01  0.73150233517E+01  0.51100000000E-03 0.  1.
        -11    1    4    4    0    0  0.79493110999E+01  0.78561596745E+01  0.22600611958E+01  0.11402572897E+02  0.51100000000E-03 0. -1.
         12    1    4    4    0    0 -0.25383628309E+02 -0.14462817371E+01  0.24989301641E+02  0.35649481251E+02  0.00000000000E+00 0. -1.
</event>
<event>
 8    1  0.2516265E-006  0.9118800E+02  0.7816164E-02  0.1184000E+00
        -11   -1    0    0    0    0  0.00000000000E+00  0.00000000000E+00  0.45593999997E+02  0.45594000000E+02  0.51100000000E-03 0. -1.
         11   -1    0    0    0    0 -0.00000000000E+00 -0.00000000000E+00 -0.45593999997E+02  0.45594000000E+02  0.51100000000E-03 0.  1.
         23    2    1    2    0    0  0.17763568394E-14  0.00000000000E+00 -0.35527136788E-14  0.91188000000E+02  0.91188000000E+02 0.  0.
    9900012    2    3    3    0    0  0.69480849022E+01  0.30467033030E+02  0.19474703270E+02  0.54367081314E+02  0.39999993471E+02 0.  0.
        -12    1    3    3    0    0 -0.69480849022E+01 -0.30467033030E+02 -0.19474703270E+02  0.36820918686E+02  0.00000000000E+00 0.  1.
         11    1    4    4    0    0  0.13201225265E+02  0.21491601642E+02 -0.28907111653E+01  0.25387349230E+02  0.51100000000E-03 0. -1.
        -11    1    4    4    0    0  0.20804115932E+01  0.61223727332E+01  0.19638117943E+01  0.67578189756E+01  0.51100000000E-03 0.  1.
         12    1    4    4    0    0 -0.83335519558E+01  0.28530586548E+01  0.20401602641E+02  0.22221913109E+02  0.00000000000E+00 0. -1.
</event>
<event>
 8    1  0.2516265E-006  0.9118800E+02  0.7816164E-02  0.1184000E+00
        -11   -1    0    0    0    0  0.00000000000E+00  0.00000000000E+00  0.45593999997E+02  0.45594000000E+02  0.51100000000E-03 0. -1.
         11   -1    0    0    0    0 -0.00000000000E+00 -0.00000000000E+00 -0.45593999997E+02  0.45594000000E+02  0.51100000000E-03 0.  1.
         23    2    1    2    0    0  0.00000000000E+00 -0.17763568394E-14 -0.35527136788E-14  0.91188000000E+02  0.91188000000E+02 0.  0.
    9900012    2    3    3    0    0 -0.18289427525E+02  0.12955001348E+02  0.29213737826E+02  0.54367113306E+02  0.40000066404E+02 0.  0.
        -12    1    3    3    0    0  0.18289427525E+02 -0.12955001348E+02 -0.29213737826E+02  0.36820886694E+02  0.00000000000E+00 0.  1.
         11    1    4    4    0    0 -0.36656312518E+01  0.18098386066E+02  0.58765242492E+00  0.18475220332E+02  0.51100000000E-03 0. -1.
        -11    1    4    4    0    0 -0.76383736974E+00  0.47372053175E+00 -0.17872760439E+01  0.20005535704E+01  0.51100000000E-03 0.  1.
         12    1    4    4    0    0 -0.13859958904E+02 -0.56171052499E+01  0.30413361445E+02  0.33891339404E+02  0.00000000000E+00 0. -1.
</event>
<event>
 8    1  0.2516265E-006  0.9118800E+02  0.7816164E-02  0.1184000E+00
        -11   -1    0    0    0    0  0.00000000000E+00  0.00000000000E+00  0.45593999997E+02  0.45594000000E+02  0.51100000000E-03 0.  1.
         11   -1    0    0    0    0 -0.00000000000E+00 -0.00000000000E+00 -0.45593999997E+02  0.45594000000E+02  0.51100000000E-03 0. -1.
         23    2    1    2    0    0  0.35527136788E-14  0.00000000000E+00  0.00000000000E+00  0.91188000000E+02  0.91188000000E+02 0.  0.
    9900012    2    3    3    0    0  0.30257593177E+02  0.18703928178E+02 -0.95089820432E+01  0.54367087278E+02  0.40000007068E+02 0.  0.
        -12    1    3    3    0    0 -0.30257593177E+02 -0.18703928178E+02  0.95089820432E+01  0.36820912722E+02  0.00000000000E+00 0.  1.
         11    1    4    4    0    0  0.85268283246E+01  0.30643533407E+01  0.30532149187E+01  0.95613379961E+01  0.51100000000E-03 0. -1.
        -11    1    4    4    0    0  0.22942459141E+02  0.17060060597E+02 -0.21438443565E+02  0.35735262162E+02  0.51100000000E-03 0.  1.
        -12    1    4    4    0    0 -0.12116942887E+01 -0.14204857597E+01  0.88762466029E+01  0.90704871203E+01  0.00000000000E+00 0.  1.
</event>
<event>
 8    1  0.2516265E-006  0.9118800E+02  0.7816164E-02  0.1184000E+00
        -11   -1    0    0    0    0  0.00000000000E+00  0.00000000000E+00  0.45593999997E+02  0.45594000000E+02  0.51100000000E-03 0.  1.
         11   -1    0    0    0    0 -0.00000000000E+00 -0.00000000000E+00 -0.45593999997E+02  0.45594000000E+02  0.51100000000E-03 0. -1.
         23    2    1    2    0    0  0.35527136788E-14  0.00000000000E+00  0.00000000000E+00  0.91188000000E+02  0.91188000000E+02 0.  0.
    9900012    2    3    3    0    0  0.25946154576E+02  0.93311621641E+01 -0.24402989322E+02  0.54367090010E+02  0.40000013296E+02 0.  0.
        -12    1    3    3    0    0 -0.25946154576E+02 -0.93311621641E+01  0.24402989322E+02  0.36820909990E+02  0.00000000000E+00 0.  1.
         11    1    4    4    0    0 -0.59207689017E+01  0.51433922182E+01  0.42145017502E+01  0.89034832039E+01  0.51100000000E-03 0. -1.
        -11    1    4    4    0    0  0.63379598862E+01 -0.37756387264E+01 -0.11660995568E+02  0.13798695634E+02  0.51100000000E-03 0.  1.
         12    1    4    4    0    0  0.25528963592E+02  0.79634086723E+01 -0.16956495504E+02  0.31664911172E+02  0.00000000000E+00 0. -1.
</event>
<event>
 8    1  0.2516265E-006  0.9118800E+02  0.7816164E-02  0.1184000E+00
        -11   -1    0    0    0    0  0.00000000000E+00  0.00000000000E+00  0.45593999997E+02  0.45594000000E+02  0.51100000000E-03 0. -1.
         11   -1    0    0    0    0 -0.00000000000E+00 -0.00000000000E+00 -0.45593999997E+02  0.45594000000E+02  0.51100000000E-03 0.  1.
         23    2    1    2    0    0 -0.88817841970E-15  0.00000000000E+00  0.35527136788E-14  0.91188000000E+02  0.91188000000E+02 0.  0.
    9900012    2    3    3    0    0 -0.31953727120E+01 -0.20715731742E+02  0.30272562323E+02  0.54367082331E+02  0.39999995789E+02 0.  0.
        -12    1    3    3    0    0  0.31953727120E+01  0.20715731742E+02 -0.30272562323E+02  0.36820917669E+02  0.00000000000E+00 0.  1.
         11    1    4    4    0    0  0.24022168464E+00 -0.72134646956E+01  0.18983771937E+02  0.20309489816E+02  0.51100000000E-03 0. -1.
        -11    1    4    4    0    0 -0.10723842464E+02 -0.11701723600E+02 -0.45653060147E+01  0.16515845473E+02  0.51100000000E-03 0.  1.
        -12    1    4    4    0    0  0.72882480675E+01 -0.18005434470E+01  0.15854096401E+02  0.17541747042E+02  0.00000000000E+00 0.  1.
</event>
<event>
 8    1  0.2516265E-006  0.9118800E+02  0.7816164E-02  0.1184000E+00
        -11   -1    0    0    0    0  0.00000000000E+00  0.00000000000E+00  0.45593999997E+02  0.45594000000E+02  0.51100000000E-03 0.  1.
         11   -1    0    0    0    0 -0.00000000000E+00 -0.00000000000E+00 -0.45593999997E+02  0.45594000000E+02  0.51100000000E-03 0. -1.
         23    2    1    2    0    0  0.00000000000E+00  0.00000000000E+00  0.00000000000E+00  0.91188000000E+02  0.91188000000E+02 0.  0.
    9900012    2    3    3    0    0  0.83202180046E+01 -0.17235232607E+02 -0.31456324088E+02  0.54367087521E+02  0.40000007623E+02 0.  0.
        -12    1    3    3    0    0 -0.83202180046E+01  0.17235232607E+02  0.31456324088E+02  0.36820912479E+02  0.00000000000E+00 0.  1.
         11    1    4    4    0    0  0.54445928864E+01 -0.56959701264E+00  0.25494946229E+01  0.60388703868E+01  0.51100000000E-03 0. -1.
        -11    1    4    4    0    0  0.63692627111E+01 -0.11975731156E+02  0.26030668348E+00  0.13566628322E+02  0.51100000000E-03 0.  1.
         12    1    4    4    0    0 -0.34936375928E+01 -0.46899044386E+01 -0.34266125394E+02  0.34761588813E+02  0.00000000000E+00 0. -1.
</event>
<event>
 8    1  0.2516265E-006  0.9118800E+02  0.7816164E-02  0.1184000E+00
        -11   -1    0    0    0    0  0.00000000000E+00  0.00000000000E+00  0.45593999997E+02  0.45594000000E+02  0.51100000000E-03 0. -1.
         11   -1    0    0    0    0 -0.00000000000E+00 -0.00000000000E+00 -0.45593999997E+02  0.45594000000E+02  0.51100000000E-03 0.  1.
         23    2    1    2    0    0  0.00000000000E+00  0.88817841970E-15  0.88817841970E-15  0.91188000000E+02  0.91188000000E+02 0.  0.
    9900012    2    3    3    0    0 -0.35808408113E+02  0.68366496962E+01 -0.51766587330E+01  0.54367086563E+02  0.40000005438E+02 0.  0.
         12    1    3    3    0    0  0.35808408113E+02 -0.68366496962E+01  0.51766587330E+01  0.36820913437E+02  0.00000000000E+00 0. -1.
         11    1    4    4    0    0 -0.90186529668E+01 -0.26928573099E+00 -0.16204110195E+02  0.18546746443E+02  0.51100000000E-03 0. -1.
        -11    1    4    4    0    0 -0.19746465047E+02  0.61568992853E+01 -0.22038688390E+01  0.20801137680E+02  0.51100000000E-03 0.  1.
         12    1    4    4    0    0 -0.70432900993E+01  0.94903614195E+00  0.13231320301E+02  0.15019202440E+02  0.00000000000E+00 0. -1.
</event>
<event>
 8    1  0.2516265E-006  0.9118800E+02  0.7816164E-02  0.1184000E+00
        -11   -1    0    0    0    0  0.00000000000E+00  0.00000000000E+00  0.45593999997E+02  0.45594000000E+02  0.51100000000E-03 0. -1.
         11   -1    0    0    0    0 -0.00000000000E+00 -0.00000000000E+00 -0.45593999997E+02  0.45594000000E+02  0.51100000000E-03 0.  1.
         23    2    1    2    0    0  0.00000000000E+00 -0.35527136788E-14 -0.88817841970E-15  0.91188000000E+02  0.91188000000E+02 0.  0.
    9900012    2    3    3    0    0  0.25115738347E+02 -0.25916237832E+02 -0.73026946255E+01  0.54367067843E+02  0.39999962762E+02 0.  0.
        -12    1    3    3    0    0 -0.25115738347E+02  0.25916237832E+02  0.73026946255E+01  0.36820932157E+02  0.00000000000E+00 0.  1.
         11    1    4    4    0    0  0.79710376020E+01 -0.89911402492E+01  0.11429807990E+02  0.16583683378E+02  0.51100000000E-03 0. -1.
        -11    1    4    4    0    0  0.13467742300E+02 -0.27725701386E+01 -0.18637340521E+02  0.23160692774E+02  0.51100000000E-03 0.  1.
        -12    1    4    4    0    0  0.36769584448E+01 -0.14152527445E+02 -0.95162094452E-01  0.14622691691E+02  0.00000000000E+00 0.  1.
</event>
<event>
 8    1  0.2516265E-006  0.9118800E+02  0.7816164E-02  0.1184000E+00
        -11   -1    0    0    0    0  0.00000000000E+00  0.00000000000E+00  0.45593999997E+02  0.45594000000E+02  0.51100000000E-03 0.  1.
         11   -1    0    0    0    0 -0.00000000000E+00 -0.00000000000E+00 -0.45593999997E+02  0.45594000000E+02  0.51100000000E-03 0. -1.
         23    2    1    2    0    0  0.35527136788E-14  0.11102230246E-14 -0.35527136788E-14  0.91188000000E+02  0.91188000000E+02 0.  0.
    9900012    2    3    3    0    0 -0.28659850544E+02  0.13822155969E+01  0.23075551370E+02  0.54367100715E+02  0.40000037699E+02 0.  0.
         12    1    3    3    0    0  0.28659850544E+02 -0.13822155969E+01 -0.23075551370E+02  0.36820899285E+02  0.00000000000E+00 0. -1.
         11    1    4    4    0    0  0.83670325549E+00  0.97768279766E+01  0.14980126387E+02  0.17907836956E+02  0.51100000000E-03 0. -1.
        -11    1    4    4    0    0 -0.16085598675E+02  0.29549535057E+01  0.93619943633E+01  0.18844765153E+02  0.51100000000E-03 0.  1.
         12    1    4    4    0    0 -0.13410955124E+02 -0.11349565885E+02 -0.12665693802E+01  0.17614498606E+02  0.00000000000E+00 0. -1.
</event>
<event>
 8    1  0.2516265E-006  0.9118800E+02  0.7816164E-02  0.1184000E+00
        -11   -1    0    0    0    0  0.00000000000E+00  0.00000000000E+00  0.45593999997E+02  0.45594000000E+02  0.51100000000E-03 0. -1.
         11   -1    0    0    0    0 -0.00000000000E+00 -0.00000000000E+00 -0.45593999997E+02  0.45594000000E+02  0.51100000000E-03 0.  1.
         23    2    1    2    0    0  0.00000000000E+00  0.00000000000E+00  0.00000000000E+00  0.91188000000E+02  0.91188000000E+02 0.  0.
    9900012    2    3    3    0    0 -0.17168901104E+02 -0.10985878826E+02 -0.30664619715E+02  0.54367087450E+02  0.40000007460E+02 0.  0.
         12    1    3    3    0    0  0.17168901104E+02  0.10985878826E+02  0.30664619715E+02  0.36820912550E+02  0.00000000000E+00 0. -1.
         11    1    4    4    0    0  0.24896111924E+01 -0.69604212208E+01 -0.94496450631E+01  0.11997558899E+02  0.51100000000E-03 0. -1.
        -11    1    4    4    0    0 -0.17518219855E+01 -0.99482284791E+01 -0.21227935124E+02  0.23508750712E+02  0.51100000000E-03 0.  1.
        -12    1    4    4    0    0 -0.17906690311E+02  0.59227708735E+01  0.12960471729E-01  0.18860777839E+02  0.00000000000E+00 0.  1.
</event>
<event>
 8    1  0.2516265E-006  0.9118800E+02  0.7816164E-02  0.1184000E+00
        -11   -1    0    0    0    0  0.00000000000E+00  0.00000000000E+00  0.45593999997E+02  0.45594000000E+02  0.51100000000E-03 0. -1.
         11   -1    0    0    0    0 -0.00000000000E+00 -0.00000000000E+00 -0.45593999997E+02  0.45594000000E+02  0.51100000000E-03 0.  1.
         23    2    1    2    0    0  0.00000000000E+00 -0.17763568394E-14  0.00000000000E+00  0.91188000000E+02  0.91188000000E+02 0.  0.
    9900012    2    3    3    0    0  0.33758574001E+02 -0.11440455239E+02 -0.92333508427E+01  0.54367080641E+02  0.39999991936E+02 0.  0.
        -12    1    3    3    0    0 -0.33758574001E+02  0.11440455239E+02  0.92333508427E+01  0.36820919359E+02  0.00000000000E+00 0.  1.
         11    1    4    4    0    0  0.14623289621E+02 -0.97648316134E+01 -0.24386749761E+01  0.17752173717E+02  0.51100000000E-03 0. -1.
        -11    1    4    4    0    0  0.11383786957E+02  0.87962317130E+01  0.83526564093E+01  0.16635238718E+02  0.51100000000E-03 0.  1.
         12    1    4    4    0    0  0.77514974227E+01 -0.10471855339E+02 -0.15147332276E+02  0.19979668206E+02  0.00000000000E+00 0. -1.
</event>
<event>
 8    1  0.2516265E-006  0.9118800E+02  0.7816164E-02  0.1184000E+00
        -11   -1    0    0    0    0  0.00000000000E+00  0.00000000000E+00  0.45593999997E+02  0.45594000000E+02  0.51100000000E-03 0. -1.
         11   -1    0    0    0    0 -0.00000000000E+00 -0.00000000000E+00 -0.45593999997E+02  0.45594000000E+02  0.51100000000E-03 0.  1.
         23    2    1    2    0    0  0.17763568394E-14  0.00000000000E+00 -0.35527136788E-14  0.91188000000E+02  0.91188000000E+02 0.  0.
    9900012    2    3    3    0    0  0.68808589366E+01 -0.17953894272E+02 -0.31402119167E+02  0.54367059933E+02  0.39999944729E+02 0.  0.
         12    1    3    3    0    0 -0.68808589366E+01  0.17953894272E+02  0.31402119167E+02  0.36820940067E+02  0.00000000000E+00 0. -1.
         11    1    4    4    0    0  0.35638262744E+01  0.11545597976E+02 -0.81787373967E+01  0.14590868240E+02  0.51100000000E-03 0. -1.
        -11    1    4    4    0    0 -0.31327053233E+01 -0.24468914191E+01 -0.55433721495E+01  0.68212971867E+01  0.51100000000E-03 0.  1.
         12    1    4    4    0    0  0.64497379856E+01 -0.27052600829E+02 -0.17680009621E+02  0.32954894506E+02  0.00000000000E+00 0. -1.
</event>
<event>
 8    1  0.2516265E-006  0.9118800E+02  0.7816164E-02  0.1184000E+00
        -11   -1    0    0    0    0  0.00000000000E+00  0.00000000000E+00  0.45593999997E+02  0.45594000000E+02  0.51100000000E-03 0. -1.
         11   -1    0    0    0    0 -0.00000000000E+00 -0.00000000000E+00 -0.45593999997E+02  0.45594000000E+02  0.51100000000E-03 0.  1.
         23    2    1    2    0    0  0.00000000000E+00  0.00000000000E+00  0.00000000000E+00  0.91188000000E+02  0.91188000000E+02 0.  0.
    9900012    2    3    3    0    0 -0.70868091668E+01 -0.34661681980E+02 -0.10204116425E+02  0.54367094880E+02  0.40000024397E+02 0.  0.
        -12    1    3    3    0    0  0.70868091668E+01  0.34661681980E+02  0.10204116425E+02  0.36820905120E+02  0.00000000000E+00 0.  1.
         11    1    4    4    0    0 -0.11594155580E+02 -0.35669569842E+02  0.89693462220E+00  0.37517291324E+02  0.51100000000E-03 0. -1.
        -11    1    4    4    0    0 -0.16885682457E+01 -0.39769087984E+01 -0.60308134298E+01  0.74187449880E+01  0.51100000000E-03 0.  1.
         12    1    4    4    0    0  0.61959146588E+01  0.49847966605E+01 -0.50702376170E+01  0.94310585672E+01  0.00000000000E+00 0. -1.
</event>
<event>
 8    1  0.2516265E-006  0.9118800E+02  0.7816164E-02  0.1184000E+00
        -11   -1    0    0    0    0  0.00000000000E+00  0.00000000000E+00  0.45593999997E+02  0.45594000000E+02  0.51100000000E-03 0.  1.
         11   -1    0    0    0    0 -0.00000000000E+00 -0.00000000000E+00 -0.45593999997E+02  0.45594000000E+02  0.51100000000E-03 0. -1.
         23    2    1    2    0    0 -0.71054273576E-14 -0.88817841970E-15 -0.35527136788E-14  0.91188000000E+02  0.91188000000E+02 0.  0.
    9900012    2    3    3    0    0 -0.27406837248E+02 -0.57404003819E+01 -0.23910172557E+02  0.54367037544E+02  0.39999893688E+02 0.  0.
        -12    1    3    3    0    0  0.27406837248E+02  0.57404003819E+01  0.23910172557E+02  0.36820962456E+02  0.00000000000E+00 0.  1.
         11    1    4    4    0    0  0.40540579674E+00 -0.84393373225E+01 -0.88009726336E+01  0.12200159337E+02  0.51100000000E-03 0. -1.
        -11    1    4    4    0    0  0.11271220128E+01 -0.81783058043E+01 -0.15123572728E+01  0.83929919958E+01  0.51100000000E-03 0.  1.
        -12    1    4    4    0    0 -0.28939365058E+02  0.10877242745E+02 -0.13596842651E+02  0.33773886210E+02  0.00000000000E+00 0.  1.
</event>
<event>
 8    1  0.2516265E-006  0.9118800E+02  0.7816164E-02  0.1184000E+00
        -11   -1    0    0    0    0  0.00000000000E+00  0.00000000000E+00  0.45593999997E+02  0.45594000000E+02  0.51100000000E-03 0.  1.
         11   -1    0    0    0    0 -0.00000000000E+00 -0.00000000000E+00 -0.45593999997E+02  0.45594000000E+02  0.51100000000E-03 0. -1.
         23    2    1    2    0    0  0.00000000000E+00  0.00000000000E+00  0.00000000000E+00  0.91188000000E+02  0.91188000000E+02 0.  0.
    9900012    2    3    3    0    0 -0.11193505865E+02  0.25065703823E+02 -0.24539685061E+02  0.54367078983E+02  0.39999988157E+02 0.  0.
        -12    1    3    3    0    0  0.11193505865E+02 -0.25065703823E+02  0.24539685061E+02  0.36820921017E+02  0.00000000000E+00 0.  1.
         11    1    4    4    0    0 -0.77157590827E+01  0.32809967260E+02 -0.86738961782E+01  0.34803209119E+02  0.51100000000E-03 0. -1.
        -11    1    4    4    0    0  0.72229145592E+00 -0.48510170123E+00  0.61938050141E+00  0.10680173568E+01  0.51100000000E-03 0.  1.
         12    1    4    4    0    0 -0.42000382379E+01 -0.72591617361E+01 -0.16485169384E+02  0.18495852507E+02  0.00000000000E+00 0. -1.
</event>
<event>
 8    1  0.2516265E-006  0.9118800E+02  0.7816164E-02  0.1184000E+00
        -11   -1    0    0    0    0  0.00000000000E+00  0.00000000000E+00  0.45593999997E+02  0.45594000000E+02  0.51100000000E-03 0.  1.
         11   -1    0    0    0    0 -0.00000000000E+00 -0.00000000000E+00 -0.45593999997E+02  0.45594000000E+02  0.51100000000E-03 0. -1.
         23    2    1    2    0    0  0.17763568394E-14 -0.44408920985E-15  0.00000000000E+00  0.91188000000E+02  0.91188000000E+02 0.  0.
    9900012    2    3    3    0    0  0.12620800480E+02 -0.28693676081E+01 -0.34471133952E+02  0.54367123433E+02  0.40000089489E+02 0.  0.
        -12    1    3    3    0    0 -0.12620800480E+02  0.28693676081E+01  0.34471133952E+02  0.36820876567E+02  0.00000000000E+00 0.  1.
         11    1    4    4    0    0 -0.59508136950E+01  0.31444086019E+01 -0.11425399405E+02  0.13260438941E+02  0.51100000000E-03 0. -1.
        -11    1    4    4    0    0 -0.98135363225E+00 -0.70077618734E+01 -0.20098623164E+02  0.21307896067E+02  0.51100000000E-03 0.  1.
        -12    1    4    4    0    0  0.19552967808E+02  0.99398566343E+00 -0.29471113827E+01  0.19798788425E+02  0.00000000000E+00 0.  1.
</event>
<event>
 8    1  0.2516265E-006  0.9118800E+02  0.7816164E-02  0.1184000E+00
        -11   -1    0    0    0    0  0.00000000000E+00  0.00000000000E+00  0.45593999997E+02  0.45594000000E+02  0.51100000000E-03 0. -1.
         11   -1    0    0    0    0 -0.00000000000E+00 -0.00000000000E+00 -0.45593999997E+02  0.45594000000E+02  0.51100000000E-03 0.  1.
         23    2    1    2    0    0  0.35527136788E-14 -0.35527136788E-14 -0.35527136788E-14  0.91188000000E+02  0.91188000000E+02 0.  0.
    9900012    2    3    3    0    0  0.24494150187E+02 -0.21835622059E+02 -0.16703891995E+02  0.54367112016E+02  0.40000063464E+02 0.  0.
         12    1    3    3    0    0 -0.24494150187E+02  0.21835622059E+02  0.16703891995E+02  0.36820887984E+02  0.00000000000E+00 0. -1.
         11    1    4    4    0    0  0.21682269112E+02 -0.30550335542E+02 -0.11041661065E+02  0.39055883998E+02  0.51100000000E-03 0. -1.
        -11    1    4    4    0    0  0.44681779781E+01 -0.81066438625E+00 -0.21542148543E+01  0.50261747971E+01  0.51100000000E-03 0.  1.
         12    1    4    4    0    0 -0.16562969027E+01  0.95253778686E+01 -0.35080160754E+01  0.10285053221E+02  0.00000000000E+00 0. -1.
</event>
<event>
 8    1  0.2516265E-006  0.9118800E+02  0.7816164E-02  0.1184000E+00
        -11   -1    0    0    0    0  0.00000000000E+00  0.00000000000E+00  0.45593999997E+02  0.45594000000E+02  0.51100000000E-03 0.  1.
         11   -1    0    0    0    0 -0.00000000000E+00 -0.00000000000E+00 -0.45593999997E+02  0.45594000000E+02  0.51100000000E-03 0. -1.
         23    2    1    2    0    0  0.35527136788E-14 -0.17763568394E-14  0.00000000000E+00  0.91188000000E+02  0.91188000000E+02 0.  0.
    9900012    2    3    3    0    0  0.25177745610E+02  0.13979713106E+02  0.22943863032E+02  0.54367189262E+02  0.40000239561E+02 0.  0.
         12    1    3    3    0    0 -0.25177745610E+02 -0.13979713106E+02 -0.22943863032E+02  0.36820810738E+02  0.00000000000E+00 0. -1.
         11    1    4    4    0    0  0.15417496235E+01  0.84035968787E+01 -0.38531727115E+01  0.93725328810E+01  0.51100000000E-03 0. -1.
        -11    1    4    4    0    0  0.86913701768E+01 -0.10641096896E+02  0.72981762604E+01  0.15557513802E+02  0.51100000000E-03 0.  1.
         12    1    4    4    0    0  0.14944625810E+02  0.16217213124E+02  0.19498859483E+02  0.29437142580E+02  0.00000000000E+00 0. -1.
</event>
<event>
 8    1  0.2516265E-006  0.9118800E+02  0.7816164E-02  0.1184000E+00
        -11   -1    0    0    0    0  0.00000000000E+00  0.00000000000E+00  0.45593999997E+02  0.45594000000E+02  0.51100000000E-03 0.  1.
         11   -1    0    0    0    0 -0.00000000000E+00 -0.00000000000E+00 -0.45593999997E+02  0.45594000000E+02  0.51100000000E-03 0. -1.
         23    2    1    2    0    0  0.88817841970E-15  0.00000000000E+00  0.00000000000E+00  0.91188000000E+02  0.91188000000E+02 0.  0.
    9900012    2    3    3    0    0 -0.61516702492E+01 -0.35305215399E+02  0.84541753813E+01  0.54367158584E+02  0.40000169623E+02 0.  0.
        -12    1    3    3    0    0  0.61516702492E+01  0.35305215399E+02 -0.84541753813E+01  0.36820841416E+02  0.00000000000E+00 0.  1.
         11    1    4    4    0    0 -0.37851701867E+00 -0.29523937389E+02  0.16455730307E+01  0.29572183973E+02  0.51100000000E-03 0. -1.
        -11    1    4    4    0    0  0.15001333948E+01 -0.12534315592E+02 -0.23283532909E+00  0.12625913041E+02  0.51100000000E-03 0.  1.
        -12    1    4    4    0    0 -0.72732866253E+01  0.67530375814E+01  0.70414376796E+01  0.12169061570E+02  0.00000000000E+00 0.  1.
</event>
<event>
 8    1  0.2516265E-006  0.9118800E+02  0.7816164E-02  0.1184000E+00
        -11   -1    0    0    0    0  0.00000000000E+00  0.00000000000E+00  0.45593999997E+02  0.45594000000E+02  0.51100000000E-03 0. -1.
         11   -1    0    0    0    0 -0.00000000000E+00 -0.00000000000E+00 -0.45593999997E+02  0.45594000000E+02  0.51100000000E-03 0.  1.
         23    2    1    2    0    0  0.00000000000E+00 -0.88817841970E-15  0.00000000000E+00  0.91188000000E+02  0.91188000000E+02 0.  0.
    9900012    2    3    3    0    0 -0.27122899729E+02 -0.62709332324E+01 -0.24099881526E+02  0.54367074117E+02  0.39999977064E+02 0.  0.
         12    1    3    3    0    0  0.27122899729E+02  0.62709332324E+01  0.24099881526E+02  0.36820925883E+02  0.00000000000E+00 0. -1.
         11    1    4    4    0    0 -0.27064568806E+02 -0.11944187015E+02 -0.73283777520E+01  0.30477198179E+02  0.51100000000E-03 0. -1.
        -11    1    4    4    0    0 -0.55671121180E+01 -0.86678098793E-01 -0.14605303696E+02  0.15630583698E+02  0.51100000000E-03 0.  1.
         12    1    4    4    0    0  0.55087811946E+01  0.57599318815E+01 -0.21662000783E+01  0.82592922402E+01  0.00000000000E+00 0. -1.
</event>
<event>
 8    1  0.2516265E-006  0.9118800E+02  0.7816164E-02  0.1184000E+00
        -11   -1    0    0    0    0  0.00000000000E+00  0.00000000000E+00  0.45593999997E+02  0.45594000000E+02  0.51100000000E-03 0. -1.
         11   -1    0    0    0    0 -0.00000000000E+00 -0.00000000000E+00 -0.45593999997E+02  0.45594000000E+02  0.51100000000E-03 0.  1.
         23    2    1    2    0    0  0.00000000000E+00  0.00000000000E+00 -0.17763568394E-14  0.91188000000E+02  0.91188000000E+02 0.  0.
    9900012    2    3    3    0    0  0.33017064049E+02 -0.10562494543E+02 -0.12413075667E+02  0.54367119281E+02  0.40000080025E+02 0.  0.
         12    1    3    3    0    0 -0.33017064049E+02  0.10562494543E+02  0.12413075667E+02  0.36820880719E+02  0.00000000000E+00 0. -1.
         11    1    4    4    0    0  0.80276448603E+01  0.67935245506E+01  0.10478869643E+02  0.14845934362E+02  0.51100000000E-03 0. -1.
        -11    1    4    4    0    0 -0.10285564950E+01 -0.11831413070E+01 -0.13704325933E+01  0.20822674107E+01  0.51100000000E-03 0.  1.
         12    1    4    4    0    0  0.26017975684E+02 -0.16172877787E+02 -0.21521512717E+02  0.37438917508E+02  0.00000000000E+00 0. -1.
</event>
<event>
 8    1  0.2516265E-006  0.9118800E+02  0.7816164E-02  0.1184000E+00
        -11   -1    0    0    0    0  0.00000000000E+00  0.00000000000E+00  0.45593999997E+02  0.45594000000E+02  0.51100000000E-03 0. -1.
         11   -1    0    0    0    0 -0.00000000000E+00 -0.00000000000E+00 -0.45593999997E+02  0.45594000000E+02  0.51100000000E-03 0.  1.
         23    2    1    2    0    0 -0.35527136788E-14  0.00000000000E+00 -0.44408920985E-15  0.91188000000E+02  0.91188000000E+02 0.  0.
    9900012    2    3    3    0    0 -0.23434797958E+02 -0.28184083189E+02 -0.34995462431E+01  0.54367093921E+02  0.40000022212E+02 0.  0.
         12    1    3    3    0    0  0.23434797958E+02  0.28184083189E+02  0.34995462431E+01  0.36820906079E+02  0.00000000000E+00 0. -1.
         11    1    4    4    0    0  0.50079179806E+01 -0.62626285815E+01  0.62765929966E+01  0.10183092809E+02  0.51100000000E-03 0. -1.
        -11    1    4    4    0    0 -0.54101575554E+01 -0.15935592258E+02 -0.11406887249E+02  0.20330518498E+02  0.51100000000E-03 0.  1.
         12    1    4    4    0    0 -0.23032558384E+02 -0.59858623493E+01  0.16307480096E+01  0.23853482614E+02  0.00000000000E+00 0. -1.
</event>
<event>
 8    1  0.2516265E-006  0.9118800E+02  0.7816164E-02  0.1184000E+00
        -11   -1    0    0    0    0  0.00000000000E+00  0.00000000000E+00  0.45593999997E+02  0.45594000000E+02  0.51100000000E-03 0. -1.
         11   -1    0    0    0    0 -0.00000000000E+00 -0.00000000000E+00 -0.45593999997E+02  0.45594000000E+02  0.51100000000E-03 0.  1.
         23    2    1    2    0    0  0.00000000000E+00  0.00000000000E+00  0.00000000000E+00  0.91188000000E+02  0.91188000000E+02 0.  0.
    9900012    2    3    3    0    0  0.56219286648E+01 -0.27670695620E+02 -0.23632619924E+02  0.54367160758E+02  0.40000174579E+02 0.  0.
         12    1    3    3    0    0 -0.56219286648E+01  0.27670695620E+02  0.23632619924E+02  0.36820839242E+02  0.00000000000E+00 0. -1.
         11    1    4    4    0    0  0.10979330435E+02 -0.12240941915E+02 -0.81980768186E+01  0.18373753551E+02  0.51100000000E-03 0. -1.
        -11    1    4    4    0    0 -0.51080523712E+01 -0.42125352995E+01 -0.22012948494E+02  0.22987117139E+02  0.51100000000E-03 0.  1.
        -12    1    4    4    0    0 -0.24934939911E+00 -0.11217218405E+02  0.65784053886E+01  0.13006290068E+02  0.00000000000E+00 0.  1.
</event>
<event>
 8    1  0.2516265E-006  0.9118800E+02  0.7816164E-02  0.1184000E+00
        -11   -1    0    0    0    0  0.00000000000E+00  0.00000000000E+00  0.45593999997E+02  0.45594000000E+02  0.51100000000E-03 0. -1.
         11   -1    0    0    0    0 -0.00000000000E+00 -0.00000000000E+00 -0.45593999997E+02  0.45594000000E+02  0.51100000000E-03 0.  1.
         23    2    1    2    0    0 -0.24424906542E-14  0.35527136788E-14  0.00000000000E+00  0.91188000000E+02  0.91188000000E+02 0.  0.
    9900012    2    3    3    0    0 -0.19853637786E+01 -0.23868411877E+02  0.27966710615E+02  0.54367086684E+02  0.40000005712E+02 0.  0.
        -12    1    3    3    0    0  0.19853637786E+01  0.23868411877E+02 -0.27966710615E+02  0.36820913316E+02  0.00000000000E+00 0.  1.
         11    1    4    4    0    0 -0.11275460427E+02 -0.45818151433E+01  0.14599896835E+02  0.19007525502E+02  0.51100000000E-03 0. -1.
        -11    1    4    4    0    0  0.76155953803E+01 -0.13729666502E+02 -0.46957153250E+01  0.16387518968E+02  0.51100000000E-03 0.  1.
        -12    1    4    4    0    0  0.16745012685E+01 -0.55569302316E+01  0.18062529105E+02  0.18972042214E+02  0.00000000000E+00 0.  1.
</event>
<event>
 8    1  0.2516265E-006  0.9118800E+02  0.7816164E-02  0.1184000E+00
        -11   -1    0    0    0    0  0.00000000000E+00  0.00000000000E+00  0.45593999997E+02  0.45594000000E+02  0.51100000000E-03 0.  1.
         11   -1    0    0    0    0 -0.00000000000E+00 -0.00000000000E+00 -0.45593999997E+02  0.45594000000E+02  0.51100000000E-03 0. -1.
         23    2    1    2    0    0  0.88817841970E-15 -0.71054273576E-14  0.35527136788E-14  0.91188000000E+02  0.91188000000E+02 0.  0.
    9900012    2    3    3    0    0  0.58702723598E+01  0.30644774702E+02 -0.19550411854E+02  0.54367069569E+02  0.39999966697E+02 0.  0.
        -12    1    3    3    0    0 -0.58702723598E+01 -0.30644774702E+02  0.19550411854E+02  0.36820930431E+02  0.00000000000E+00 0.  1.
         11    1    4    4    0    0  0.83834902951E+01 -0.26261145278E+01 -0.25702706931E+00  0.87889390837E+01  0.51100000000E-03 0. -1.
        -11    1    4    4    0    0 -0.45810167095E+01 -0.26609026675E+01 -0.26956384869E+01  0.59441218201E+01  0.51100000000E-03 0.  1.
         12    1    4    4    0    0  0.20677987743E+01  0.35931791898E+02 -0.16597746297E+02  0.39634008666E+02  0.00000000000E+00 0. -1.
</event>
<event>
 8    1  0.2516265E-006  0.9118800E+02  0.7816164E-02  0.1184000E+00
        -11   -1    0    0    0    0  0.00000000000E+00  0.00000000000E+00  0.45593999997E+02  0.45594000000E+02  0.51100000000E-03 0.  1.
         11   -1    0    0    0    0 -0.00000000000E+00 -0.00000000000E+00 -0.45593999997E+02  0.45594000000E+02  0.51100000000E-03 0. -1.
         23    2    1    2    0    0  0.00000000000E+00  0.00000000000E+00  0.22204460493E-14  0.91188000000E+02  0.91188000000E+02 0.  0.
    9900012    2    3    3    0    0 -0.21908796154E+02 -0.29496145641E+02 -0.24003141800E+01  0.54367089300E+02  0.40000011678E+02 0.  0.
        -12    1    3    3    0    0  0.21908796154E+02  0.29496145641E+02  0.24003141800E+01  0.36820910700E+02  0.00000000000E+00 0.  1.
         11    1    4    4    0    0 -0.13549425082E+02 -0.22476289929E+02  0.12242525511E+02  0.28959453728E+02  0.51100000000E-03 0. -1.
        -11    1    4    4    0    0  0.38425723851E+01  0.20976806064E+01 -0.72667331967E+01  0.84835746048E+01  0.51100000000E-03 0.  1.
         12    1    4    4    0    0 -0.12201943456E+02 -0.91175363183E+01 -0.73761064940E+01  0.16924060968E+02  0.00000000000E+00 0. -1.
</event>
<event>
 8    1  0.2516265E-006  0.9118800E+02  0.7816164E-02  0.1184000E+00
        -11   -1    0    0    0    0  0.00000000000E+00  0.00000000000E+00  0.45593999997E+02  0.45594000000E+02  0.51100000000E-03 0. -1.
         11   -1    0    0    0    0 -0.00000000000E+00 -0.00000000000E+00 -0.45593999997E+02  0.45594000000E+02  0.51100000000E-03 0.  1.
         23    2    1    2    0    0  0.71054273576E-14  0.88817841970E-15 -0.33306690739E-15  0.91188000000E+02  0.91188000000E+02 0.  0.
    9900012    2    3    3    0    0 -0.36520964773E+02 -0.45972031005E+01 -0.93087245996E+00  0.54367059384E+02  0.39999943479E+02 0.  0.
        -12    1    3    3    0    0  0.36520964773E+02  0.45972031005E+01  0.93087245996E+00  0.36820940616E+02  0.00000000000E+00 0.  1.
         11    1    4    4    0    0 -0.16060665056E+02  0.59758536321E+01 -0.14797741896E+02  0.22641310787E+02  0.51100000000E-03 0. -1.
        -11    1    4    4    0    0 -0.28712840824E+01  0.38170697259E+01  0.60176875323E+01  0.76828937955E+01  0.51100000000E-03 0.  1.
         12    1    4    4    0    0 -0.17589015634E+02 -0.14390126459E+02  0.78491819035E+01  0.24042854802E+02  0.00000000000E+00 0. -1.
</event>
<event>
 8    1  0.2516265E-006  0.9118800E+02  0.7816164E-02  0.1184000E+00
        -11   -1    0    0    0    0  0.00000000000E+00  0.00000000000E+00  0.45593999997E+02  0.45594000000E+02  0.51100000000E-03 0. -1.
         11   -1    0    0    0    0 -0.00000000000E+00 -0.00000000000E+00 -0.45593999997E+02  0.45594000000E+02  0.51100000000E-03 0.  1.
         23    2    1    2    0    0  0.00000000000E+00 -0.35527136788E-14 -0.35527136788E-14  0.91188000000E+02  0.91188000000E+02 0.  0.
    9900012    2    3    3    0    0 -0.11925460595E+02 -0.29835707016E+02 -0.17983108655E+02  0.54367106197E+02  0.40000050197E+02 0.  0.
         12    1    3    3    0    0  0.11925460595E+02  0.29835707016E+02  0.17983108655E+02  0.36820893803E+02  0.00000000000E+00 0. -1.
         11    1    4    4    0    0 -0.11796073137E+02 -0.10762707874E+02  0.46260530336E+01  0.16624788394E+02  0.51100000000E-03 0. -1.
        -11    1    4    4    0    0  0.10840023920E+02 -0.41084302283E+01 -0.99920044981E+01  0.15304426539E+02  0.51100000000E-03 0.  1.
         12    1    4    4    0    0 -0.10969411379E+02 -0.14964568913E+02 -0.12617157191E+02  0.22437891264E+02  0.00000000000E+00 0. -1.
</event>
<event>
 8    1  0.2516265E-006  0.9118800E+02  0.7816164E-02  0.1184000E+00
        -11   -1    0    0    0    0  0.00000000000E+00  0.00000000000E+00  0.45593999997E+02  0.45594000000E+02  0.51100000000E-03 0.  1.
         11   -1    0    0    0    0 -0.00000000000E+00 -0.00000000000E+00 -0.45593999997E+02  0.45594000000E+02  0.51100000000E-03 0. -1.
         23    2    1    2    0    0 -0.88817841970E-15 -0.22204460493E-14  0.00000000000E+00  0.91188000000E+02  0.91188000000E+02 0.  0.
    9900012    2    3    3    0    0  0.56008993264E+01  0.11205088231E+01  0.36375189032E+02  0.54367082163E+02  0.39999995406E+02 0.  0.
         12    1    3    3    0    0 -0.56008993264E+01 -0.11205088231E+01 -0.36375189032E+02  0.36820917837E+02  0.00000000000E+00 0. -1.
         11    1    4    4    0    0  0.41083407791E+01  0.15654212039E+02  0.93844950655E+01  0.18708328798E+02  0.51100000000E-03 0. -1.
        -11    1    4    4    0    0  0.57810536201E+01  0.18845543246E+01  0.95786070088E+01  0.11345564704E+02  0.51100000000E-03 0.  1.
        -12    1    4    4    0    0 -0.42884950728E+01 -0.16418257540E+02  0.17412086957E+02  0.24313188661E+02  0.00000000000E+00 0.  1.
</event>
<event>
 8    1  0.2516265E-006  0.9118800E+02  0.7816164E-02  0.1184000E+00
        -11   -1    0    0    0    0  0.00000000000E+00  0.00000000000E+00  0.45593999997E+02  0.45594000000E+02  0.51100000000E-03 0. -1.
         11   -1    0    0    0    0 -0.00000000000E+00 -0.00000000000E+00 -0.45593999997E+02  0.45594000000E+02  0.51100000000E-03 0.  1.
         23    2    1    2    0    0  0.00000000000E+00  0.26645352591E-14  0.00000000000E+00  0.91188000000E+02  0.91188000000E+02 0.  0.
    9900012    2    3    3    0    0  0.24978573174E+02  0.13202369299E+01  0.27020475194E+02  0.54367106161E+02  0.40000050116E+02 0.  0.
        -12    1    3    3    0    0 -0.24978573174E+02 -0.13202369299E+01 -0.27020475194E+02  0.36820893839E+02  0.00000000000E+00 0.  1.
         11    1    4    4    0    0  0.10972149100E+02 -0.13670923871E+02  0.10845863093E+02  0.20613465547E+02  0.51100000000E-03 0. -1.
        -11    1    4    4    0    0  0.12722329984E+02  0.12429375222E+02  0.47274511510E+00  0.17792429200E+02  0.51100000000E-03 0.  1.
         12    1    4    4    0    0  0.12840940900E+01  0.25617855790E+01  0.15701866986E+02  0.15961211415E+02  0.00000000000E+00 0. -1.
</event>
<event>
 8    1  0.2516265E-006  0.9118800E+02  0.7816164E-02  0.1184000E+00
        -11   -1    0    0    0    0  0.00000000000E+00  0.00000000000E+00  0.45593999997E+02  0.45594000000E+02  0.51100000000E-03 0.  1.
         11   -1    0    0    0    0 -0.00000000000E+00 -0.00000000000E+00 -0.45593999997E+02  0.45594000000E+02  0.51100000000E-03 0. -1.
         23    2    1    2    0    0 -0.88817841970E-15  0.00000000000E+00  0.35527136788E-14  0.91188000000E+02  0.91188000000E+02 0.  0.
    9900012    2    3    3    0    0 -0.52569106748E+01 -0.28856425953E+02  0.22258745610E+02  0.54367079523E+02  0.39999989389E+02 0.  0.
        -12    1    3    3    0    0  0.52569106748E+01  0.28856425953E+02 -0.22258745610E+02  0.36820920477E+02  0.00000000000E+00 0.  1.
         11    1    4    4    0    0 -0.11492419806E+00 -0.59785156708E+00  0.90992462166E+01  0.91195896859E+01  0.51100000000E-03 0. -1.
        -11    1    4    4    0    0 -0.53354015415E+01 -0.10787000765E+02  0.22439874597E+02  0.25463186512E+02  0.51100000000E-03 0.  1.
         12    1    4    4    0    0  0.19341506468E+00 -0.17471573620E+02 -0.92803752036E+01  0.19784303326E+02  0.00000000000E+00 0. -1.
</event>
<event>
 8    1  0.2516265E-006  0.9118800E+02  0.7816164E-02  0.1184000E+00
        -11   -1    0    0    0    0  0.00000000000E+00  0.00000000000E+00  0.45593999997E+02  0.45594000000E+02  0.51100000000E-03 0. -1.
         11   -1    0    0    0    0 -0.00000000000E+00 -0.00000000000E+00 -0.45593999997E+02  0.45594000000E+02  0.51100000000E-03 0.  1.
         23    2    1    2    0    0  0.88817841970E-15 -0.17763568394E-14  0.00000000000E+00  0.91188000000E+02  0.91188000000E+02 0.  0.
    9900012    2    3    3    0    0  0.25870650736E+01 -0.11559816921E+02  0.34863418733E+02  0.54367078791E+02  0.39999987720E+02 0.  0.
        -12    1    3    3    0    0 -0.25870650736E+01  0.11559816921E+02 -0.34863418733E+02  0.36820921209E+02  0.00000000000E+00 0.  1.
         11    1    4    4    0    0 -0.46474688051E+01  0.32320915018E+01  0.10414249815E+00  0.56618219410E+01  0.51100000000E-03 0. -1.
        -11    1    4    4    0    0 -0.78044212606E+00  0.56311393734E+01  0.23240617529E+02  0.23925825460E+02  0.51100000000E-03 0.  1.
         12    1    4    4    0    0  0.80149760048E+01 -0.20423047796E+02  0.11518658706E+02  0.24779431390E+02  0.00000000000E+00 0. -1.
</event>
<event>
 8    1  0.2516265E-006  0.9118800E+02  0.7816164E-02  0.1184000E+00
        -11   -1    0    0    0    0  0.00000000000E+00  0.00000000000E+00  0.45593999997E+02  0.45594000000E+02  0.51100000000E-03 0.  1.
         11   -1    0    0    0    0 -0.00000000000E+00 -0.00000000000E+00 -0.45593999997E+02  0.45594000000E+02  0.51100000000E-03 0. -1.
         23    2    1    2    0    0  0.00000000000E+00  0.00000000000E+00 -0.35527136788E-14  0.91188000000E+02  0.91188000000E+02 0.  0.
    9900012    2    3    3    0    0 -0.31215118925E+02  0.68607328174E+01 -0.18284592025E+02  0.54367087331E+02  0.40000007188E+02 0.  0.
        -12    1    3    3    0    0  0.31215118925E+02 -0.68607328174E+01  0.18284592025E+02  0.36820912669E+02  0.00000000000E+00 0.  1.
         11    1    4    4    0    0 -0.15611567683E+02 -0.75921236947E+01 -0.78453395750E+01  0.19050216299E+02  0.51100000000E-03 0. -1.
        -11    1    4    4    0    0 -0.18566113131E+02  0.20086574617E+02 -0.89505821426E+01  0.28779922821E+02  0.51100000000E-03 0.  1.
        -12    1    4    4    0    0  0.29625618896E+01 -0.56337181047E+01 -0.14886703072E+01  0.65369482112E+01  0.00000000000E+00 0.  1.
</event>
<event>
 8    1  0.2516265E-006  0.9118800E+02  0.7816164E-02  0.1184000E+00
        -11   -1    0    0    0    0  0.00000000000E+00  0.00000000000E+00  0.45593999997E+02  0.45594000000E+02  0.51100000000E-03 0. -1.
         11   -1    0    0    0    0 -0.00000000000E+00 -0.00000000000E+00 -0.45593999997E+02  0.45594000000E+02  0.51100000000E-03 0.  1.
         23    2    1    2    0    0 -0.13322676296E-14 -0.71054273576E-14  0.17763568394E-14  0.91188000000E+02  0.91188000000E+02 0.  0.
    9900012    2    3    3    0    0 -0.37261012107E+01 -0.34666472312E+02 -0.11837680947E+02  0.54367098015E+02  0.40000031545E+02 0.  0.
         12    1    3    3    0    0  0.37261012107E+01  0.34666472312E+02  0.11837680947E+02  0.36820901985E+02  0.00000000000E+00 0. -1.
         11    1    4    4    0    0 -0.14664135970E+01  0.52410926933E+01 -0.21180596743E+01  0.58399998718E+01  0.51100000000E-03 0. -1.
        -11    1    4    4    0    0  0.10900226349E+02 -0.20376740747E+02 -0.15850368608E+00  0.23109556933E+02  0.51100000000E-03 0.  1.
        -12    1    4    4    0    0 -0.13159913963E+02 -0.19530824257E+02 -0.95611175866E+01  0.25417541211E+02  0.00000000000E+00 0.  1.
</event>
<event>
 8    1  0.2516265E-006  0.9118800E+02  0.7816164E-02  0.1184000E+00
        -11   -1    0    0    0    0  0.00000000000E+00  0.00000000000E+00  0.45593999997E+02  0.45594000000E+02  0.51100000000E-03 0.  1.
         11   -1    0    0    0    0 -0.00000000000E+00 -0.00000000000E+00 -0.45593999997E+02  0.45594000000E+02  0.51100000000E-03 0. -1.
         23    2    1    2    0    0  0.00000000000E+00 -0.35527136788E-14  0.00000000000E+00  0.91188000000E+02  0.91188000000E+02 0.  0.
    9900012    2    3    3    0    0  0.21936979275E+02 -0.24592359696E+02 -0.16424541495E+02  0.54367071461E+02  0.39999971010E+02 0.  0.
        -12    1    3    3    0    0 -0.21936979275E+02  0.24592359696E+02  0.16424541495E+02  0.36820928539E+02  0.00000000000E+00 0.  1.
         11    1    4    4    0    0  0.19703447212E+02 -0.78846327870E+01 -0.11866749870E+02  0.24314872382E+02  0.51100000000E-03 0. -1.
        -11    1    4    4    0    0  0.10569281886E+02 -0.11358511591E+02  0.49870254483E+01  0.16297114108E+02  0.51100000000E-03 0.  1.
         12    1    4    4    0    0 -0.83357498222E+01 -0.53492153177E+01 -0.95448170735E+01  0.13755084972E+02  0.00000000000E+00 0. -1.
</event>
<event>
 8    1  0.2516265E-006  0.9118800E+02  0.7816164E-02  0.1184000E+00
        -11   -1    0    0    0    0  0.00000000000E+00  0.00000000000E+00  0.45593999997E+02  0.45594000000E+02  0.51100000000E-03 0.  1.
         11   -1    0    0    0    0 -0.00000000000E+00 -0.00000000000E+00 -0.45593999997E+02  0.45594000000E+02  0.51100000000E-03 0. -1.
         23    2    1    2    0    0  0.17763568394E-14  0.00000000000E+00 -0.17763568394E-14  0.91188000000E+02  0.91188000000E+02 0.  0.
    9900012    2    3    3    0    0 -0.39335832663E+01  0.35566261703E+02  0.86803711500E+01  0.54367069917E+02  0.39999967490E+02 0.  0.
        -12    1    3    3    0    0  0.39335832663E+01 -0.35566261703E+02 -0.86803711500E+01  0.36820930083E+02  0.00000000000E+00 0.  1.
         11    1    4    4    0    0  0.61865589072E+00  0.18529955583E+02 -0.44250451368E+01  0.19061033910E+02  0.51100000000E-03 0. -1.
        -11    1    4    4    0    0 -0.12321178896E+02  0.18334834971E+02  0.26986140741E+01  0.22254440927E+02  0.51100000000E-03 0.  1.
        -12    1    4    4    0    0  0.77689397386E+01 -0.12985288501E+01  0.10406802213E+02  0.13051595080E+02  0.00000000000E+00 0.  1.
</event>
<event>
 8    1  0.2516265E-006  0.9118800E+02  0.7816164E-02  0.1184000E+00
        -11   -1    0    0    0    0  0.00000000000E+00  0.00000000000E+00  0.45593999997E+02  0.45594000000E+02  0.51100000000E-03 0.  1.
         11   -1    0    0    0    0 -0.00000000000E+00 -0.00000000000E+00 -0.45593999997E+02  0.45594000000E+02  0.51100000000E-03 0. -1.
         23    2    1    2    0    0  0.00000000000E+00  0.00000000000E+00  0.35527136788E-14  0.91188000000E+02  0.91188000000E+02 0.  0.
    9900012    2    3    3    0    0 -0.16035680758E+02  0.10158835293E+02  0.31550484664E+02  0.54367108180E+02  0.40000054719E+02 0.  0.
         12    1    3    3    0    0  0.16035680758E+02 -0.10158835293E+02 -0.31550484664E+02  0.36820891820E+02  0.00000000000E+00 0. -1.
         11    1    4    4    0    0  0.17588218669E+01  0.10257361460E+02 -0.44304048176E+01  0.11310853442E+02  0.51100000000E-03 0. -1.
        -11    1    4    4    0    0 -0.66675103499E+01 -0.33849618898E+01  0.29351929302E+01  0.80329956467E+01  0.51100000000E-03 0.  1.
         12    1    4    4    0    0 -0.11126992275E+02  0.32864357231E+01  0.33045696551E+02  0.35023259091E+02  0.00000000000E+00 0. -1.
</event>
<event>
 8    1  0.2516265E-006  0.9118800E+02  0.7816164E-02  0.1184000E+00
        -11   -1    0    0    0    0  0.00000000000E+00  0.00000000000E+00  0.45593999997E+02  0.45594000000E+02  0.51100000000E-03 0.  1.
         11   -1    0    0    0    0 -0.00000000000E+00 -0.00000000000E+00 -0.45593999997E+02  0.45594000000E+02  0.51100000000E-03 0. -1.
         23    2    1    2    0    0  0.71054273576E-14 -0.17763568394E-14  0.00000000000E+00  0.91188000000E+02  0.91188000000E+02 0.  0.
    9900012    2    3    3    0    0  0.32624600541E+02  0.43655758533E+01 -0.16503272159E+02  0.54367071101E+02  0.39999970190E+02 0.  0.
        -12    1    3    3    0    0 -0.32624600541E+02 -0.43655758533E+01  0.16503272159E+02  0.36820928899E+02  0.00000000000E+00 0.  1.
         11    1    4    4    0    0  0.26512168461E+02 -0.13125930334E+02 -0.53010385859E+01  0.30054718998E+02  0.51100000000E-03 0.  1.
        -11    1    4    4    0    0  0.91966498970E+01  0.10675194996E+02 -0.75846313151E+01  0.16002024559E+02  0.51100000000E-03 0. -1.
        -12    1    4    4    0    0 -0.30842178172E+01  0.68163111916E+01 -0.36176022582E+01  0.83103275449E+01  0.00000000000E+00 0.  1.
</event>
<event>
 8    1  0.2516265E-006  0.9118800E+02  0.7816164E-02  0.1184000E+00
        -11   -1    0    0    0    0  0.00000000000E+00  0.00000000000E+00  0.45593999997E+02  0.45594000000E+02  0.51100000000E-03 0.  1.
         11   -1    0    0    0    0 -0.00000000000E+00 -0.00000000000E+00 -0.45593999997E+02  0.45594000000E+02  0.51100000000E-03 0. -1.
         23    2    1    2    0    0  0.00000000000E+00  0.00000000000E+00 -0.71054273576E-14  0.91188000000E+02  0.91188000000E+02 0.  0.
    9900012    2    3    3    0    0  0.78762533907E+01  0.19893055522E+02  0.29966804687E+02  0.54367103642E+02  0.40000044372E+02 0.  0.
         12    1    3    3    0    0 -0.78762533907E+01 -0.19893055522E+02 -0.29966804687E+02  0.36820896358E+02  0.00000000000E+00 0. -1.
         11    1    4    4    0    0 -0.18066832174E+01  0.50724876469E+01  0.38379691324E+01  0.66124309069E+01  0.51100000000E-03 0. -1.
        -11    1    4    4    0    0  0.62641147376E+01  0.19005059967E+02  0.33255040581E+02  0.38811456583E+02  0.51100000000E-03 0.  1.
         12    1    4    4    0    0  0.34188218705E+01 -0.41844920913E+01 -0.71262050272E+01  0.89432161516E+01  0.00000000000E+00 0. -1.
</event>
<event>
 8    1  0.2516265E-006  0.9118800E+02  0.7816164E-02  0.1184000E+00
        -11   -1    0    0    0    0  0.00000000000E+00  0.00000000000E+00  0.45593999997E+02  0.45594000000E+02  0.51100000000E-03 0.  1.
         11   -1    0    0    0    0 -0.00000000000E+00 -0.00000000000E+00 -0.45593999997E+02  0.45594000000E+02  0.51100000000E-03 0. -1.
         23    2    1    2    0    0  0.00000000000E+00  0.00000000000E+00  0.00000000000E+00  0.91188000000E+02  0.91188000000E+02 0.  0.
    9900012    2    3    3    0    0  0.10228063092E+02 -0.10680783355E+02  0.33720730095E+02  0.54367081410E+02  0.39999993689E+02 0.  0.
         12    1    3    3    0    0 -0.10228063092E+02  0.10680783355E+02 -0.33720730095E+02  0.36820918590E+02  0.00000000000E+00 0. -1.
         11    1    4    4    0    0 -0.59807163220E+00  0.66464029504E+01 -0.46806765966E+01  0.81511407496E+01  0.51100000000E-03 0. -1.
        -11    1    4    4    0    0  0.87983797948E+01 -0.98406910658E+01  0.35601236335E+02  0.37969707880E+02  0.51100000000E-03 0.  1.
        -12    1    4    4    0    0  0.20277549298E+01 -0.74864952399E+01  0.28001703565E+01  0.82462327797E+01  0.00000000000E+00 0.  1.
</event>
<event>
 8    1  0.2516265E-006  0.9118800E+02  0.7816164E-02  0.1184000E+00
        -11   -1    0    0    0    0  0.00000000000E+00  0.00000000000E+00  0.45593999997E+02  0.45594000000E+02  0.51100000000E-03 0.  1.
         11   -1    0    0    0    0 -0.00000000000E+00 -0.00000000000E+00 -0.45593999997E+02  0.45594000000E+02  0.51100000000E-03 0. -1.
         23    2    1    2    0    0  0.00000000000E+00  0.71054273576E-14  0.88817841970E-15  0.91188000000E+02  0.91188000000E+02 0.  0.
    9900012    2    3    3    0    0  0.53835939436E+01  0.36006113232E+02  0.55097631885E+01  0.54367071654E+02  0.39999971450E+02 0.  0.
        -12    1    3    3    0    0 -0.53835939436E+01 -0.36006113232E+02 -0.55097631885E+01  0.36820928346E+02  0.00000000000E+00 0.  1.
         11    1    4    4    0    0  0.11100057560E+02  0.31022231446E+01 -0.43897563569E+01  0.12333086694E+02  0.51100000000E-03 0. -1.
        -11    1    4    4    0    0  0.29655489962E+01 -0.26705439046E+01  0.23952951264E+01  0.46544306418E+01  0.51100000000E-03 0.  1.
        -12    1    4    4    0    0 -0.86820126126E+01  0.35574433992E+02  0.75042244189E+01  0.37379554318E+02  0.00000000000E+00 0.  1.
</event>
<event>
 8    1  0.2516265E-006  0.9118800E+02  0.7816164E-02  0.1184000E+00
        -11   -1    0    0    0    0  0.00000000000E+00  0.00000000000E+00  0.45593999997E+02  0.45594000000E+02  0.51100000000E-03 0. -1.
         11   -1    0    0    0    0 -0.00000000000E+00 -0.00000000000E+00 -0.45593999997E+02  0.45594000000E+02  0.51100000000E-03 0.  1.
         23    2    1    2    0    0 -0.35527136788E-14  0.00000000000E+00  0.00000000000E+00  0.91188000000E+02  0.91188000000E+02 0.  0.
    9900012    2    3    3    0    0  0.26422498586E+02  0.19921847250E+02  0.16147736000E+02  0.54367111808E+02  0.40000062988E+02 0.  0.
        -12    1    3    3    0    0 -0.26422498586E+02 -0.19921847250E+02 -0.16147736000E+02  0.36820888192E+02  0.00000000000E+00 0.  1.
         11    1    4    4    0    0  0.17592538333E+02  0.10951361174E+02  0.12244191426E+02  0.24069689248E+02  0.51100000000E-03 0. -1.
        -11    1    4    4    0    0  0.15309202878E+02 -0.36725238076E+01  0.32521909910E+01  0.16075940731E+02  0.51100000000E-03 0.  1.
        -12    1    4    4    0    0 -0.64792426252E+01  0.12643009884E+02  0.65135358275E+00  0.14221481829E+02  0.00000000000E+00 0.  1.
</event>
<event>
 8    1  0.2516265E-006  0.9118800E+02  0.7816164E-02  0.1184000E+00
        -11   -1    0    0    0    0  0.00000000000E+00  0.00000000000E+00  0.45593999997E+02  0.45594000000E+02  0.51100000000E-03 0.  1.
         11   -1    0    0    0    0 -0.00000000000E+00 -0.00000000000E+00 -0.45593999997E+02  0.45594000000E+02  0.51100000000E-03 0. -1.
         23    2    1    2    0    0 -0.17763568394E-14 -0.17763568394E-14 -0.71054273576E-14  0.91188000000E+02  0.91188000000E+02 0.  0.
    9900012    2    3    3    0    0  0.82924111844E+01 -0.11208380847E+02  0.34079135308E+02  0.54367090889E+02  0.40000015299E+02 0.  0.
         12    1    3    3    0    0 -0.82924111844E+01  0.11208380847E+02 -0.34079135308E+02  0.36820909111E+02  0.00000000000E+00 0. -1.
         11    1    4    4    0    0 -0.19774006175E+01 -0.14469719775E+02 -0.55777186856E-01  0.14604314942E+02  0.51100000000E-03 0. -1.
        -11    1    4    4    0    0 -0.24531133487E+01  0.36891824674E+00 -0.68918213576E+00  0.25746529964E+01  0.51100000000E-03 0.  1.
        -12    1    4    4    0    0  0.12722925151E+02  0.28924206807E+01  0.34824094630E+02  0.37188122951E+02  0.00000000000E+00 0.  1.
</event>
<event>
 8    1  0.2516265E-006  0.9118800E+02  0.7816164E-02  0.1184000E+00
        -11   -1    0    0    0    0  0.00000000000E+00  0.00000000000E+00  0.45593999997E+02  0.45594000000E+02  0.51100000000E-03 0.  1.
         11   -1    0    0    0    0 -0.00000000000E+00 -0.00000000000E+00 -0.45593999997E+02  0.45594000000E+02  0.51100000000E-03 0. -1.
         23    2    1    2    0    0  0.00000000000E+00  0.17763568394E-14  0.35527136788E-14  0.91188000000E+02  0.91188000000E+02 0.  0.
    9900012    2    3    3    0    0  0.18701852009E+02 -0.12046266942E+02 -0.29341255644E+02  0.54367067115E+02  0.39999961101E+02 0.  0.
        -12    1    3    3    0    0 -0.18701852009E+02  0.12046266942E+02  0.29341255644E+02  0.36820932885E+02  0.00000000000E+00 0.  1.
         11    1    4    4    0    0  0.47566101082E+01  0.31713831460E+01 -0.35065819958E+01  0.67066480700E+01  0.51100000000E-03 0. -1.
        -11    1    4    4    0    0  0.10548143881E+02 -0.10047617188E+02  0.56118094952E+01  0.15611225339E+02  0.51100000000E-03 0.  1.
        -12    1    4    4    0    0  0.33970980198E+01 -0.51700328999E+01 -0.31446483143E+02  0.32049193706E+02  0.00000000000E+00 0.  1.
</event>
<event>
 8    1  0.2516265E-006  0.9118800E+02  0.7816164E-02  0.1184000E+00
        -11   -1    0    0    0    0  0.00000000000E+00  0.00000000000E+00  0.45593999997E+02  0.45594000000E+02  0.51100000000E-03 0.  1.
         11   -1    0    0    0    0 -0.00000000000E+00 -0.00000000000E+00 -0.45593999997E+02  0.45594000000E+02  0.51100000000E-03 0. -1.
         23    2    1    2    0    0  0.35527136788E-14  0.00000000000E+00  0.00000000000E+00  0.91188000000E+02  0.91188000000E+02 0.  0.
    9900012    2    3    3    0    0  0.22780654585E+02 -0.18650640491E+02  0.22112773559E+02  0.54367090608E+02  0.40000014658E+02 0.  0.
         12    1    3    3    0    0 -0.22780654585E+02  0.18650640491E+02 -0.22112773559E+02  0.36820909392E+02  0.00000000000E+00 0. -1.
         11    1    4    4    0    0  0.38248668560E+01  0.11590326011E+01  0.12455538436E+02  0.13081032108E+02  0.51100000000E-03 0. -1.
        -11    1    4    4    0    0  0.15734589774E+00  0.18187692805E+01  0.12368041897E+02  0.12502045435E+02  0.51100000000E-03 0.  1.
         12    1    4    4    0    0  0.18798441831E+02 -0.21628442372E+02 -0.27108067740E+01  0.28784013064E+02  0.00000000000E+00 0. -1.
</event>
<event>
 8    1  0.2516265E-006  0.9118800E+02  0.7816164E-02  0.1184000E+00
        -11   -1    0    0    0    0  0.00000000000E+00  0.00000000000E+00  0.45593999997E+02  0.45594000000E+02  0.51100000000E-03 0.  1.
         11   -1    0    0    0    0 -0.00000000000E+00 -0.00000000000E+00 -0.45593999997E+02  0.45594000000E+02  0.51100000000E-03 0. -1.
         23    2    1    2    0    0  0.00000000000E+00  0.00000000000E+00 -0.17763568394E-14  0.91188000000E+02  0.91188000000E+02 0.  0.
    9900012    2    3    3    0    0  0.23730993849E+02 -0.26783857296E+02  0.86743690437E+01  0.54367085305E+02  0.40000002569E+02 0.  0.
         12    1    3    3    0    0 -0.23730993849E+02  0.26783857296E+02 -0.86743690437E+01  0.36820914695E+02  0.00000000000E+00 0. -1.
         11    1    4    4    0    0  0.60075726790E+01  0.10141521570E+02  0.17702565870E+01  0.11919530103E+02  0.51100000000E-03 0. -1.
        -11    1    4    4    0    0  0.97667861913E+01 -0.25662479126E+02  0.10834982979E+01  0.27479572708E+02  0.51100000000E-03 0.  1.
         12    1    4    4    0    0  0.79566349786E+01 -0.11262899739E+02  0.58206141587E+01  0.14967982493E+02  0.00000000000E+00 0. -1.
</event>
<event>
 8    1  0.2516265E-006  0.9118800E+02  0.7816164E-02  0.1184000E+00
        -11   -1    0    0    0    0  0.00000000000E+00  0.00000000000E+00  0.45593999997E+02  0.45594000000E+02  0.51100000000E-03 0. -1.
         11   -1    0    0    0    0 -0.00000000000E+00 -0.00000000000E+00 -0.45593999997E+02  0.45594000000E+02  0.51100000000E-03 0.  1.
         23    2    1    2    0    0  0.00000000000E+00  0.00000000000E+00  0.17763568394E-14  0.91188000000E+02  0.91188000000E+02 0.  0.
    9900012    2    3    3    0    0  0.22617686718E+02 -0.24686217345E+02  0.15323529097E+02  0.54367087148E+02  0.40000006771E+02 0.  0.
        -12    1    3    3    0    0 -0.22617686718E+02  0.24686217345E+02 -0.15323529097E+02  0.36820912852E+02  0.00000000000E+00 0.  1.
         11    1    4    4    0    0  0.63937239147E+01  0.17777008636E+01 -0.64597542962E+01  0.92611204336E+01  0.51100000000E-03 0.  1.
        -11    1    4    4    0    0 -0.19501984277E+00 -0.53986169999E+01 -0.49428080288E+01  0.73221888613E+01  0.51100000000E-03 0. -1.
         12    1    4    4    0    0  0.16418982646E+02 -0.21065301209E+02  0.26726091422E+02  0.37783777853E+02  0.00000000000E+00 0. -1.
</event>
<event>
 8    1  0.2516265E-006  0.9118800E+02  0.7816164E-02  0.1184000E+00
        -11   -1    0    0    0    0  0.00000000000E+00  0.00000000000E+00  0.45593999997E+02  0.45594000000E+02  0.51100000000E-03 0.  1.
         11   -1    0    0    0    0 -0.00000000000E+00 -0.00000000000E+00 -0.45593999997E+02  0.45594000000E+02  0.51100000000E-03 0. -1.
         23    2    1    2    0    0  0.00000000000E+00  0.00000000000E+00  0.00000000000E+00  0.91188000000E+02  0.91188000000E+02 0.  0.
    9900012    2    3    3    0    0  0.18835284529E+02 -0.21946780853E+02 -0.22789277940E+02  0.54367077658E+02  0.39999985136E+02 0.  0.
        -12    1    3    3    0    0 -0.18835284529E+02  0.21946780853E+02  0.22789277940E+02  0.36820922342E+02  0.00000000000E+00 0.  1.
         11    1    4    4    0    0  0.10591383330E+02 -0.42349072740E-01 -0.20606961214E+02  0.23169506793E+02  0.51100000000E-03 0. -1.
        -11    1    4    4    0    0  0.44875390961E+01 -0.20695950458E+02  0.60875832551E+01  0.22034496651E+02  0.51100000000E-03 0.  1.
        -12    1    4    4    0    0  0.37563621025E+01 -0.12084813221E+01 -0.82698999813E+01  0.91630742141E+01  0.00000000000E+00 0.  1.
</event>
<event>
 8    1  0.2516265E-006  0.9118800E+02  0.7816164E-02  0.1184000E+00
        -11   -1    0    0    0    0  0.00000000000E+00  0.00000000000E+00  0.45593999997E+02  0.45594000000E+02  0.51100000000E-03 0.  1.
         11   -1    0    0    0    0 -0.00000000000E+00 -0.00000000000E+00 -0.45593999997E+02  0.45594000000E+02  0.51100000000E-03 0. -1.
         23    2    1    2    0    0 -0.17763568394E-14  0.71054273576E-14 -0.17763568394E-14  0.91188000000E+02  0.91188000000E+02 0.  0.
    9900012    2    3    3    0    0 -0.11876459969E+02  0.33782186432E+02 -0.85729062774E+01  0.54367066503E+02  0.39999959708E+02 0.  0.
        -12    1    3    3    0    0  0.11876459969E+02 -0.33782186432E+02  0.85729062774E+01  0.36820933497E+02  0.00000000000E+00 0.  1.
         11    1    4    4    0    0  0.90438046445E+00  0.13774437495E+02  0.37057471965E+01  0.14292851181E+02  0.51100000000E-03 0. -1.
        -11    1    4    4    0    0 -0.12489938825E+02 -0.33184608708E+01  0.14531254118E+01  0.13004704076E+02  0.51100000000E-03 0.  1.
         12    1    4    4    0    0 -0.29090160918E+00  0.23326209808E+02 -0.13731778886E+02  0.27069511246E+02  0.00000000000E+00 0. -1.
</event>
<event>
 8    1  0.2516265E-006  0.9118800E+02  0.7816164E-02  0.1184000E+00
        -11   -1    0    0    0    0  0.00000000000E+00  0.00000000000E+00  0.45593999997E+02  0.45594000000E+02  0.51100000000E-03 0. -1.
         11   -1    0    0    0    0 -0.00000000000E+00 -0.00000000000E+00 -0.45593999997E+02  0.45594000000E+02  0.51100000000E-03 0.  1.
         23    2    1    2    0    0  0.00000000000E+00  0.00000000000E+00  0.00000000000E+00  0.91188000000E+02  0.91188000000E+02 0.  0.
    9900012    2    3    3    0    0 -0.26703509620E+02 -0.76684765579E+01  0.24163942132E+02  0.54367094823E+02  0.40000024267E+02 0.  0.
        -12    1    3    3    0    0  0.26703509620E+02  0.76684765579E+01 -0.24163942132E+02  0.36820905177E+02  0.00000000000E+00 0.  1.
         11    1    4    4    0    0 -0.87262831347E+01 -0.43309375994E+01  0.17942577580E+02  0.20416687496E+02  0.51100000000E-03 0. -1.
        -11    1    4    4    0    0 -0.46553761093E+01  0.12076819216E+02  0.14348748574E+01  0.13022325261E+02  0.51100000000E-03 0.  1.
        -12    1    4    4    0    0 -0.13321850376E+02 -0.15414358174E+02  0.47864896946E+01  0.20928082066E+02  0.00000000000E+00 0.  1.
</event>
<event>
 8    1  0.2516265E-006  0.9118800E+02  0.7816164E-02  0.1184000E+00
        -11   -1    0    0    0    0  0.00000000000E+00  0.00000000000E+00  0.45593999997E+02  0.45594000000E+02  0.51100000000E-03 0. -1.
         11   -1    0    0    0    0 -0.00000000000E+00 -0.00000000000E+00 -0.45593999997E+02  0.45594000000E+02  0.51100000000E-03 0.  1.
         23    2    1    2    0    0  0.00000000000E+00  0.00000000000E+00  0.71054273576E-14  0.91188000000E+02  0.91188000000E+02 0.  0.
    9900012    2    3    3    0    0  0.43020760522E+01 -0.17021955749E+02 -0.32365509972E+02  0.54367067481E+02  0.39999961936E+02 0.  0.
         12    1    3    3    0    0 -0.43020760522E+01  0.17021955749E+02  0.32365509972E+02  0.36820932519E+02  0.00000000000E+00 0. -1.
         11    1    4    4    0    0 -0.23409860270E+01  0.52293629510E+01 -0.17979094527E+02  0.18869930914E+02  0.51100000000E-03 0. -1.
        -11    1    4    4    0    0 -0.44327312270E+00 -0.41748364855E+01 -0.15491063536E+02  0.16049884749E+02  0.51100000000E-03 0.  1.
         12    1    4    4    0    0  0.70863352019E+01 -0.18076482214E+02  0.11046480906E+01  0.19447251817E+02  0.00000000000E+00 0. -1.
</event>
<event>
 8    1  0.2516265E-006  0.9118800E+02  0.7816164E-02  0.1184000E+00
        -11   -1    0    0    0    0  0.00000000000E+00  0.00000000000E+00  0.45593999997E+02  0.45594000000E+02  0.51100000000E-03 0.  1.
         11   -1    0    0    0    0 -0.00000000000E+00 -0.00000000000E+00 -0.45593999997E+02  0.45594000000E+02  0.51100000000E-03 0. -1.
         23    2    1    2    0    0 -0.17763568394E-14 -0.35527136788E-14  0.35527136788E-14  0.91188000000E+02  0.91188000000E+02 0.  0.
    9900012    2    3    3    0    0  0.56973057308E+01  0.25025311342E+02 -0.26401802376E+02  0.54367072947E+02  0.39999974397E+02 0.  0.
        -12    1    3    3    0    0 -0.56973057308E+01 -0.25025311342E+02  0.26401802376E+02  0.36820927053E+02  0.00000000000E+00 0.  1.
         11    1    4    4    0    0  0.15534541032E+02  0.14993040591E+02 -0.28574985053E+02  0.35814005672E+02  0.51100000000E-03 0. -1.
        -11    1    4    4    0    0 -0.73523118629E+01  0.12015640372E+02 -0.92086159318E+00  0.14116660002E+02  0.51100000000E-03 0.  1.
         12    1    4    4    0    0 -0.24849234386E+01 -0.19833696207E+01  0.30940442701E+01  0.44364072732E+01  0.00000000000E+00 0. -1.
</event>
<event>
 8    1  0.2516265E-006  0.9118800E+02  0.7816164E-02  0.1184000E+00
        -11   -1    0    0    0    0  0.00000000000E+00  0.00000000000E+00  0.45593999997E+02  0.45594000000E+02  0.51100000000E-03 0. -1.
         11   -1    0    0    0    0 -0.00000000000E+00 -0.00000000000E+00 -0.45593999997E+02  0.45594000000E+02  0.51100000000E-03 0.  1.
         23    2    1    2    0    0 -0.63837823916E-15  0.00000000000E+00  0.00000000000E+00  0.91188000000E+02  0.91188000000E+02 0.  0.
    9900012    2    3    3    0    0  0.20047641567E+00  0.13957650327E+02 -0.34072326997E+02  0.54367086643E+02  0.40000005620E+02 0.  0.
         12    1    3    3    0    0 -0.20047641567E+00 -0.13957650327E+02  0.34072326997E+02  0.36820913357E+02  0.00000000000E+00 0. -1.
         11    1    4    4    0    0 -0.46104489970E+01  0.74831053411E+01 -0.57420164560E+00  0.88081106539E+01  0.51100000000E-03 0. -1.
        -11    1    4    4    0    0 -0.77701397250E+01  0.12774709986E+02 -0.94230412192E+01  0.17673765662E+02  0.51100000000E-03 0.  1.
         12    1    4    4    0    0  0.12581065138E+02 -0.63001650004E+01 -0.24075084132E+02  0.27885210327E+02  0.00000000000E+00 0. -1.
</event>
<event>
 8    1  0.2516265E-006  0.9118800E+02  0.7816164E-02  0.1184000E+00
        -11   -1    0    0    0    0  0.00000000000E+00  0.00000000000E+00  0.45593999997E+02  0.45594000000E+02  0.51100000000E-03 0. -1.
         11   -1    0    0    0    0 -0.00000000000E+00 -0.00000000000E+00 -0.45593999997E+02  0.45594000000E+02  0.51100000000E-03 0.  1.
         23    2    1    2    0    0  0.35527136788E-14  0.35527136788E-14 -0.17763568394E-14  0.91188000000E+02  0.91188000000E+02 0.  0.
    9900012    2    3    3    0    0  0.18163269833E+02  0.31523393750E+02  0.56690754981E+01  0.54367256641E+02  0.40000393162E+02 0.  0.
         12    1    3    3    0    0 -0.18163269833E+02 -0.31523393750E+02 -0.56690754981E+01  0.36820743359E+02  0.00000000000E+00 0. -1.
         11    1    4    4    0    0  0.62121663557E+01  0.35459185474E+01 -0.10176253969E+02  0.12438677353E+02  0.51100000000E-03 0.  1.
        -11    1    4    4    0    0  0.85862695140E+01  0.20348923431E+02 -0.20550605461E+01  0.22181658709E+02  0.51100000000E-03 0. -1.
         12    1    4    4    0    0  0.33648339634E+01  0.76285517712E+01  0.17900390013E+02  0.19746920579E+02  0.00000000000E+00 0. -1.
</event>
<event>
 8    1  0.2516265E-006  0.9118800E+02  0.7816164E-02  0.1184000E+00
        -11   -1    0    0    0    0  0.00000000000E+00  0.00000000000E+00  0.45593999997E+02  0.45594000000E+02  0.51100000000E-03 0.  1.
         11   -1    0    0    0    0 -0.00000000000E+00 -0.00000000000E+00 -0.45593999997E+02  0.45594000000E+02  0.51100000000E-03 0. -1.
         23    2    1    2    0    0  0.00000000000E+00  0.71054273576E-14  0.00000000000E+00  0.91188000000E+02  0.91188000000E+02 0.  0.
    9900012    2    3    3    0    0  0.51809121716E+01 -0.24302006381E+02 -0.27172597083E+02  0.54367090217E+02  0.40000013767E+02 0.  0.
        -12    1    3    3    0    0 -0.51809121716E+01  0.24302006381E+02  0.27172597083E+02  0.36820909783E+02  0.00000000000E+00 0.  1.
         11    1    4    4    0    0  0.37960719623E+01 -0.12859615931E+02 -0.11818325302E+02  0.17873239702E+02  0.51100000000E-03 0. -1.
        -11    1    4    4    0    0  0.70613275496E+01  0.81058379662E+01 -0.11562603554E+02  0.15787994081E+02  0.51100000000E-03 0.  1.
        -12    1    4    4    0    0 -0.56764873403E+01 -0.19548228416E+02 -0.37916682269E+01  0.20705856434E+02  0.00000000000E+00 0.  1.
</event>
<event>
 8    1  0.2516265E-006  0.9118800E+02  0.7816164E-02  0.1184000E+00
        -11   -1    0    0    0    0  0.00000000000E+00  0.00000000000E+00  0.45593999997E+02  0.45594000000E+02  0.51100000000E-03 0.  1.
         11   -1    0    0    0    0 -0.00000000000E+00 -0.00000000000E+00 -0.45593999997E+02  0.45594000000E+02  0.51100000000E-03 0. -1.
         23    2    1    2    0    0  0.71054273576E-14  0.00000000000E+00  0.00000000000E+00  0.91188000000E+02  0.91188000000E+02 0.  0.
    9900012    2    3    3    0    0 -0.30855044860E+02  0.10527952548E+02 -0.17114609914E+02  0.54367062333E+02  0.39999950201E+02 0.  0.
        -12    1    3    3    0    0  0.30855044860E+02 -0.10527952548E+02  0.17114609914E+02  0.36820937667E+02  0.00000000000E+00 0.  1.
         11    1    4    4    0    0 -0.35165424257E+02  0.61451609467E+01 -0.10860082477E+02  0.37313689953E+02  0.51100000000E-03 0. -1.
        -11    1    4    4    0    0  0.83032494924E+01  0.31032610609E-01 -0.72994769747E+01  0.11055644690E+02  0.51100000000E-03 0.  1.
        -12    1    4    4    0    0 -0.39928700953E+01  0.43517589903E+01  0.10449495377E+01  0.59977276901E+01  0.00000000000E+00 0.  1.
</event>
<event>
 8    1  0.2516265E-006  0.9118800E+02  0.7816164E-02  0.1184000E+00
        -11   -1    0    0    0    0  0.00000000000E+00  0.00000000000E+00  0.45593999997E+02  0.45594000000E+02  0.51100000000E-03 0. -1.
         11   -1    0    0    0    0 -0.00000000000E+00 -0.00000000000E+00 -0.45593999997E+02  0.45594000000E+02  0.51100000000E-03 0.  1.
         23    2    1    2    0    0  0.00000000000E+00  0.35527136788E-14  0.00000000000E+00  0.91188000000E+02  0.91188000000E+02 0.  0.
    9900012    2    3    3    0    0  0.29455581053E+02 -0.20130039417E+02 -0.91065546740E+01  0.54367094523E+02  0.40000023584E+02 0.  0.
         12    1    3    3    0    0 -0.29455581053E+02  0.20130039417E+02  0.91065546740E+01  0.36820905477E+02  0.00000000000E+00 0. -1.
         11    1    4    4    0    0  0.78721602592E+00 -0.43397663083E+01  0.11388164202E+01  0.45552369623E+01  0.51100000000E-03 0. -1.
        -11    1    4    4    0    0  0.15449078413E+02 -0.26614542320E+02 -0.11076331247E+02  0.32706161512E+02  0.51100000000E-03 0.  1.
        -12    1    4    4    0    0  0.13219286614E+02  0.10824269211E+02  0.83096015260E+00  0.17105696049E+02  0.00000000000E+00 0.  1.
</event>
<event>
 8    1  0.2516265E-006  0.9118800E+02  0.7816164E-02  0.1184000E+00
        -11   -1    0    0    0    0  0.00000000000E+00  0.00000000000E+00  0.45593999997E+02  0.45594000000E+02  0.51100000000E-03 0.  1.
         11   -1    0    0    0    0 -0.00000000000E+00 -0.00000000000E+00 -0.45593999997E+02  0.45594000000E+02  0.51100000000E-03 0. -1.
         23    2    1    2    0    0  0.00000000000E+00  0.35527136788E-14 -0.10658141036E-13  0.91188000000E+02  0.91188000000E+02 0.  0.
    9900012    2    3    3    0    0 -0.13259900460E+02  0.19962613785E+02 -0.27954437801E+02  0.54367061635E+02  0.39999948609E+02 0.  0.
        -12    1    3    3    0    0  0.13259900460E+02 -0.19962613785E+02  0.27954437801E+02  0.36820938365E+02  0.00000000000E+00 0.  1.
         11    1    4    4    0    0  0.41401289675E+01 -0.73992894601E+00 -0.14349679704E+01  0.44437929801E+01  0.51100000000E-03 0. -1.
        -11    1    4    4    0    0  0.33748706987E+01  0.16290120307E+02 -0.92106756535E+00  0.16661516665E+02  0.51100000000E-03 0.  1.
         12    1    4    4    0    0 -0.20774900126E+02  0.44124224243E+01 -0.25598402265E+02  0.33261751990E+02  0.00000000000E+00 0. -1.
</event>
<event>
 8    1  0.2516265E-006  0.9118800E+02  0.7816164E-02  0.1184000E+00
        -11   -1    0    0    0    0  0.00000000000E+00  0.00000000000E+00  0.45593999997E+02  0.45594000000E+02  0.51100000000E-03 0.  1.
         11   -1    0    0    0    0 -0.00000000000E+00 -0.00000000000E+00 -0.45593999997E+02  0.45594000000E+02  0.51100000000E-03 0. -1.
         23    2    1    2    0    0 -0.88817841970E-15  0.00000000000E+00  0.00000000000E+00  0.91188000000E+02  0.91188000000E+02 0.  0.
    9900012    2    3    3    0    0  0.58078246284E+01 -0.34854151024E+02  0.10355503973E+02  0.54367093805E+02  0.40000021947E+02 0.  0.
        -12    1    3    3    0    0 -0.58078246284E+01  0.34854151024E+02 -0.10355503973E+02  0.36820906195E+02  0.00000000000E+00 0.  1.
         11    1    4    4    0    0 -0.48924967842E+01 -0.83648396292E-01 -0.77734344997E+00  0.49545721246E+01  0.51100000000E-03 0. -1.
        -11    1    4    4    0    0 -0.45472325511E+01 -0.30720282578E+00  0.10803446616E+02  0.11725449096E+02  0.51100000000E-03 0.  1.
        -12    1    4    4    0    0  0.15247553964E+02 -0.34463299802E+02  0.32940080723E+00  0.37687072585E+02  0.00000000000E+00 0.  1.
</event>
<event>
 8    1  0.2516265E-006  0.9118800E+02  0.7816164E-02  0.1184000E+00
        -11   -1    0    0    0    0  0.00000000000E+00  0.00000000000E+00  0.45593999997E+02  0.45594000000E+02  0.51100000000E-03 0.  1.
         11   -1    0    0    0    0 -0.00000000000E+00 -0.00000000000E+00 -0.45593999997E+02  0.45594000000E+02  0.51100000000E-03 0. -1.
         23    2    1    2    0    0  0.17763568394E-14  0.00000000000E+00 -0.17763568394E-14  0.91188000000E+02  0.91188000000E+02 0.  0.
    9900012    2    3    3    0    0 -0.11336936945E+02  0.33822929089E+02  0.91248797102E+01  0.54367080658E+02  0.39999991976E+02 0.  0.
         12    1    3    3    0    0  0.11336936945E+02 -0.33822929089E+02 -0.91248797102E+01  0.36820919342E+02  0.00000000000E+00 0. -1.
         11    1    4    4    0    0 -0.16572890049E+02  0.20182330332E+02  0.62448634776E+01  0.26851172457E+02  0.51100000000E-03 0. -1.
        -11    1    4    4    0    0  0.35825463899E+01  0.69931678980E+00  0.11375795997E+02  0.11947067315E+02  0.51100000000E-03 0.  1.
         12    1    4    4    0    0  0.16534067139E+01  0.12941281967E+02 -0.84957797642E+01  0.15568840885E+02  0.00000000000E+00 0. -1.
</event>
<event>
 8    1  0.2516265E-006  0.9118800E+02  0.7816164E-02  0.1184000E+00
        -11   -1    0    0    0    0  0.00000000000E+00  0.00000000000E+00  0.45593999997E+02  0.45594000000E+02  0.51100000000E-03 0. -1.
         11   -1    0    0    0    0 -0.00000000000E+00 -0.00000000000E+00 -0.45593999997E+02  0.45594000000E+02  0.51100000000E-03 0.  1.
         23    2    1    2    0    0 -0.88817841970E-15  0.88817841970E-15  0.00000000000E+00  0.91188000000E+02  0.91188000000E+02 0.  0.
    9900012    2    3    3    0    0  0.51802603419E+01 -0.20415725441E+01  0.36397492269E+02  0.54367074439E+02  0.39999977799E+02 0.  0.
        -12    1    3    3    0    0 -0.51802603419E+01  0.20415725441E+01 -0.36397492269E+02  0.36820925561E+02  0.00000000000E+00 0.  1.
         11    1    4    4    0    0  0.59018888449E+00  0.67037755742E+01  0.19074274223E+02  0.20226637567E+02  0.51100000000E-03 0. -1.
        -11    1    4    4    0    0 -0.55767262470E+01  0.77971943597E+01  0.31128950142E+01  0.10078999511E+02  0.51100000000E-03 0.  1.
        -12    1    4    4    0    0  0.10166797704E+02 -0.16542542478E+02  0.14210323032E+02  0.24061437361E+02  0.00000000000E+00 0.  1.
</event>
<event>
 8    1  0.2516265E-006  0.9118800E+02  0.7816164E-02  0.1184000E+00
        -11   -1    0    0    0    0  0.00000000000E+00  0.00000000000E+00  0.45593999997E+02  0.45594000000E+02  0.51100000000E-03 0.  1.
         11   -1    0    0    0    0 -0.00000000000E+00 -0.00000000000E+00 -0.45593999997E+02  0.45594000000E+02  0.51100000000E-03 0. -1.
         23    2    1    2    0    0 -0.44408920985E-15  0.17763568394E-14 -0.71054273576E-14  0.91188000000E+02  0.91188000000E+02 0.  0.
    9900012    2    3    3    0    0  0.20916141241E+01  0.15590321526E+02 -0.33291838422E+02  0.54367089088E+02  0.40000011193E+02 0.  0.
        -12    1    3    3    0    0 -0.20916141241E+01 -0.15590321526E+02  0.33291838422E+02  0.36820910912E+02  0.00000000000E+00 0.  1.
         11    1    4    4    0    0 -0.89978559868E+01  0.12416802198E+02 -0.28077353262E+01  0.15589155433E+02  0.51100000000E-03 0.  1.
        -11    1    4    4    0    0 -0.50270816057E+01  0.17688714283E+01 -0.16682155535E+02  0.17512703080E+02  0.51100000000E-03 0. -1.
         12    1    4    4    0    0  0.16116551717E+02  0.14046479001E+01 -0.13801947560E+02  0.21265230575E+02  0.00000000000E+00 0. -1.
</event>
<event>
 8    1  0.2516265E-006  0.9118800E+02  0.7816164E-02  0.1184000E+00
        -11   -1    0    0    0    0  0.00000000000E+00  0.00000000000E+00  0.45593999997E+02  0.45594000000E+02  0.51100000000E-03 0. -1.
         11   -1    0    0    0    0 -0.00000000000E+00 -0.00000000000E+00 -0.45593999997E+02  0.45594000000E+02  0.51100000000E-03 0.  1.
         23    2    1    2    0    0  0.00000000000E+00  0.00000000000E+00 -0.35527136788E-14  0.91188000000E+02  0.91188000000E+02 0.  0.
    9900012    2    3    3    0    0  0.22878081106E+02  0.17788746207E+02 -0.22714181874E+02  0.54367080065E+02  0.39999990624E+02 0.  0.
         12    1    3    3    0    0 -0.22878081106E+02 -0.17788746207E+02  0.22714181874E+02  0.36820919935E+02  0.00000000000E+00 0. -1.
         11    1    4    4    0    0 -0.22398759306E+01 -0.57414622618E+01 -0.78148331493E+01  0.99525399020E+01  0.51100000000E-03 0. -1.
        -11    1    4    4    0    0  0.95933290068E+01  0.10627483617E+02 -0.19025561707E+02  0.23810656606E+02  0.51100000000E-03 0.  1.
        -12    1    4    4    0    0  0.15524628029E+02  0.12902724852E+02  0.41262129828E+01  0.20603883557E+02  0.00000000000E+00 0.  1.
</event>
<event>
 8    1  0.2516265E-006  0.9118800E+02  0.7816164E-02  0.1184000E+00
        -11   -1    0    0    0    0  0.00000000000E+00  0.00000000000E+00  0.45593999997E+02  0.45594000000E+02  0.51100000000E-03 0.  1.
         11   -1    0    0    0    0 -0.00000000000E+00 -0.00000000000E+00 -0.45593999997E+02  0.45594000000E+02  0.51100000000E-03 0. -1.
         23    2    1    2    0    0  0.00000000000E+00  0.00000000000E+00  0.00000000000E+00  0.91188000000E+02  0.91188000000E+02 0.  0.
    9900012    2    3    3    0    0  0.22249198978E+02  0.22282981509E+02 -0.19084582947E+02  0.54367089821E+02  0.40000012866E+02 0.  0.
        -12    1    3    3    0    0 -0.22249198978E+02 -0.22282981509E+02  0.19084582947E+02  0.36820910179E+02  0.00000000000E+00 0.  1.
         11    1    4    4    0    0  0.10133376735E+02 -0.11747124675E+01 -0.10745686673E+01  0.10257678661E+02  0.51100000000E-03 0. -1.
        -11    1    4    4    0    0  0.42763837395E+01  0.20418891123E+02  0.33729947148E+01  0.21132810182E+02  0.51100000000E-03 0.  1.
        -12    1    4    4    0    0  0.78394385033E+01  0.30388028536E+01 -0.21383008995E+02  0.22976600978E+02  0.00000000000E+00 0.  1.
</event>
<event>
 8    1  0.2516265E-006  0.9118800E+02  0.7816164E-02  0.1184000E+00
        -11   -1    0    0    0    0  0.00000000000E+00  0.00000000000E+00  0.45593999997E+02  0.45594000000E+02  0.51100000000E-03 0.  1.
         11   -1    0    0    0    0 -0.00000000000E+00 -0.00000000000E+00 -0.45593999997E+02  0.45594000000E+02  0.51100000000E-03 0. -1.
         23    2    1    2    0    0  0.00000000000E+00 -0.17763568394E-14  0.71054273576E-14  0.91188000000E+02  0.91188000000E+02 0.  0.
    9900012    2    3    3    0    0 -0.19629389473E+01  0.15104124806E+02 -0.33523007667E+02  0.54367085311E+02  0.40000002584E+02 0.  0.
        -12    1    3    3    0    0  0.19629389473E+01 -0.15104124806E+02  0.33523007667E+02  0.36820914689E+02  0.00000000000E+00 0.  1.
         11    1    4    4    0    0 -0.19681956792E+01  0.19788853148E+02 -0.78894399901E+00  0.19902133957E+02  0.51100000000E-03 0.  1.
        -11    1    4    4    0    0  0.32213705646E+01 -0.10893504028E+01 -0.36699906826E+01  0.50032733771E+01  0.51100000000E-03 0. -1.
         12    1    4    4    0    0 -0.32161138328E+01 -0.35953779396E+01 -0.29064072986E+02  0.29461677977E+02  0.00000000000E+00 0. -1.
</event>
<event>
 8    1  0.2516265E-006  0.9118800E+02  0.7816164E-02  0.1184000E+00
        -11   -1    0    0    0    0  0.00000000000E+00  0.00000000000E+00  0.45593999997E+02  0.45594000000E+02  0.51100000000E-03 0. -1.
         11   -1    0    0    0    0 -0.00000000000E+00 -0.00000000000E+00 -0.45593999997E+02  0.45594000000E+02  0.51100000000E-03 0.  1.
         23    2    1    2    0    0  0.00000000000E+00 -0.11102230246E-14 -0.71054273576E-14  0.91188000000E+02  0.91188000000E+02 0.  0.
    9900012    2    3    3    0    0  0.17126114715E+02 -0.16666854145E+01 -0.32553060912E+02  0.54367035588E+02  0.39999889229E+02 0.  0.
         12    1    3    3    0    0 -0.17126114715E+02  0.16666854145E+01  0.32553060912E+02  0.36820964412E+02  0.00000000000E+00 0. -1.
         11    1    4    4    0    0  0.17732304215E+01 -0.89052044254E+01  0.41450727541E+00  0.90894900038E+01  0.51100000000E-03 0. -1.
        -11    1    4    4    0    0 -0.53210506171E+01  0.31224020263E+00 -0.18148092136E+02  0.18914658920E+02  0.51100000000E-03 0.  1.
         12    1    4    4    0    0  0.20673934911E+02  0.69262788083E+01 -0.14819476051E+02  0.26362886664E+02  0.00000000000E+00 0. -1.
</event>
<event>
 8    1  0.2516265E-006  0.9118800E+02  0.7816164E-02  0.1184000E+00
        -11   -1    0    0    0    0  0.00000000000E+00  0.00000000000E+00  0.45593999997E+02  0.45594000000E+02  0.51100000000E-03 0.  1.
         11   -1    0    0    0    0 -0.00000000000E+00 -0.00000000000E+00 -0.45593999997E+02  0.45594000000E+02  0.51100000000E-03 0. -1.
         23    2    1    2    0    0  0.00000000000E+00 -0.35527136788E-14  0.00000000000E+00  0.91188000000E+02  0.91188000000E+02 0.  0.
    9900012    2    3    3    0    0  0.99626555174E+01 -0.24941837077E+02  0.25187751601E+02  0.54367182893E+02  0.40000225041E+02 0.  0.
         12    1    3    3    0    0 -0.99626555174E+01  0.24941837077E+02 -0.25187751601E+02  0.36820817107E+02  0.00000000000E+00 0. -1.
         11    1    4    4    0    0  0.20845588178E+02 -0.29925099917E+01  0.77881831168E+01  0.22453272792E+02  0.51100000000E-03 0. -1.
        -11    1    4    4    0    0 -0.11310773940E+02 -0.16761289124E+02  0.92319921289E+01  0.22228452468E+02  0.51100000000E-03 0.  1.
         12    1    4    4    0    0  0.42784127868E+00 -0.51880379613E+01  0.81675763548E+01  0.96854576329E+01  0.00000000000E+00 0. -1.
</event>
<event>
 8    1  0.2516265E-006  0.9118800E+02  0.7816164E-02  0.1184000E+00
        -11   -1    0    0    0    0  0.00000000000E+00  0.00000000000E+00  0.45593999997E+02  0.45594000000E+02  0.51100000000E-03 0.  1.
         11   -1    0    0    0    0 -0.00000000000E+00 -0.00000000000E+00 -0.45593999997E+02  0.45594000000E+02  0.51100000000E-03 0. -1.
         23    2    1    2    0    0 -0.44408920985E-15  0.00000000000E+00  0.00000000000E+00  0.91188000000E+02  0.91188000000E+02 0.  0.
    9900012    2    3    3    0    0 -0.20506941017E+01  0.29651091300E+02 -0.21734470012E+02  0.54367085450E+02  0.40000002900E+02 0.  0.
        -12    1    3    3    0    0  0.20506941017E+01 -0.29651091300E+02  0.21734470012E+02  0.36820914550E+02  0.00000000000E+00 0.  1.
         11    1    4    4    0    0 -0.66243513413E+01 -0.38741317352E+01 -0.31326800353E+01  0.82888245161E+01  0.51100000000E-03 0. -1.
        -11    1    4    4    0    0  0.81324372015E+00  0.23004728437E+02  0.15132419701E+01  0.23068784046E+02  0.51100000000E-03 0.  1.
        -12    1    4    4    0    0  0.37604135195E+01  0.10520494598E+02 -0.20115031947E+02  0.23009476888E+02  0.00000000000E+00 0.  1.
</event>
<event>
 8    1  0.2516265E-006  0.9118800E+02  0.7816164E-02  0.1184000E+00
        -11   -1    0    0    0    0  0.00000000000E+00  0.00000000000E+00  0.45593999997E+02  0.45594000000E+02  0.51100000000E-03 0.  1.
         11   -1    0    0    0    0 -0.00000000000E+00 -0.00000000000E+00 -0.45593999997E+02  0.45594000000E+02  0.51100000000E-03 0. -1.
         23    2    1    2    0    0 -0.35527136788E-14  0.00000000000E+00  0.00000000000E+00  0.91188000000E+02  0.91188000000E+02 0.  0.
    9900012    2    3    3    0    0 -0.17962958052E+02  0.11199898199E+02 -0.30127627001E+02  0.54367088953E+02  0.40000010886E+02 0.  0.
        -12    1    3    3    0    0  0.17962958052E+02 -0.11199898199E+02  0.30127627001E+02  0.36820911047E+02  0.00000000000E+00 0.  1.
         11    1    4    4    0    0 -0.38596804846E+01  0.16919749699E+02 -0.20195647415E+02  0.26627790710E+02  0.51100000000E-03 0. -1.
        -11    1    4    4    0    0 -0.80828056304E+01  0.72540682825E+01 -0.10690375918E+01  0.10913115739E+02  0.51100000000E-03 0.  1.
         12    1    4    4    0    0 -0.60204719367E+01 -0.12973919783E+02 -0.88629419941E+01  0.16826182504E+02  0.00000000000E+00 0. -1.
</event>
<event>
 8    1  0.2516265E-006  0.9118800E+02  0.7816164E-02  0.1184000E+00
        -11   -1    0    0    0    0  0.00000000000E+00  0.00000000000E+00  0.45593999997E+02  0.45594000000E+02  0.51100000000E-03 0. -1.
         11   -1    0    0    0    0 -0.00000000000E+00 -0.00000000000E+00 -0.45593999997E+02  0.45594000000E+02  0.51100000000E-03 0.  1.
         23    2    1    2    0    0  0.00000000000E+00 -0.35527136788E-14 -0.88817841970E-15  0.91188000000E+02  0.91188000000E+02 0.  0.
    9900012    2    3    3    0    0 -0.23315678541E+02  0.28196103338E+02  0.41397164893E+01  0.54367104276E+02  0.40000045819E+02 0.  0.
         12    1    3    3    0    0  0.23315678541E+02 -0.28196103338E+02 -0.41397164893E+01  0.36820895724E+02  0.00000000000E+00 0. -1.
         11    1    4    4    0    0 -0.13767442351E+02  0.69883274764E+01 -0.16486206844E+02  0.22587036241E+02  0.51100000000E-03 0.  1.
        -11    1    4    4    0    0 -0.19784822302E+01  0.11478193655E+02  0.79741810625E+01  0.14115625576E+02  0.51100000000E-03 0. -1.
        -12    1    4    4    0    0 -0.75697539597E+01  0.97295822069E+01  0.12651742270E+02  0.17664442460E+02  0.00000000000E+00 0.  1.
</event>
<event>
 8    1  0.2516265E-006  0.9118800E+02  0.7816164E-02  0.1184000E+00
        -11   -1    0    0    0    0  0.00000000000E+00  0.00000000000E+00  0.45593999997E+02  0.45594000000E+02  0.51100000000E-03 0. -1.
         11   -1    0    0    0    0 -0.00000000000E+00 -0.00000000000E+00 -0.45593999997E+02  0.45594000000E+02  0.51100000000E-03 0.  1.
         23    2    1    2    0    0  0.00000000000E+00  0.13322676296E-14  0.35527136788E-14  0.91188000000E+02  0.91188000000E+02 0.  0.
    9900012    2    3    3    0    0 -0.21161510717E+02  0.25645061159E+01  0.30023154349E+02  0.54367136016E+02  0.40000118175E+02 0.  0.
        -12    1    3    3    0    0  0.21161510717E+02 -0.25645061159E+01 -0.30023154349E+02  0.36820863984E+02  0.00000000000E+00 0.  1.
         11    1    4    4    0    0  0.44399454358E+01  0.82338284131E+01  0.17613103747E+02  0.19943181032E+02  0.51100000000E-03 0. -1.
        -11    1    4    4    0    0  0.85564070877E+00  0.35861085882E+01 -0.19251350147E+00  0.36917959774E+01  0.51100000000E-03 0.  1.
        -12    1    4    4    0    0 -0.26457096862E+02 -0.92554308855E+01  0.12602564104E+02  0.30732159007E+02  0.00000000000E+00 0.  1.
</event>
<event>
 8    1  0.2516265E-006  0.9118800E+02  0.7816164E-02  0.1184000E+00
        -11   -1    0    0    0    0  0.00000000000E+00  0.00000000000E+00  0.45593999997E+02  0.45594000000E+02  0.51100000000E-03 0. -1.
         11   -1    0    0    0    0 -0.00000000000E+00 -0.00000000000E+00 -0.45593999997E+02  0.45594000000E+02  0.51100000000E-03 0.  1.
         23    2    1    2    0    0  0.00000000000E+00  0.00000000000E+00  0.00000000000E+00  0.91188000000E+02  0.91188000000E+02 0.  0.
    9900012    2    3    3    0    0 -0.27876456707E+02 -0.15856564413E+02  0.18090136082E+02  0.54367075284E+02  0.39999979724E+02 0.  0.
        -12    1    3    3    0    0  0.27876456707E+02  0.15856564413E+02 -0.18090136082E+02  0.36820924716E+02  0.00000000000E+00 0.  1.
         11    1    4    4    0    0 -0.68182642707E+01  0.21019927669E+01 -0.40134739954E+01  0.81862735742E+01  0.51100000000E-03 0. -1.
        -11    1    4    4    0    0 -0.13385785502E+02  0.14065966459E+00 -0.35614032180E+01  0.13852170653E+02  0.51100000000E-03 0.  1.
         12    1    4    4    0    0 -0.76724069336E+01 -0.18099216844E+02  0.25665013295E+02  0.32328631056E+02  0.00000000000E+00 0. -1.
</event>
<event>
 8    1  0.2516265E-006  0.9118800E+02  0.7816164E-02  0.1184000E+00
        -11   -1    0    0    0    0  0.00000000000E+00  0.00000000000E+00  0.45593999997E+02  0.45594000000E+02  0.51100000000E-03 0.  1.
         11   -1    0    0    0    0 -0.00000000000E+00 -0.00000000000E+00 -0.45593999997E+02  0.45594000000E+02  0.51100000000E-03 0. -1.
         23    2    1    2    0    0  0.00000000000E+00  0.00000000000E+00 -0.35527136788E-14  0.91188000000E+02  0.91188000000E+02 0.  0.
    9900012    2    3    3    0    0 -0.15704050290E+02  0.21557301058E+02 -0.25385950676E+02  0.54367069592E+02  0.39999966749E+02 0.  0.
        -12    1    3    3    0    0  0.15704050290E+02 -0.21557301058E+02  0.25385950676E+02  0.36820930408E+02  0.00000000000E+00 0.  1.
         11    1    4    4    0    0  0.10681719564E+01  0.37546965979E+01 -0.90787486654E+01  0.98824296335E+01  0.51100000000E-03 0. -1.
        -11    1    4    4    0    0 -0.36400081772E+01 -0.59002332080E+01 -0.15942447211E+02  0.17384591879E+02  0.51100000000E-03 0.  1.
        -12    1    4    4    0    0 -0.13132214069E+02  0.23702837668E+02 -0.36475479872E+00  0.27100048080E+02  0.00000000000E+00 0.  1.
</event>
<event>
 8    1  0.2516265E-006  0.9118800E+02  0.7816164E-02  0.1184000E+00
        -11   -1    0    0    0    0  0.00000000000E+00  0.00000000000E+00  0.45593999997E+02  0.45594000000E+02  0.51100000000E-03 0. -1.
         11   -1    0    0    0    0 -0.00000000000E+00 -0.00000000000E+00 -0.45593999997E+02  0.45594000000E+02  0.51100000000E-03 0.  1.
         23    2    1    2    0    0 -0.35527136788E-14  0.22204460493E-15  0.35527136788E-14  0.91188000000E+02  0.91188000000E+02 0.  0.
    9900012    2    3    3    0    0  0.29292064942E+02  0.13846105124E+01 -0.22267431321E+02  0.54367072357E+02  0.39999973053E+02 0.  0.
         12    1    3    3    0    0 -0.29292064942E+02 -0.13846105124E+01  0.22267431321E+02  0.36820927643E+02  0.00000000000E+00 0. -1.
         11    1    4    4    0    0  0.17447471224E+02  0.18745705858E+01 -0.13461714819E+02  0.22116646064E+02  0.51100000000E-03 0. -1.
        -11    1    4    4    0    0  0.57831653649E+01 -0.11372304982E+02 -0.13832451903E+02  0.18817838562E+02  0.51100000000E-03 0.  1.
         12    1    4    4    0    0  0.60614283534E+01  0.10882344908E+02  0.50267354008E+01  0.13432587732E+02  0.00000000000E+00 0. -1.
</event>
<event>
 8    1  0.2516265E-006  0.9118800E+02  0.7816164E-02  0.1184000E+00
        -11   -1    0    0    0    0  0.00000000000E+00  0.00000000000E+00  0.45593999997E+02  0.45594000000E+02  0.51100000000E-03 0.  1.
         11   -1    0    0    0    0 -0.00000000000E+00 -0.00000000000E+00 -0.45593999997E+02  0.45594000000E+02  0.51100000000E-03 0. -1.
         23    2    1    2    0    0  0.00000000000E+00 -0.35527136788E-14 -0.35527136788E-14  0.91188000000E+02  0.91188000000E+02 0.  0.
    9900012    2    3    3    0    0  0.88325390433E+01  0.27240869785E+02 -0.23145207228E+02  0.54367090856E+02  0.40000015224E+02 0.  0.
        -12    1    3    3    0    0 -0.88325390433E+01 -0.27240869785E+02  0.23145207228E+02  0.36820909144E+02  0.00000000000E+00 0.  1.
         11    1    4    4    0    0 -0.19810642676E+01  0.11508045888E+02 -0.19438208256E+02  0.22676059540E+02  0.51100000000E-03 0. -1.
        -11    1    4    4    0    0 -0.60302014981E+01  0.79509417474E+01 -0.78296180235E+01  0.12683994774E+02  0.51100000000E-03 0.  1.
        -12    1    4    4    0    0  0.16843804809E+02  0.77818821495E+01  0.41226190517E+01  0.19007036541E+02  0.00000000000E+00 0.  1.
</event>
<event>
 8    1  0.2516265E-006  0.9118800E+02  0.7816164E-02  0.1184000E+00
        -11   -1    0    0    0    0  0.00000000000E+00  0.00000000000E+00  0.45593999997E+02  0.45594000000E+02  0.51100000000E-03 0.  1.
         11   -1    0    0    0    0 -0.00000000000E+00 -0.00000000000E+00 -0.45593999997E+02  0.45594000000E+02  0.51100000000E-03 0. -1.
         23    2    1    2    0    0  0.00000000000E+00  0.00000000000E+00 -0.35527136788E-14  0.91188000000E+02  0.91188000000E+02 0.  0.
    9900012    2    3    3    0    0  0.15223277627E+02  0.11565473042E+02 -0.31468542170E+02  0.54367116052E+02  0.40000072663E+02 0.  0.
        -12    1    3    3    0    0 -0.15223277627E+02 -0.11565473042E+02  0.31468542170E+02  0.36820883948E+02  0.00000000000E+00 0.  1.
         11    1    4    4    0    0  0.19802998728E+01 -0.33943577622E+00 -0.16298890584E+02  0.16422260464E+02  0.51100000000E-03 0. -1.
        -11    1    4    4    0    0 -0.81880076368E+01  0.90250867789E+01 -0.98691826443E+01  0.15681084999E+02  0.51100000000E-03 0.  1.
        -12    1    4    4    0    0  0.21430985391E+02  0.28798220397E+01 -0.53004689422E+01  0.22263770588E+02  0.00000000000E+00 0.  1.
</event>
<event>
 8    1  0.2516265E-006  0.9118800E+02  0.7816164E-02  0.1184000E+00
        -11   -1    0    0    0    0  0.00000000000E+00  0.00000000000E+00  0.45593999997E+02  0.45594000000E+02  0.51100000000E-03 0.  1.
         11   -1    0    0    0    0 -0.00000000000E+00 -0.00000000000E+00 -0.45593999997E+02  0.45594000000E+02  0.51100000000E-03 0. -1.
         23    2    1    2    0    0  0.00000000000E+00  0.35527136788E-14  0.00000000000E+00  0.91188000000E+02  0.91188000000E+02 0.  0.
    9900012    2    3    3    0    0  0.13537637869E+02  0.24624513866E+02 -0.23793796250E+02  0.54367094767E+02  0.40000024141E+02 0.  0.
        -12    1    3    3    0    0 -0.13537637869E+02 -0.24624513866E+02  0.23793796250E+02  0.36820905233E+02  0.00000000000E+00 0.  1.
         11    1    4    4    0    0  0.12746158949E+02  0.10231316870E+02 -0.10659893371E+02  0.19513527098E+02  0.51100000000E-03 0. -1.
        -11    1    4    4    0    0  0.59078305833E+01  0.14896422159E+02  0.43699809905E+01  0.16610315754E+02  0.51100000000E-03 0.  1.
         12    1    4    4    0    0 -0.51163516641E+01 -0.50322516353E+00 -0.17503883870E+02  0.18243251915E+02  0.00000000000E+00 0. -1.
</event>
<event>
 8    1  0.2516265E-006  0.9118800E+02  0.7816164E-02  0.1184000E+00
        -11   -1    0    0    0    0  0.00000000000E+00  0.00000000000E+00  0.45593999997E+02  0.45594000000E+02  0.51100000000E-03 0. -1.
         11   -1    0    0    0    0 -0.00000000000E+00 -0.00000000000E+00 -0.45593999997E+02  0.45594000000E+02  0.51100000000E-03 0.  1.
         23    2    1    2    0    0  0.00000000000E+00  0.00000000000E+00  0.35527136788E-14  0.91188000000E+02  0.91188000000E+02 0.  0.
    9900012    2    3    3    0    0  0.20513963516E+02  0.85347721488E+01 -0.29361778554E+02  0.54367094598E+02  0.40000023755E+02 0.  0.
         12    1    3    3    0    0 -0.20513963516E+02 -0.85347721488E+01  0.29361778554E+02  0.36820905402E+02  0.00000000000E+00 0. -1.
         11    1    4    4    0    0  0.32315692987E+01  0.15933754610E+01 -0.10573577122E+02  0.11170605127E+02  0.51100000000E-03 0. -1.
        -11    1    4    4    0    0  0.26147284663E+00  0.75532417158E+01 -0.24178318871E+02  0.25332013977E+02  0.51100000000E-03 0.  1.
         12    1    4    4    0    0  0.17020921371E+02 -0.61184502797E+00  0.53901174389E+01  0.17864475494E+02  0.00000000000E+00 0. -1.
</event>
<event>
 8    1  0.2516265E-006  0.9118800E+02  0.7816164E-02  0.1184000E+00
        -11   -1    0    0    0    0  0.00000000000E+00  0.00000000000E+00  0.45593999997E+02  0.45594000000E+02  0.51100000000E-03 0. -1.
         11   -1    0    0    0    0 -0.00000000000E+00 -0.00000000000E+00 -0.45593999997E+02  0.45594000000E+02  0.51100000000E-03 0.  1.
         23    2    1    2    0    0  0.00000000000E+00  0.00000000000E+00  0.00000000000E+00  0.91188000000E+02  0.91188000000E+02 0.  0.
    9900012    2    3    3    0    0  0.32017772032E+02 -0.17196193014E+02  0.59103729870E+01  0.54367091688E+02  0.40000017122E+02 0.  0.
         12    1    3    3    0    0 -0.32017772032E+02  0.17196193014E+02 -0.59103729870E+01  0.36820908312E+02  0.00000000000E+00 0. -1.
         11    1    4    4    0    0  0.15504428140E+01  0.87405298037E+01  0.32346580546E+01  0.94479493627E+01  0.51100000000E-03 0. -1.
        -11    1    4    4    0    0  0.22320231991E+02 -0.28586487800E+02  0.24012959321E+01  0.36347575755E+02  0.51100000000E-03 0.  1.
        -12    1    4    4    0    0  0.81470972266E+01  0.26497649823E+01  0.27441900032E+00  0.85715665702E+01  0.00000000000E+00 0.  1.
</event>
<event>
 8    1  0.2516265E-006  0.9118800E+02  0.7816164E-02  0.1184000E+00
        -11   -1    0    0    0    0  0.00000000000E+00  0.00000000000E+00  0.45593999997E+02  0.45594000000E+02  0.51100000000E-03 0.  1.
         11   -1    0    0    0    0 -0.00000000000E+00 -0.00000000000E+00 -0.45593999997E+02  0.45594000000E+02  0.51100000000E-03 0. -1.
         23    2    1    2    0    0 -0.44408920985E-15 -0.17763568394E-14  0.00000000000E+00  0.91188000000E+02  0.91188000000E+02 0.  0.
    9900012    2    3    3    0    0 -0.28984146462E+01 -0.12609128582E+02 -0.34472980366E+02  0.54367118609E+02  0.40000078494E+02 0.  0.
        -12    1    3    3    0    0  0.28984146462E+01  0.12609128582E+02  0.34472980366E+02  0.36820881391E+02  0.00000000000E+00 0.  1.
         11    1    4    4    0    0  0.27136503750E+01  0.42951055226E+01 -0.50618407461E+01  0.71717544442E+01  0.51100000000E-03 0. -1.
        -11    1    4    4    0    0 -0.10542276557E+02 -0.93724718363E+00 -0.28565464924E+02  0.30463155022E+02  0.51100000000E-03 0.  1.
        -12    1    4    4    0    0  0.49302115357E+01 -0.15966986921E+02 -0.84567469577E+00  0.16732209144E+02  0.00000000000E+00 0.  1.
</event>
<event>
 8    1  0.2516265E-006  0.9118800E+02  0.7816164E-02  0.1184000E+00
        -11   -1    0    0    0    0  0.00000000000E+00  0.00000000000E+00  0.45593999997E+02  0.45594000000E+02  0.51100000000E-03 0. -1.
         11   -1    0    0    0    0 -0.00000000000E+00 -0.00000000000E+00 -0.45593999997E+02  0.45594000000E+02  0.51100000000E-03 0.  1.
         23    2    1    2    0    0 -0.71054273576E-14  0.00000000000E+00  0.00000000000E+00  0.91188000000E+02  0.91188000000E+02 0.  0.
    9900012    2    3    3    0    0  0.27350726845E+02 -0.14042744233E+02  0.20261250566E+02  0.54367092908E+02  0.40000019903E+02 0.  0.
        -12    1    3    3    0    0 -0.27350726845E+02  0.14042744233E+02 -0.20261250566E+02  0.36820907092E+02  0.00000000000E+00 0.  1.
         11    1    4    4    0    0  0.44089168018E+01 -0.11897932293E+02  0.22899079557E+02  0.26179518427E+02  0.51100000000E-03 0. -1.
        -11    1    4    4    0    0  0.51457707432E+01  0.57370423905E+01  0.24201504810E+01  0.80777311507E+01  0.51100000000E-03 0.  1.
         12    1    4    4    0    0  0.17796039300E+02 -0.78818543302E+01 -0.50579794725E+01  0.20109843331E+02  0.00000000000E+00 0. -1.
</event>
<event>
 8    1  0.2516265E-006  0.9118800E+02  0.7816164E-02  0.1184000E+00
        -11   -1    0    0    0    0  0.00000000000E+00  0.00000000000E+00  0.45593999997E+02  0.45594000000E+02  0.51100000000E-03 0. -1.
         11   -1    0    0    0    0 -0.00000000000E+00 -0.00000000000E+00 -0.45593999997E+02  0.45594000000E+02  0.51100000000E-03 0.  1.
         23    2    1    2    0    0  0.00000000000E+00  0.00000000000E+00  0.00000000000E+00  0.91188000000E+02  0.91188000000E+02 0.  0.
    9900012    2    3    3    0    0 -0.18625622159E+02 -0.28816994963E+02 -0.13358416006E+02  0.54367078262E+02  0.39999986513E+02 0.  0.
        -12    1    3    3    0    0  0.18625622159E+02  0.28816994963E+02  0.13358416006E+02  0.36820921738E+02  0.00000000000E+00 0.  1.
         11    1    4    4    0    0 -0.14803163799E+02 -0.22453533099E+02 -0.11459990062E+02  0.29233990141E+02  0.51100000000E-03 0. -1.
        -11    1    4    4    0    0 -0.23529569728E+00 -0.15345797564E+02 -0.18684033243E+01  0.15460911946E+02  0.51100000000E-03 0.  1.
        -12    1    4    4    0    0 -0.35871626628E+01  0.89823357003E+01 -0.30022619391E-01  0.96721761750E+01  0.00000000000E+00 0.  1.
</event>
<event>
 8    1  0.2516265E-006  0.9118800E+02  0.7816164E-02  0.1184000E+00
        -11   -1    0    0    0    0  0.00000000000E+00  0.00000000000E+00  0.45593999997E+02  0.45594000000E+02  0.51100000000E-03 0. -1.
         11   -1    0    0    0    0 -0.00000000000E+00 -0.00000000000E+00 -0.45593999997E+02  0.45594000000E+02  0.51100000000E-03 0.  1.
         23    2    1    2    0    0  0.35527136788E-14 -0.53290705182E-14  0.00000000000E+00  0.91188000000E+02  0.91188000000E+02 0.  0.
    9900012    2    3    3    0    0  0.16467644129E+02 -0.14014629803E+02 -0.29802461499E+02  0.54367083891E+02  0.39999999347E+02 0.  0.
         12    1    3    3    0    0 -0.16467644129E+02  0.14014629803E+02  0.29802461499E+02  0.36820916109E+02  0.00000000000E+00 0. -1.
         11    1    4    4    0    0  0.44568451341E+01  0.41509750648E+01  0.24156997532E+01  0.65520735723E+01  0.51100000000E-03 0. -1.
        -11    1    4    4    0    0  0.19338706508E+02 -0.72152530332E+01 -0.26133853331E+02  0.33302007987E+02  0.51100000000E-03 0.  1.
         12    1    4    4    0    0 -0.73279075130E+01 -0.10950351835E+02 -0.60843079208E+01  0.14513002332E+02  0.00000000000E+00 0. -1.
</event>
<event>
 8    1  0.2516265E-006  0.9118800E+02  0.7816164E-02  0.1184000E+00
        -11   -1    0    0    0    0  0.00000000000E+00  0.00000000000E+00  0.45593999997E+02  0.45594000000E+02  0.51100000000E-03 0. -1.
         11   -1    0    0    0    0 -0.00000000000E+00 -0.00000000000E+00 -0.45593999997E+02  0.45594000000E+02  0.51100000000E-03 0.  1.
         23    2    1    2    0    0  0.35527136788E-14  0.00000000000E+00  0.35527136788E-14  0.91188000000E+02  0.91188000000E+02 0.  0.
    9900012    2    3    3    0    0  0.23040977511E+02  0.76859032129E+01  0.27673445543E+02  0.54367090980E+02  0.40000015507E+02 0.  0.
        -12    1    3    3    0    0 -0.23040977511E+02 -0.76859032129E+01 -0.27673445543E+02  0.36820909020E+02  0.00000000000E+00 0.  1.
         11    1    4    4    0    0  0.46323838952E+00  0.77016196990E+01  0.12607086672E+02  0.14780668808E+02  0.51100000000E-03 0. -1.
        -11    1    4    4    0    0 -0.24329895022E+01  0.71476080486E+00  0.14331632293E+02  0.14554243551E+02  0.51100000000E-03 0.  1.
         12    1    4    4    0    0  0.25010728623E+02 -0.73047729102E+00  0.73472657801E+00  0.25032178620E+02  0.00000000000E+00 0. -1.
</event>
<event>
 8    1  0.2516265E-006  0.9118800E+02  0.7816164E-02  0.1184000E+00
        -11   -1    0    0    0    0  0.00000000000E+00  0.00000000000E+00  0.45593999997E+02  0.45594000000E+02  0.51100000000E-03 0.  1.
         11   -1    0    0    0    0 -0.00000000000E+00 -0.00000000000E+00 -0.45593999997E+02  0.45594000000E+02  0.51100000000E-03 0. -1.
         23    2    1    2    0    0  0.00000000000E+00  0.17763568394E-14  0.00000000000E+00  0.91188000000E+02  0.91188000000E+02 0.  0.
    9900012    2    3    3    0    0  0.24332982690E+02  0.14555143299E+02  0.23490983068E+02  0.54367183489E+02  0.40000226399E+02 0.  0.
         12    1    3    3    0    0 -0.24332982690E+02 -0.14555143299E+02 -0.23490983068E+02  0.36820816511E+02  0.00000000000E+00 0. -1.
         11    1    4    4    0    0  0.60237529000E+01  0.60585618425E+01 -0.60878868622E+01  0.10490669059E+02  0.51100000000E-03 0. -1.
        -11    1    4    4    0    0  0.16045711131E+02  0.11159175048E+02  0.65932591110E+01  0.20626756880E+02  0.51100000000E-03 0.  1.
        -12    1    4    4    0    0  0.22635186589E+01 -0.26625935915E+01  0.22985610820E+02  0.23249757549E+02  0.00000000000E+00 0.  1.
</event>
<event>
 8    1  0.2516265E-006  0.9118800E+02  0.7816164E-02  0.1184000E+00
        -11   -1    0    0    0    0  0.00000000000E+00  0.00000000000E+00  0.45593999997E+02  0.45594000000E+02  0.51100000000E-03 0.  1.
         11   -1    0    0    0    0 -0.00000000000E+00 -0.00000000000E+00 -0.45593999997E+02  0.45594000000E+02  0.51100000000E-03 0. -1.
         23    2    1    2    0    0  0.00000000000E+00  0.00000000000E+00  0.00000000000E+00  0.91188000000E+02  0.91188000000E+02 0.  0.
    9900012    2    3    3    0    0 -0.80059964171E+01 -0.21308758458E+02  0.28941691793E+02  0.54367072669E+02  0.39999973763E+02 0.  0.
         12    1    3    3    0    0  0.80059964171E+01  0.21308758458E+02 -0.28941691793E+02  0.36820927331E+02  0.00000000000E+00 0. -1.
         11    1    4    4    0    0 -0.46709617612E+01 -0.85598967513E+01  0.64283168812E+01  0.11679596498E+02  0.51100000000E-03 0. -1.
        -11    1    4    4    0    0 -0.24512314052E+01 -0.16003435444E+00  0.28579882821E+02  0.28685254901E+02  0.51100000000E-03 0.  1.
        -12    1    4    4    0    0 -0.88380325064E+00 -0.12588827352E+02 -0.60665079090E+01  0.14002221270E+02  0.00000000000E+00 0.  1.
</event>
<event>
 8    1  0.2516265E-006  0.9118800E+02  0.7816164E-02  0.1184000E+00
        -11   -1    0    0    0    0  0.00000000000E+00  0.00000000000E+00  0.45593999997E+02  0.45594000000E+02  0.51100000000E-03 0.  1.
         11   -1    0    0    0    0 -0.00000000000E+00 -0.00000000000E+00 -0.45593999997E+02  0.45594000000E+02  0.51100000000E-03 0. -1.
         23    2    1    2    0    0 -0.35527136788E-14  0.00000000000E+00 -0.33306690739E-15  0.91188000000E+02  0.91188000000E+02 0.  0.
    9900012    2    3    3    0    0  0.25444863001E+02  0.26605458789E+02  0.69964917665E+00  0.54367068460E+02  0.39999964168E+02 0.  0.
         12    1    3    3    0    0 -0.25444863001E+02 -0.26605458789E+02 -0.69964917665E+00  0.36820931540E+02  0.00000000000E+00 0. -1.
         11    1    4    4    0    0 -0.19342131274E+01  0.44712688853E+01  0.10794685541E+01  0.49898575618E+01  0.51100000000E-03 0. -1.
        -11    1    4    4    0    0  0.16495405366E+02  0.30828212342E+02  0.28432719639E+01  0.35079356752E+02  0.51100000000E-03 0.  1.
         12    1    4    4    0    0  0.10883670761E+02 -0.86940224377E+01 -0.32230913413E+01  0.14297854146E+02  0.00000000000E+00 0. -1.
</event>
<event>
 8    1  0.2516265E-006  0.9118800E+02  0.7816164E-02  0.1184000E+00
        -11   -1    0    0    0    0  0.00000000000E+00  0.00000000000E+00  0.45593999997E+02  0.45594000000E+02  0.51100000000E-03 0. -1.
         11   -1    0    0    0    0 -0.00000000000E+00 -0.00000000000E+00 -0.45593999997E+02  0.45594000000E+02  0.51100000000E-03 0.  1.
         23    2    1    2    0    0 -0.35527136788E-14  0.00000000000E+00 -0.17763568394E-14  0.91188000000E+02  0.91188000000E+02 0.  0.
    9900012    2    3    3    0    0  0.28999021170E+02  0.18331958414E+02  0.13370713416E+02  0.54367083317E+02  0.39999998037E+02 0.  0.
        -12    1    3    3    0    0 -0.28999021170E+02 -0.18331958414E+02 -0.13370713416E+02  0.36820916683E+02  0.00000000000E+00 0.  1.
         11    1    4    4    0    0  0.57377085715E+01  0.16956251511E+02  0.20036660076E+02  0.26868262174E+02  0.51100000000E-03 0. -1.
        -11    1    4    4    0    0  0.13542560643E+02 -0.50296344482E+01 -0.81004784233E+00  0.14469082529E+02  0.51100000000E-03 0.  1.
         12    1    4    4    0    0  0.97187519559E+01  0.64053413510E+01 -0.58558988177E+01  0.13029738615E+02  0.00000000000E+00 0. -1.
</event>
<event>
 8    1  0.2516265E-006  0.9118800E+02  0.7816164E-02  0.1184000E+00
        -11   -1    0    0    0    0  0.00000000000E+00  0.00000000000E+00  0.45593999997E+02  0.45594000000E+02  0.51100000000E-03 0.  1.
         11   -1    0    0    0    0 -0.00000000000E+00 -0.00000000000E+00 -0.45593999997E+02  0.45594000000E+02  0.51100000000E-03 0. -1.
         23    2    1    2    0    0  0.00000000000E+00 -0.35527136788E-14  0.00000000000E+00  0.91188000000E+02  0.91188000000E+02 0.  0.
    9900012    2    3    3    0    0  0.33288306940E+02 -0.14977707151E+02  0.48308061087E+01  0.54367085045E+02  0.40000001977E+02 0.  0.
         12    1    3    3    0    0 -0.33288306940E+02  0.14977707151E+02 -0.48308061087E+01  0.36820914955E+02  0.00000000000E+00 0. -1.
         11    1    4    4    0    0 -0.24583180100E+01  0.69384349384E+01  0.40471425966E+01  0.84002720367E+01  0.51100000000E-03 0. -1.
        -11    1    4    4    0    0 -0.26381996008E+00  0.23375840518E+01  0.98370483210E+00  0.25498187442E+01  0.51100000000E-03 0.  1.
        -12    1    4    4    0    0  0.36010444910E+02 -0.24253726142E+02 -0.20004131991E+00  0.43416994264E+02  0.00000000000E+00 0.  1.
</event>
<event>
 8    1  0.2516265E-006  0.9118800E+02  0.7816164E-02  0.1184000E+00
        -11   -1    0    0    0    0  0.00000000000E+00  0.00000000000E+00  0.45593999997E+02  0.45594000000E+02  0.51100000000E-03 0.  1.
         11   -1    0    0    0    0 -0.00000000000E+00 -0.00000000000E+00 -0.45593999997E+02  0.45594000000E+02  0.51100000000E-03 0. -1.
         23    2    1    2    0    0  0.00000000000E+00  0.00000000000E+00  0.00000000000E+00  0.91188000000E+02  0.91188000000E+02 0.  0.
    9900012    2    3    3    0    0 -0.33908081242E+02 -0.13815557157E+02  0.38925353695E+01  0.54367089845E+02  0.40000012919E+02 0.  0.
        -12    1    3    3    0    0  0.33908081242E+02  0.13815557157E+02 -0.38925353695E+01  0.36820910155E+02  0.00000000000E+00 0.  1.
         11    1    4    4    0    0  0.17025605669E+00  0.10224427602E+01 -0.96902188921E+00  0.14189362233E+01  0.51100000000E-03 0. -1.
        -11    1    4    4    0    0  0.80948319494E+00 -0.11672493876E+02 -0.95156907056E+01  0.15081470292E+02  0.51100000000E-03 0.  1.
         12    1    4    4    0    0 -0.34887820494E+02 -0.31655060413E+01  0.14377247964E+02  0.37866683329E+02  0.00000000000E+00 0. -1.
</event>
<event>
 8    1  0.2516265E-006  0.9118800E+02  0.7816164E-02  0.1184000E+00
        -11   -1    0    0    0    0  0.00000000000E+00  0.00000000000E+00  0.45593999997E+02  0.45594000000E+02  0.51100000000E-03 0. -1.
         11   -1    0    0    0    0 -0.00000000000E+00 -0.00000000000E+00 -0.45593999997E+02  0.45594000000E+02  0.51100000000E-03 0.  1.
         23    2    1    2    0    0 -0.35527136788E-14  0.96450625264E-15  0.00000000000E+00  0.91188000000E+02  0.91188000000E+02 0.  0.
    9900012    2    3    3    0    0 -0.16095235146E+02  0.47434612456E-01  0.33116771072E+02  0.54367090578E+02  0.40000014590E+02 0.  0.
        -12    1    3    3    0    0  0.16095235146E+02 -0.47434612456E-01 -0.33116771072E+02  0.36820909422E+02  0.00000000000E+00 0.  1.
         11    1    4    4    0    0 -0.46191471925E+01  0.12323152348E+02 -0.60207687582E+00  0.13174183140E+02  0.51100000000E-03 0. -1.
        -11    1    4    4    0    0  0.26412223513E+01 -0.79450996021E+00 -0.13189748244E+00  0.27612857137E+01  0.51100000000E-03 0.  1.
         12    1    4    4    0    0 -0.14117310305E+02 -0.11481207775E+02  0.33850745430E+02  0.38431621725E+02  0.00000000000E+00 0. -1.
</event>
<event>
 8    1  0.2516265E-006  0.9118800E+02  0.7816164E-02  0.1184000E+00
        -11   -1    0    0    0    0  0.00000000000E+00  0.00000000000E+00  0.45593999997E+02  0.45594000000E+02  0.51100000000E-03 0.  1.
         11   -1    0    0    0    0 -0.00000000000E+00 -0.00000000000E+00 -0.45593999997E+02  0.45594000000E+02  0.51100000000E-03 0. -1.
         23    2    1    2    0    0  0.00000000000E+00  0.00000000000E+00 -0.35527136788E-14  0.91188000000E+02  0.91188000000E+02 0.  0.
    9900012    2    3    3    0    0  0.21520812941E+02 -0.10007011604E+02  0.28151266480E+02  0.54367089157E+02  0.40000011351E+02 0.  0.
         12    1    3    3    0    0 -0.21520812941E+02  0.10007011604E+02 -0.28151266480E+02  0.36820910843E+02  0.00000000000E+00 0. -1.
         11    1    4    4    0    0  0.85454372403E+01 -0.18404743947E+02  0.10767389014E+02  0.22971629542E+02  0.51100000000E-03 0. -1.
        -11    1    4    4    0    0  0.83689083382E+01  0.75057045606E+01 -0.20292905230E+01  0.11423320358E+02  0.51100000000E-03 0.  1.
        -12    1    4    4    0    0  0.46064673624E+01  0.89202778189E+00  0.19413167988E+02  0.19972139256E+02  0.00000000000E+00 0.  1.
</event>
<event>
 8    1  0.2516265E-006  0.9118800E+02  0.7816164E-02  0.1184000E+00
        -11   -1    0    0    0    0  0.00000000000E+00  0.00000000000E+00  0.45593999997E+02  0.45594000000E+02  0.51100000000E-03 0.  1.
         11   -1    0    0    0    0 -0.00000000000E+00 -0.00000000000E+00 -0.45593999997E+02  0.45594000000E+02  0.51100000000E-03 0. -1.
         23    2    1    2    0    0  0.00000000000E+00 -0.35527136788E-14  0.00000000000E+00  0.91188000000E+02  0.91188000000E+02 0.  0.
    9900012    2    3    3    0    0 -0.12311613860E+01  0.30081593863E+02  0.21198190475E+02  0.54367064011E+02  0.39999954026E+02 0.  0.
         12    1    3    3    0    0  0.12311613860E+01 -0.30081593863E+02 -0.21198190475E+02  0.36820935989E+02  0.00000000000E+00 0. -1.
         11    1    4    4    0    0 -0.34319494746E+01  0.27099279330E+01  0.17948846944E+02  0.18473848908E+02  0.51100000000E-03 0. -1.
        -11    1    4    4    0    0  0.23332169817E+01  0.27086908758E+01  0.97523392031E+01  0.10386964327E+02  0.51100000000E-03 0.  1.
         12    1    4    4    0    0 -0.13242889310E+00  0.24662975054E+02 -0.65029956719E+01  0.25506250776E+02  0.00000000000E+00 0. -1.
</event>
<event>
 8    1  0.2516265E-006  0.9118800E+02  0.7816164E-02  0.1184000E+00
        -11   -1    0    0    0    0  0.00000000000E+00  0.00000000000E+00  0.45593999997E+02  0.45594000000E+02  0.51100000000E-03 0.  1.
         11   -1    0    0    0    0 -0.00000000000E+00 -0.00000000000E+00 -0.45593999997E+02  0.45594000000E+02  0.51100000000E-03 0. -1.
         23    2    1    2    0    0 -0.88817841970E-15 -0.35527136788E-14 -0.35527136788E-14  0.91188000000E+02  0.91188000000E+02 0.  0.
    9900012    2    3    3    0    0  0.72727010902E+01 -0.29616264901E+02 -0.20633949221E+02  0.54367147372E+02  0.40000144063E+02 0.  0.
        -12    1    3    3    0    0 -0.72727010902E+01  0.29616264901E+02  0.20633949221E+02  0.36820852628E+02  0.00000000000E+00 0.  1.
         11    1    4    4    0    0  0.39796708982E+01 -0.14733981957E+02 -0.14861566004E+02  0.21302444674E+02  0.51100000000E-03 0. -1.
        -11    1    4    4    0    0 -0.49411600521E+01  0.37830449262E+00 -0.13275791750E+02  0.14170561873E+02  0.51100000000E-03 0.  1.
         12    1    4    4    0    0  0.82341902441E+01 -0.15260587437E+02  0.75034085328E+01  0.18894140825E+02  0.00000000000E+00 0. -1.
</event>
<event>
 8    1  0.2516265E-006  0.9118800E+02  0.7816164E-02  0.1184000E+00
        -11   -1    0    0    0    0  0.00000000000E+00  0.00000000000E+00  0.45593999997E+02  0.45594000000E+02  0.51100000000E-03 0.  1.
         11   -1    0    0    0    0 -0.00000000000E+00 -0.00000000000E+00 -0.45593999997E+02  0.45594000000E+02  0.51100000000E-03 0. -1.
         23    2    1    2    0    0  0.17763568394E-14  0.00000000000E+00  0.00000000000E+00  0.91188000000E+02  0.91188000000E+02 0.  0.
    9900012    2    3    3    0    0 -0.11068003626E+02  0.82159673132E+01 -0.34143446327E+02  0.54367112582E+02  0.40000064753E+02 0.  0.
        -12    1    3    3    0    0  0.11068003626E+02 -0.82159673132E+01  0.34143446327E+02  0.36820887418E+02  0.00000000000E+00 0.  1.
         11    1    4    4    0    0  0.86668108718E+01 -0.10425215206E+02 -0.18436290714E+02  0.22884395083E+02  0.51100000000E-03 0. -1.
        -11    1    4    4    0    0 -0.17209761628E+02  0.15438970955E+02 -0.14214181883E+02  0.27140020013E+02  0.51100000000E-03 0.  1.
         12    1    4    4    0    0 -0.25250528695E+01  0.32022115643E+01 -0.14929737311E+01  0.43426974864E+01  0.00000000000E+00 0. -1.
</event>
<event>
 8    1  0.2516265E-006  0.9118800E+02  0.7816164E-02  0.1184000E+00
        -11   -1    0    0    0    0  0.00000000000E+00  0.00000000000E+00  0.45593999997E+02  0.45594000000E+02  0.51100000000E-03 0.  1.
         11   -1    0    0    0    0 -0.00000000000E+00 -0.00000000000E+00 -0.45593999997E+02  0.45594000000E+02  0.51100000000E-03 0. -1.
         23    2    1    2    0    0  0.00000000000E+00  0.11102230246E-15  0.00000000000E+00  0.91188000000E+02  0.91188000000E+02 0.  0.
    9900012    2    3    3    0    0  0.46702062540E+01 -0.71888917398E+00  0.36516481192E+02  0.54367068089E+02  0.39999963323E+02 0.  0.
         12    1    3    3    0    0 -0.46702062540E+01  0.71888917398E+00 -0.36516481192E+02  0.36820931911E+02  0.00000000000E+00 0. -1.
         11    1    4    4    0    0  0.55276036434E+01  0.61932061190E+01  0.43326379764E+01  0.93638643821E+01  0.51100000000E-03 0. -1.
        -11    1    4    4    0    0  0.12258523691E+02 -0.53461561893E+01  0.28193467032E+02  0.31204556921E+02  0.51100000000E-03 0.  1.
        -12    1    4    4    0    0 -0.13115921080E+02 -0.15659391036E+01  0.39903761840E+01  0.13798646787E+02  0.00000000000E+00 0.  1.
</event>
<event>
 8    1  0.2516265E-006  0.9118800E+02  0.7816164E-02  0.1184000E+00
        -11   -1    0    0    0    0  0.00000000000E+00  0.00000000000E+00  0.45593999997E+02  0.45594000000E+02  0.51100000000E-03 0.  1.
         11   -1    0    0    0    0 -0.00000000000E+00 -0.00000000000E+00 -0.45593999997E+02  0.45594000000E+02  0.51100000000E-03 0. -1.
         23    2    1    2    0    0  0.00000000000E+00  0.88817841970E-15  0.17763568394E-14  0.91188000000E+02  0.91188000000E+02 0.  0.
    9900012    2    3    3    0    0 -0.33638877053E+02 -0.43543865213E+01  0.14326360554E+02  0.54367091021E+02  0.40000015600E+02 0.  0.
         12    1    3    3    0    0  0.33638877053E+02  0.43543865213E+01 -0.14326360554E+02  0.36820908979E+02  0.00000000000E+00 0. -1.
         11    1    4    4    0    0 -0.11226236184E+02  0.34588921853E+01  0.17306442434E+02  0.20916626496E+02  0.51100000000E-03 0. -1.
        -11    1    4    4    0    0 -0.14687830970E+02  0.71229873747E+01 -0.31943175115E+01  0.16633490084E+02  0.51100000000E-03 0.  1.
         12    1    4    4    0    0 -0.77248098987E+01 -0.14936266081E+02  0.21423563091E+00  0.16816974440E+02  0.00000000000E+00 0. -1.
</event>
<event>
 8    1  0.2516265E-006  0.9118800E+02  0.7816164E-02  0.1184000E+00
        -11   -1    0    0    0    0  0.00000000000E+00  0.00000000000E+00  0.45593999997E+02  0.45594000000E+02  0.51100000000E-03 0.  1.
         11   -1    0    0    0    0 -0.00000000000E+00 -0.00000000000E+00 -0.45593999997E+02  0.45594000000E+02  0.51100000000E-03 0. -1.
         23    2    1    2    0    0 -0.88817841970E-15  0.00000000000E+00  0.00000000000E+00  0.91188000000E+02  0.91188000000E+02 0.  0.
    9900012    2    3    3    0    0 -0.26846112603E+01 -0.19586173942E+02  0.31063718807E+02  0.54367082393E+02  0.39999995932E+02 0.  0.
         12    1    3    3    0    0  0.26846112603E+01  0.19586173942E+02 -0.31063718807E+02  0.36820917607E+02  0.00000000000E+00 0. -1.
         11    1    4    4    0    0  0.53905257678E+01  0.12135574310E+01  0.37628827119E+01  0.66850412307E+01  0.51100000000E-03 0. -1.
        -11    1    4    4    0    0 -0.58247794374E+01 -0.18771340724E+02  0.34592476195E+02  0.39786061600E+02  0.51100000000E-03 0.  1.
         12    1    4    4    0    0 -0.22503575907E+01 -0.20283906493E+01 -0.72916400998E+01  0.78959795629E+01  0.00000000000E+00 0. -1.
</event>
<event>
 8    1  0.2516265E-006  0.9118800E+02  0.7816164E-02  0.1184000E+00
        -11   -1    0    0    0    0  0.00000000000E+00  0.00000000000E+00  0.45593999997E+02  0.45594000000E+02  0.51100000000E-03 0.  1.
         11   -1    0    0    0    0 -0.00000000000E+00 -0.00000000000E+00 -0.45593999997E+02  0.45594000000E+02  0.51100000000E-03 0. -1.
         23    2    1    2    0    0  0.00000000000E+00 -0.71054273576E-14 -0.35527136788E-14  0.91188000000E+02  0.91188000000E+02 0.  0.
    9900012    2    3    3    0    0  0.51150073352E+01  0.34735465605E+02  0.11093387528E+02  0.54367094014E+02  0.40000022423E+02 0.  0.
         12    1    3    3    0    0 -0.51150073352E+01 -0.34735465605E+02 -0.11093387528E+02  0.36820905986E+02  0.00000000000E+00 0. -1.
         11    1    4    4    0    0 -0.64905279364E+01  0.68683965219E+01  0.45427750472E+01  0.10485162329E+02  0.51100000000E-03 0.  1.
        -11    1    4    4    0    0  0.51845985893E+01  0.70758141001E+01 -0.12289548484E+02  0.15099013541E+02  0.51100000000E-03 0. -1.
        -12    1    4    4    0    0  0.64209366823E+01  0.20791254983E+02  0.18840160965E+02  0.28782918143E+02  0.00000000000E+00 0.  1.
</event>
<event>
 8    1  0.2516265E-006  0.9118800E+02  0.7816164E-02  0.1184000E+00
        -11   -1    0    0    0    0  0.00000000000E+00  0.00000000000E+00  0.45593999997E+02  0.45594000000E+02  0.51100000000E-03 0.  1.
         11   -1    0    0    0    0 -0.00000000000E+00 -0.00000000000E+00 -0.45593999997E+02  0.45594000000E+02  0.51100000000E-03 0. -1.
         23    2    1    2    0    0  0.00000000000E+00  0.00000000000E+00  0.22204460493E-15  0.91188000000E+02  0.91188000000E+02 0.  0.
    9900012    2    3    3    0    0 -0.35599627504E+02  0.94005129442E+01 -0.27190930819E+00  0.54367122000E+02  0.40000086223E+02 0.  0.
         12    1    3    3    0    0  0.35599627504E+02 -0.94005129442E+01  0.27190930819E+00  0.36820878000E+02  0.00000000000E+00 0. -1.
         11    1    4    4    0    0 -0.20040178338E+02  0.10311746659E+02 -0.44980734695E+01  0.22982026285E+02  0.51100000000E-03 0.  1.
        -11    1    4    4    0    0 -0.13875627867E+02  0.83060421371E+01  0.11228670921E+02  0.19687722966E+02  0.51100000000E-03 0. -1.
         12    1    4    4    0    0 -0.16838212997E+01 -0.92172758522E+01 -0.70025067598E+01  0.11697372749E+02  0.00000000000E+00 0. -1.
</event>
<event>
 8    1  0.2516265E-006  0.9118800E+02  0.7816164E-02  0.1184000E+00
        -11   -1    0    0    0    0  0.00000000000E+00  0.00000000000E+00  0.45593999997E+02  0.45594000000E+02  0.51100000000E-03 0. -1.
         11   -1    0    0    0    0 -0.00000000000E+00 -0.00000000000E+00 -0.45593999997E+02  0.45594000000E+02  0.51100000000E-03 0.  1.
         23    2    1    2    0    0  0.00000000000E+00  0.00000000000E+00  0.17763568394E-14  0.91188000000E+02  0.91188000000E+02 0.  0.
    9900012    2    3    3    0    0  0.51819224312E+01 -0.33967140263E+02  0.13234814494E+02  0.54367092183E+02  0.40000018250E+02 0.  0.
        -12    1    3    3    0    0 -0.51819224312E+01  0.33967140263E+02 -0.13234814494E+02  0.36820907817E+02  0.00000000000E+00 0.  1.
         11    1    4    4    0    0  0.73366297738E+01 -0.47531236596E+01  0.95307658160E+00  0.87935587900E+01  0.51100000000E-03 0. -1.
        -11    1    4    4    0    0  0.10997501070E+02 -0.26009113634E+02  0.15191342368E+01  0.28279441135E+02  0.51100000000E-03 0.  1.
        -12    1    4    4    0    0 -0.13152208412E+02 -0.32049029695E+01  0.10762603675E+02  0.17294092258E+02  0.00000000000E+00 0.  1.
</event>
<event>
 8    1  0.2516265E-006  0.9118800E+02  0.7816164E-02  0.1184000E+00
        -11   -1    0    0    0    0  0.00000000000E+00  0.00000000000E+00  0.45593999997E+02  0.45594000000E+02  0.51100000000E-03 0.  1.
         11   -1    0    0    0    0 -0.00000000000E+00 -0.00000000000E+00 -0.45593999997E+02  0.45594000000E+02  0.51100000000E-03 0. -1.
         23    2    1    2    0    0  0.17763568394E-14  0.00000000000E+00  0.00000000000E+00  0.91188000000E+02  0.91188000000E+02 0.  0.
    9900012    2    3    3    0    0 -0.11183564554E+02 -0.28704433608E+02  0.20168371731E+02  0.54367084162E+02  0.39999999963E+02 0.  0.
         12    1    3    3    0    0  0.11183564554E+02  0.28704433608E+02 -0.20168371731E+02  0.36820915838E+02  0.00000000000E+00 0. -1.
         11    1    4    4    0    0  0.79794764134E+01 -0.70570072770E+00 -0.20808136472E+01  0.82764631966E+01  0.51100000000E-03 0. -1.
        -11    1    4    4    0    0  0.13429163268E+01 -0.52124212759E+01  0.13001095803E+02  0.14071291773E+02  0.51100000000E-03 0.  1.
        -12    1    4    4    0    0 -0.20505957295E+02 -0.22786311604E+02  0.92480895745E+01  0.32019329192E+02  0.00000000000E+00 0.  1.
</event>
<event>
 8    1  0.2516265E-006  0.9118800E+02  0.7816164E-02  0.1184000E+00
        -11   -1    0    0    0    0  0.00000000000E+00  0.00000000000E+00  0.45593999997E+02  0.45594000000E+02  0.51100000000E-03 0.  1.
         11   -1    0    0    0    0 -0.00000000000E+00 -0.00000000000E+00 -0.45593999997E+02  0.45594000000E+02  0.51100000000E-03 0. -1.
         23    2    1    2    0    0  0.00000000000E+00 -0.88817841970E-15  0.00000000000E+00  0.91188000000E+02  0.91188000000E+02 0.  0.
    9900012    2    3    3    0    0  0.16377356190E+02  0.62036173470E+01 -0.32389456283E+02  0.54367088248E+02  0.40000009279E+02 0.  0.
        -12    1    3    3    0    0 -0.16377356190E+02 -0.62036173470E+01  0.32389456283E+02  0.36820911752E+02  0.00000000000E+00 0.  1.
         11    1    4    4    0    0 -0.13912884590E+01 -0.19574180086E+01 -0.12173981906E+02  0.12408585920E+02  0.51100000000E-03 0. -1.
        -11    1    4    4    0    0  0.22974509630E+02  0.44916180514E+01 -0.29978781944E+01  0.23600635571E+02  0.51100000000E-03 0.  1.
        -12    1    4    4    0    0 -0.52058649809E+01  0.36694173041E+01 -0.17217596183E+02  0.18357866757E+02  0.00000000000E+00 0.  1.
</event>
<event>
 8    1  0.2516265E-006  0.9118800E+02  0.7816164E-02  0.1184000E+00
        -11   -1    0    0    0    0  0.00000000000E+00  0.00000000000E+00  0.45593999997E+02  0.45594000000E+02  0.51100000000E-03 0. -1.
         11   -1    0    0    0    0 -0.00000000000E+00 -0.00000000000E+00 -0.45593999997E+02  0.45594000000E+02  0.51100000000E-03 0.  1.
         23    2    1    2    0    0 -0.35527136788E-14  0.35527136788E-14 -0.35527136788E-14  0.91188000000E+02  0.91188000000E+02 0.  0.
    9900012    2    3    3    0    0  0.18501817490E+02  0.27248864219E+02  0.16460919913E+02  0.54367085616E+02  0.40000003280E+02 0.  0.
        -12    1    3    3    0    0 -0.18501817490E+02 -0.27248864219E+02 -0.16460919913E+02  0.36820914384E+02  0.00000000000E+00 0.  1.
         11    1    4    4    0    0  0.51602316600E+00  0.34289784196E+01 -0.36663137261E+01  0.50463877684E+01  0.51100000000E-03 0.  1.
        -11    1    4    4    0    0  0.90436893518E+01  0.77859985383E+01 -0.89609795058E+01  0.14923446127E+02  0.51100000000E-03 0. -1.
         12    1    4    4    0    0  0.89421049723E+01  0.16033887261E+02  0.29088213145E+02  0.34397251721E+02  0.00000000000E+00 0. -1.
</event>
<event>
 8    1  0.2516265E-006  0.9118800E+02  0.7816164E-02  0.1184000E+00
        -11   -1    0    0    0    0  0.00000000000E+00  0.00000000000E+00  0.45593999997E+02  0.45594000000E+02  0.51100000000E-03 0.  1.
         11   -1    0    0    0    0 -0.00000000000E+00 -0.00000000000E+00 -0.45593999997E+02  0.45594000000E+02  0.51100000000E-03 0. -1.
         23    2    1    2    0    0  0.00000000000E+00  0.35527136788E-14 -0.44408920985E-15  0.91188000000E+02  0.91188000000E+02 0.  0.
    9900012    2    3    3    0    0 -0.23837144388E+02 -0.27844760492E+02  0.34985159925E+01  0.54367085378E+02  0.40000002736E+02 0.  0.
         12    1    3    3    0    0  0.23837144388E+02  0.27844760492E+02 -0.34985159925E+01  0.36820914622E+02  0.00000000000E+00 0. -1.
         11    1    4    4    0    0  0.95948834207E+01 -0.69998369862E+01 -0.10204216096E+01  0.11920602594E+02  0.51100000000E-03 0. -1.
        -11    1    4    4    0    0 -0.13000032137E+02 -0.13131722069E+02 -0.41686591915E+01  0.18942562651E+02  0.51100000000E-03 0.  1.
         12    1    4    4    0    0 -0.20431995672E+02 -0.77132014363E+01  0.86875967936E+01  0.23503920133E+02  0.00000000000E+00 0. -1.
</event>
<event>
 8    1  0.2516265E-006  0.9118800E+02  0.7816164E-02  0.1184000E+00
        -11   -1    0    0    0    0  0.00000000000E+00  0.00000000000E+00  0.45593999997E+02  0.45594000000E+02  0.51100000000E-03 0. -1.
         11   -1    0    0    0    0 -0.00000000000E+00 -0.00000000000E+00 -0.45593999997E+02  0.45594000000E+02  0.51100000000E-03 0.  1.
         23    2    1    2    0    0  0.00000000000E+00  0.88817841970E-15  0.00000000000E+00  0.91188000000E+02  0.91188000000E+02 0.  0.
    9900012    2    3    3    0    0  0.12382021729E+02  0.40990063775E+01 -0.34433464631E+02  0.54367084722E+02  0.40000001241E+02 0.  0.
         12    1    3    3    0    0 -0.12382021729E+02 -0.40990063775E+01  0.34433464631E+02  0.36820915278E+02  0.00000000000E+00 0. -1.
         11    1    4    4    0    0  0.17801246062E+02  0.10626359458E+02 -0.32644132615E+01  0.20987145373E+02  0.51100000000E-03 0. -1.
        -11    1    4    4    0    0 -0.18504046104E+01  0.10611068194E+01 -0.16610862735E+01  0.27035444833E+01  0.51100000000E-03 0.  1.
         12    1    4    4    0    0 -0.35688197224E+01 -0.75884598998E+01 -0.29507965096E+02  0.30676394866E+02  0.00000000000E+00 0. -1.
</event>
<event>
 8    1  0.2516265E-006  0.9118800E+02  0.7816164E-02  0.1184000E+00
        -11   -1    0    0    0    0  0.00000000000E+00  0.00000000000E+00  0.45593999997E+02  0.45594000000E+02  0.51100000000E-03 0. -1.
         11   -1    0    0    0    0 -0.00000000000E+00 -0.00000000000E+00 -0.45593999997E+02  0.45594000000E+02  0.51100000000E-03 0.  1.
         23    2    1    2    0    0 -0.13322676296E-14  0.35527136788E-14  0.00000000000E+00  0.91188000000E+02  0.91188000000E+02 0.  0.
    9900012    2    3    3    0    0  0.35883655223E+01 -0.31159489460E+02  0.19287021561E+02  0.54367090842E+02  0.40000015192E+02 0.  0.
        -12    1    3    3    0    0 -0.35883655223E+01  0.31159489460E+02 -0.19287021561E+02  0.36820909158E+02  0.00000000000E+00 0.  1.
         11    1    4    4    0    0  0.82128254767E+01 -0.65481538805E+01  0.16698211650E+02  0.19727115707E+02  0.51100000000E-03 0. -1.
        -11    1    4    4    0    0  0.89643972546E+01 -0.39319989083E+01  0.36329990583E+00  0.97955612721E+01  0.51100000000E-03 0.  1.
        -12    1    4    4    0    0 -0.13588857209E+02 -0.20679336671E+02  0.22255100057E+01  0.24844413863E+02  0.00000000000E+00 0.  1.
</event>
<event>
 8    1  0.2516265E-006  0.9118800E+02  0.7816164E-02  0.1184000E+00
        -11   -1    0    0    0    0  0.00000000000E+00  0.00000000000E+00  0.45593999997E+02  0.45594000000E+02  0.51100000000E-03 0.  1.
         11   -1    0    0    0    0 -0.00000000000E+00 -0.00000000000E+00 -0.45593999997E+02  0.45594000000E+02  0.51100000000E-03 0. -1.
         23    2    1    2    0    0  0.00000000000E+00  0.00000000000E+00 -0.35527136788E-14  0.91188000000E+02  0.91188000000E+02 0.  0.
    9900012    2    3    3    0    0  0.67263786640E+01 -0.29381212330E+02  0.21149022708E+02  0.54367068868E+02  0.39999965099E+02 0.  0.
         12    1    3    3    0    0 -0.67263786640E+01  0.29381212330E+02 -0.21149022708E+02  0.36820931132E+02  0.00000000000E+00 0. -1.
         11    1    4    4    0    0  0.50135235892E+01 -0.99016419353E+01  0.20183026557E+02  0.23033290973E+02  0.51100000000E-03 0.  1.
        -11    1    4    4    0    0 -0.41918266484E+00 -0.22621625112E+02  0.74493757984E+01  0.23820303039E+02  0.51100000000E-03 0. -1.
        -12    1    4    4    0    0  0.21320377396E+01  0.31420547180E+01 -0.64833796466E+01  0.75134748563E+01  0.00000000000E+00 0.  1.
</event>
<event>
 8    1  0.2516265E-006  0.9118800E+02  0.7816164E-02  0.1184000E+00
        -11   -1    0    0    0    0  0.00000000000E+00  0.00000000000E+00  0.45593999997E+02  0.45594000000E+02  0.51100000000E-03 0.  1.
         11   -1    0    0    0    0 -0.00000000000E+00 -0.00000000000E+00 -0.45593999997E+02  0.45594000000E+02  0.51100000000E-03 0. -1.
         23    2    1    2    0    0  0.00000000000E+00  0.71054273576E-14  0.17763568394E-14  0.91188000000E+02  0.91188000000E+02 0.  0.
    9900012    2    3    3    0    0  0.56009872599E+01 -0.33751601424E+02 -0.13610222074E+02  0.54367084722E+02  0.40000001241E+02 0.  0.
        -12    1    3    3    0    0 -0.56009872599E+01  0.33751601424E+02  0.13610222074E+02  0.36820915278E+02  0.00000000000E+00 0.  1.
         11    1    4    4    0    0 -0.85342579859E+01 -0.32743533581E+02 -0.53160792505E+01  0.34252492604E+02  0.51100000000E-03 0. -1.
        -11    1    4    4    0    0 -0.64714047338E+00  0.25555697377E+01 -0.30463458552E+01  0.40286413104E+01  0.51100000000E-03 0.  1.
        -12    1    4    4    0    0  0.14782385719E+02 -0.35636375812E+01 -0.52477969686E+01  0.16085950808E+02  0.00000000000E+00 0.  1.
</event>
<event>
 8    1  0.2516265E-006  0.9118800E+02  0.7816164E-02  0.1184000E+00
        -11   -1    0    0    0    0  0.00000000000E+00  0.00000000000E+00  0.45593999997E+02  0.45594000000E+02  0.51100000000E-03 0.  1.
         11   -1    0    0    0    0 -0.00000000000E+00 -0.00000000000E+00 -0.45593999997E+02  0.45594000000E+02  0.51100000000E-03 0. -1.
         23    2    1    2    0    0  0.35527136788E-14  0.00000000000E+00  0.00000000000E+00  0.91188000000E+02  0.91188000000E+02 0.  0.
    9900012    2    3    3    0    0  0.23840582151E+02  0.25834398505E+02  0.10954005187E+02  0.54367085657E+02  0.40000003373E+02 0.  0.
         12    1    3    3    0    0 -0.23840582151E+02 -0.25834398505E+02 -0.10954005187E+02  0.36820914343E+02  0.00000000000E+00 0. -1.
         11    1    4    4    0    0  0.87248736619E+01  0.14080908215E+02  0.36824378480E+01  0.16969258833E+02  0.51100000000E-03 0. -1.
        -11    1    4    4    0    0  0.20218734493E+02  0.13803197631E+02  0.14394198768E+02  0.28399268437E+02  0.51100000000E-03 0.  1.
         12    1    4    4    0    0 -0.51030260040E+01 -0.20497073405E+01 -0.71226314289E+01  0.89985583874E+01  0.00000000000E+00 0. -1.
</event>
<event>
 8    1  0.2516265E-006  0.9118800E+02  0.7816164E-02  0.1184000E+00
        -11   -1    0    0    0    0  0.00000000000E+00  0.00000000000E+00  0.45593999997E+02  0.45594000000E+02  0.51100000000E-03 0. -1.
         11   -1    0    0    0    0 -0.00000000000E+00 -0.00000000000E+00 -0.45593999997E+02  0.45594000000E+02  0.51100000000E-03 0.  1.
         23    2    1    2    0    0  0.00000000000E+00 -0.71054273576E-14  0.00000000000E+00  0.91188000000E+02  0.91188000000E+02 0.  0.
    9900012    2    3    3    0    0 -0.88549717596E+01  0.34159045187E+02  0.10513309439E+02  0.54367074315E+02  0.39999977516E+02 0.  0.
        -12    1    3    3    0    0  0.88549717596E+01 -0.34159045187E+02 -0.10513309439E+02  0.36820925685E+02  0.00000000000E+00 0.  1.
         11    1    4    4    0    0 -0.77626530971E+01  0.27158136094E+01  0.13173309167E+02  0.15529665203E+02  0.51100000000E-03 0. -1.
        -11    1    4    4    0    0  0.10695782064E+02  0.15753579844E+02 -0.61257240676E-01  0.19041501637E+02  0.51100000000E-03 0.  1.
        -12    1    4    4    0    0 -0.11788100726E+02  0.15689651733E+02 -0.25987424869E+01  0.19795907475E+02  0.00000000000E+00 0.  1.
</event>
<event>
 8    1  0.2516265E-006  0.9118800E+02  0.7816164E-02  0.1184000E+00
        -11   -1    0    0    0    0  0.00000000000E+00  0.00000000000E+00  0.45593999997E+02  0.45594000000E+02  0.51100000000E-03 0.  1.
         11   -1    0    0    0    0 -0.00000000000E+00 -0.00000000000E+00 -0.45593999997E+02  0.45594000000E+02  0.51100000000E-03 0. -1.
         23    2    1    2    0    0  0.17763568394E-14  0.00000000000E+00  0.00000000000E+00  0.91188000000E+02  0.91188000000E+02 0.  0.
    9900012    2    3    3    0    0 -0.13466256986E+02 -0.94296703757E+01  0.32947352857E+02  0.54366989410E+02  0.39999783957E+02 0.  0.
         12    1    3    3    0    0  0.13466256986E+02  0.94296703757E+01 -0.32947352857E+02  0.36821010590E+02  0.00000000000E+00 0. -1.
         11    1    4    4    0    0 -0.55357524508E+01 -0.10923773392E+02 -0.43283710904E+00  0.12254008673E+02  0.51100000000E-03 0. -1.
        -11    1    4    4    0    0 -0.10714925270E+02 -0.45372468952E+01  0.33505749159E+02  0.35468739193E+02  0.51100000000E-03 0.  1.
        -12    1    4    4    0    0  0.27844207356E+01  0.60313499118E+01 -0.12555919310E+00  0.66442415445E+01  0.00000000000E+00 0.  1.
</event>
<event>
 8    1  0.2516265E-006  0.9118800E+02  0.7816164E-02  0.1184000E+00
        -11   -1    0    0    0    0  0.00000000000E+00  0.00000000000E+00  0.45593999997E+02  0.45594000000E+02  0.51100000000E-03 0.  1.
         11   -1    0    0    0    0 -0.00000000000E+00 -0.00000000000E+00 -0.45593999997E+02  0.45594000000E+02  0.51100000000E-03 0. -1.
         23    2    1    2    0    0  0.00000000000E+00  0.00000000000E+00  0.00000000000E+00  0.91188000000E+02  0.91188000000E+02 0.  0.
    9900012    2    3    3    0    0 -0.31618886976E+02 -0.18056231490E+02 -0.54770722243E+01  0.54367084349E+02  0.40000000391E+02 0.  0.
        -12    1    3    3    0    0  0.31618886976E+02  0.18056231490E+02  0.54770722243E+01  0.36820915651E+02  0.00000000000E+00 0.  1.
         11    1    4    4    0    0 -0.15502736996E+02 -0.71018668594E+01 -0.44183356342E+01  0.17615137164E+02  0.51100000000E-03 0. -1.
        -11    1    4    4    0    0 -0.13047179398E+02  0.22741442636E+01 -0.13081139692E+02  0.18614962752E+02  0.51100000000E-03 0.  1.
         12    1    4    4    0    0 -0.30689705813E+01 -0.13228508894E+02  0.12022403102E+02  0.18136984433E+02  0.00000000000E+00 0. -1.
</event>
<event>
 8    1  0.2516265E-006  0.9118800E+02  0.7816164E-02  0.1184000E+00
        -11   -1    0    0    0    0  0.00000000000E+00  0.00000000000E+00  0.45593999997E+02  0.45594000000E+02  0.51100000000E-03 0. -1.
         11   -1    0    0    0    0 -0.00000000000E+00 -0.00000000000E+00 -0.45593999997E+02  0.45594000000E+02  0.51100000000E-03 0.  1.
         23    2    1    2    0    0  0.00000000000E+00 -0.88817841970E-15  0.00000000000E+00  0.91188000000E+02  0.91188000000E+02 0.  0.
    9900012    2    3    3    0    0  0.49627474666E+01 -0.21206401785E+01  0.36423263721E+02  0.54367080439E+02  0.39999991478E+02 0.  0.
        -12    1    3    3    0    0 -0.49627474666E+01  0.21206401785E+01 -0.36423263721E+02  0.36820919561E+02  0.00000000000E+00 0.  1.
         11    1    4    4    0    0  0.14546815628E+02 -0.83509708431E+01  0.65808127743E+01  0.18018203461E+02  0.51100000000E-03 0. -1.
        -11    1    4    4    0    0 -0.20461225492E+01 -0.60212938844E+01  0.86792577488E+01  0.10759745018E+02  0.51100000000E-03 0.  1.
        -12    1    4    4    0    0 -0.75379456117E+01  0.12251624549E+02  0.21163193198E+02  0.25589131960E+02  0.00000000000E+00 0.  1.
</event>
<event>
 8    1  0.2516265E-006  0.9118800E+02  0.7816164E-02  0.1184000E+00
        -11   -1    0    0    0    0  0.00000000000E+00  0.00000000000E+00  0.45593999997E+02  0.45594000000E+02  0.51100000000E-03 0.  1.
         11   -1    0    0    0    0 -0.00000000000E+00 -0.00000000000E+00 -0.45593999997E+02  0.45594000000E+02  0.51100000000E-03 0. -1.
         23    2    1    2    0    0  0.00000000000E+00  0.00000000000E+00  0.00000000000E+00  0.91188000000E+02  0.91188000000E+02 0.  0.
    9900012    2    3    3    0    0  0.36608062217E+02 -0.34070848313E+01 -0.20051719630E+01  0.54367093426E+02  0.40000021082E+02 0.  0.
         12    1    3    3    0    0 -0.36608062217E+02  0.34070848313E+01  0.20051719630E+01  0.36820906574E+02  0.00000000000E+00 0. -1.
         11    1    4    4    0    0 -0.71433441565E+00  0.99866104089E+00  0.72566240041E+00  0.14262481244E+01  0.51100000000E-03 0. -1.
        -11    1    4    4    0    0  0.44799817902E+02 -0.36849587382E+01 -0.97253161133E-02  0.44951114556E+02  0.51100000000E-03 0.  1.
        -12    1    4    4    0    0 -0.74774212694E+01 -0.72078713399E+00 -0.27211090473E+01  0.79897307451E+01  0.00000000000E+00 0.  1.
</event>
<event>
 8    1  0.2516265E-006  0.9118800E+02  0.7816164E-02  0.1184000E+00
        -11   -1    0    0    0    0  0.00000000000E+00  0.00000000000E+00  0.45593999997E+02  0.45594000000E+02  0.51100000000E-03 0.  1.
         11   -1    0    0    0    0 -0.00000000000E+00 -0.00000000000E+00 -0.45593999997E+02  0.45594000000E+02  0.51100000000E-03 0. -1.
         23    2    1    2    0    0  0.00000000000E+00 -0.17763568394E-14  0.35527136788E-14  0.91188000000E+02  0.91188000000E+02 0.  0.
    9900012    2    3    3    0    0  0.99584262240E+01  0.15540189615E+02 -0.31860852363E+02  0.54367059499E+02  0.39999943739E+02 0.  0.
        -12    1    3    3    0    0 -0.99584262240E+01 -0.15540189615E+02  0.31860852363E+02  0.36820940501E+02  0.00000000000E+00 0.  1.
         11    1    4    4    0    0 -0.11024301005E+02  0.10732070202E+02 -0.11480225987E+02  0.19196565642E+02  0.51100000000E-03 0. -1.
        -11    1    4    4    0    0  0.87951025650E+01  0.92975741994E+01 -0.24512280404E+01  0.13031010486E+02  0.51100000000E-03 0.  1.
         12    1    4    4    0    0  0.12187624664E+02 -0.44894547873E+01 -0.17929398335E+02  0.22139483370E+02  0.00000000000E+00 0. -1.
</event>
<event>
 8    1  0.2516265E-006  0.9118800E+02  0.7816164E-02  0.1184000E+00
        -11   -1    0    0    0    0  0.00000000000E+00  0.00000000000E+00  0.45593999997E+02  0.45594000000E+02  0.51100000000E-03 0. -1.
         11   -1    0    0    0    0 -0.00000000000E+00 -0.00000000000E+00 -0.45593999997E+02  0.45594000000E+02  0.51100000000E-03 0.  1.
         23    2    1    2    0    0  0.17763568394E-14  0.71054273576E-14 -0.17763568394E-14  0.91188000000E+02  0.91188000000E+02 0.  0.
    9900012    2    3    3    0    0 -0.84125593999E+01 -0.34053976542E+02  0.11195376333E+02  0.54367069469E+02  0.39999966468E+02 0.  0.
        -12    1    3    3    0    0  0.84125593999E+01  0.34053976542E+02 -0.11195376333E+02  0.36820930531E+02  0.00000000000E+00 0.  1.
         11    1    4    4    0    0 -0.75140916022E+01 -0.31561930277E+02  0.18713249012E+02  0.37454007853E+02  0.51100000000E-03 0. -1.
        -11    1    4    4    0    0 -0.16501611029E+01 -0.30560624948E+01  0.40339412533E+01  0.53230848137E+01  0.51100000000E-03 0.  1.
        -12    1    4    4    0    0  0.75169330521E+00  0.56401622965E+00 -0.11551813933E+02  0.11589976802E+02  0.00000000000E+00 0.  1.
</event>
<event>
 8    1  0.2516265E-006  0.9118800E+02  0.7816164E-02  0.1184000E+00
        -11   -1    0    0    0    0  0.00000000000E+00  0.00000000000E+00  0.45593999997E+02  0.45594000000E+02  0.51100000000E-03 0.  1.
         11   -1    0    0    0    0 -0.00000000000E+00 -0.00000000000E+00 -0.45593999997E+02  0.45594000000E+02  0.51100000000E-03 0. -1.
         23    2    1    2    0    0  0.00000000000E+00  0.00000000000E+00  0.00000000000E+00  0.91188000000E+02  0.91188000000E+02 0.  0.
    9900012    2    3    3    0    0  0.97030009616E+01  0.14237917537E+02  0.32540952483E+02  0.54367080512E+02  0.39999991643E+02 0.  0.
         12    1    3    3    0    0 -0.97030009616E+01 -0.14237917537E+02 -0.32540952483E+02  0.36820919488E+02  0.00000000000E+00 0. -1.
         11    1    4    4    0    0  0.73915521233E+00 -0.69625697536E+00 -0.51989049689E+01  0.52971442627E+01  0.51100000000E-03 0. -1.
        -11    1    4    4    0    0 -0.46134978504E+01  0.12670884466E+02  0.30868811013E+02  0.33685592902E+02  0.51100000000E-03 0.  1.
        -12    1    4    4    0    0  0.13577343600E+02  0.22632900464E+01  0.68710464386E+01  0.15384343347E+02  0.00000000000E+00 0.  1.
</event>
<event>
 8    1  0.2516265E-006  0.9118800E+02  0.7816164E-02  0.1184000E+00
        -11   -1    0    0    0    0  0.00000000000E+00  0.00000000000E+00  0.45593999997E+02  0.45594000000E+02  0.51100000000E-03 0. -1.
         11   -1    0    0    0    0 -0.00000000000E+00 -0.00000000000E+00 -0.45593999997E+02  0.45594000000E+02  0.51100000000E-03 0.  1.
         23    2    1    2    0    0  0.00000000000E+00  0.17763568394E-14  0.17763568394E-14  0.91188000000E+02  0.91188000000E+02 0.  0.
    9900012    2    3    3    0    0  0.34626193126E+02 -0.11936314965E+02 -0.37863446050E+01  0.54367010459E+02  0.39999831942E+02 0.  0.
         12    1    3    3    0    0 -0.34626193126E+02  0.11936314965E+02  0.37863446050E+01  0.36820989541E+02  0.00000000000E+00 0. -1.
         11    1    4    4    0    0  0.18287794825E+02 -0.22726262985E+01  0.14376559236E+02  0.23372927194E+02  0.51100000000E-03 0. -1.
        -11    1    4    4    0    0  0.12862092258E+02 -0.12322203597E+02 -0.19507201786E+02  0.26415923995E+02  0.51100000000E-03 0.  1.
        -12    1    4    4    0    0  0.34763060427E+01  0.26585149302E+01  0.13442979445E+01  0.45781592699E+01  0.00000000000E+00 0.  1.
</event>
<event>
 8    1  0.2516265E-006  0.9118800E+02  0.7816164E-02  0.1184000E+00
        -11   -1    0    0    0    0  0.00000000000E+00  0.00000000000E+00  0.45593999997E+02  0.45594000000E+02  0.51100000000E-03 0.  1.
         11   -1    0    0    0    0 -0.00000000000E+00 -0.00000000000E+00 -0.45593999997E+02  0.45594000000E+02  0.51100000000E-03 0. -1.
         23    2    1    2    0    0  0.24424906542E-14 -0.17763568394E-14  0.00000000000E+00  0.91188000000E+02  0.91188000000E+02 0.  0.
    9900012    2    3    3    0    0 -0.19403013101E+01 -0.98593765846E+01  0.35423226601E+02  0.54367121973E+02  0.40000086162E+02 0.  0.
         12    1    3    3    0    0  0.19403013101E+01  0.98593765846E+01 -0.35423226601E+02  0.36820878027E+02  0.00000000000E+00 0. -1.
         11    1    4    4    0    0  0.10454220777E+02  0.15248718833E+01  0.49510268562E+01  0.11667417603E+02  0.51100000000E-03 0. -1.
        -11    1    4    4    0    0  0.51568087664E+01 -0.61134380147E+01  0.10911459417E+01  0.80720134254E+01  0.51100000000E-03 0.  1.
        -12    1    4    4    0    0 -0.17551330854E+02 -0.52708104532E+01  0.29381053804E+02  0.34627690945E+02  0.00000000000E+00 0.  1.
</event>
<event>
 8    1  0.2516265E-006  0.9118800E+02  0.7816164E-02  0.1184000E+00
        -11   -1    0    0    0    0  0.00000000000E+00  0.00000000000E+00  0.45593999997E+02  0.45594000000E+02  0.51100000000E-03 0.  1.
         11   -1    0    0    0    0 -0.00000000000E+00 -0.00000000000E+00 -0.45593999997E+02  0.45594000000E+02  0.51100000000E-03 0. -1.
         23    2    1    2    0    0  0.22204460493E-14  0.00000000000E+00  0.00000000000E+00  0.91188000000E+02  0.91188000000E+02 0.  0.
    9900012    2    3    3    0    0 -0.32942991197E+01 -0.28486931138E+02  0.23095934369E+02  0.54367084249E+02  0.40000000163E+02 0.  0.
         12    1    3    3    0    0  0.32942991197E+01  0.28486931138E+02 -0.23095934369E+02  0.36820915751E+02  0.00000000000E+00 0. -1.
         11    1    4    4    0    0  0.87230876931E+01 -0.11269094225E+02  0.14083611535E+01  0.14320203384E+02  0.51100000000E-03 0. -1.
        -11    1    4    4    0    0 -0.19001582012E+02 -0.57737142617E+01  0.15916566896E+02  0.25450599155E+02  0.51100000000E-03 0.  1.
        -12    1    4    4    0    0  0.69841951988E+01 -0.11444122652E+02  0.57710063194E+01  0.14596281711E+02  0.00000000000E+00 0.  1.
</event>
<event>
 8    1  0.2516265E-006  0.9118800E+02  0.7816164E-02  0.1184000E+00
        -11   -1    0    0    0    0  0.00000000000E+00  0.00000000000E+00  0.45593999997E+02  0.45594000000E+02  0.51100000000E-03 0.  1.
         11   -1    0    0    0    0 -0.00000000000E+00 -0.00000000000E+00 -0.45593999997E+02  0.45594000000E+02  0.51100000000E-03 0. -1.
         23    2    1    2    0    0  0.35527136788E-14 -0.35527136788E-14  0.00000000000E+00  0.91188000000E+02  0.91188000000E+02 0.  0.
    9900012    2    3    3    0    0  0.25710630211E+02 -0.23370949897E+02 -0.12187735508E+02  0.54367099661E+02  0.40000035297E+02 0.  0.
        -12    1    3    3    0    0 -0.25710630211E+02  0.23370949897E+02  0.12187735508E+02  0.36820900339E+02  0.00000000000E+00 0.  1.
         11    1    4    4    0    0  0.14414797970E+02 -0.39695243556E+01 -0.70122291520E+01  0.16514081327E+02  0.51100000000E-03 0. -1.
        -11    1    4    4    0    0  0.20431709673E+02 -0.90923129012E+01 -0.80746198694E+01  0.23776551482E+02  0.51100000000E-03 0.  1.
        -12    1    4    4    0    0 -0.91358774320E+01 -0.10309112640E+02  0.28991135132E+01  0.14076466852E+02  0.00000000000E+00 0.  1.
</event>
<event>
 8    1  0.2516265E-006  0.9118800E+02  0.7816164E-02  0.1184000E+00
        -11   -1    0    0    0    0  0.00000000000E+00  0.00000000000E+00  0.45593999997E+02  0.45594000000E+02  0.51100000000E-03 0.  1.
         11   -1    0    0    0    0 -0.00000000000E+00 -0.00000000000E+00 -0.45593999997E+02  0.45594000000E+02  0.51100000000E-03 0. -1.
         23    2    1    2    0    0 -0.71054273576E-14  0.26645352591E-14  0.00000000000E+00  0.91188000000E+02  0.91188000000E+02 0.  0.
    9900012    2    3    3    0    0  0.33446804292E+02 -0.66619751419E+01 -0.13881997746E+02  0.54367075357E+02  0.39999979891E+02 0.  0.
        -12    1    3    3    0    0 -0.33446804292E+02  0.66619751419E+01  0.13881997746E+02  0.36820924643E+02  0.00000000000E+00 0.  1.
         11    1    4    4    0    0  0.10283292090E+01  0.47014034608E+01 -0.99462751917E+01  0.11049391201E+02  0.51100000000E-03 0. -1.
        -11    1    4    4    0    0 -0.32693621218E+00  0.52479327395E+01 -0.39887514454E+01  0.65998351251E+01  0.51100000000E-03 0.  1.
        -12    1    4    4    0    0  0.32745411295E+02 -0.16611311342E+02  0.53028890627E-01  0.36717849031E+02  0.00000000000E+00 0.  1.
</event>
<event>
 8    1  0.2516265E-006  0.9118800E+02  0.7816164E-02  0.1184000E+00
        -11   -1    0    0    0    0  0.00000000000E+00  0.00000000000E+00  0.45593999997E+02  0.45594000000E+02  0.51100000000E-03 0.  1.
         11   -1    0    0    0    0 -0.00000000000E+00 -0.00000000000E+00 -0.45593999997E+02  0.45594000000E+02  0.51100000000E-03 0. -1.
         23    2    1    2    0    0  0.00000000000E+00  0.00000000000E+00  0.00000000000E+00  0.91188000000E+02  0.91188000000E+02 0.  0.
    9900012    2    3    3    0    0  0.11823721672E+02  0.34603668903E+02  0.43087189316E+01  0.54367090797E+02  0.40000015090E+02 0.  0.
         12    1    3    3    0    0 -0.11823721672E+02 -0.34603668903E+02 -0.43087189316E+01  0.36820909203E+02  0.00000000000E+00 0. -1.
         11    1    4    4    0    0 -0.45058019586E+01  0.81800605867E+01 -0.47254075136E+01  0.10466380412E+02  0.51100000000E-03 0. -1.
        -11    1    4    4    0    0  0.13275433739E+02  0.29634632263E+02 -0.14643411035E+01  0.32505274425E+02  0.51100000000E-03 0.  1.
         12    1    4    4    0    0  0.30540898909E+01 -0.32110239468E+01  0.10498467549E+02  0.11395435960E+02  0.00000000000E+00 0. -1.
</event>
<event>
 8    1  0.2516265E-006  0.9118800E+02  0.7816164E-02  0.1184000E+00
        -11   -1    0    0    0    0  0.00000000000E+00  0.00000000000E+00  0.45593999997E+02  0.45594000000E+02  0.51100000000E-03 0.  1.
         11   -1    0    0    0    0 -0.00000000000E+00 -0.00000000000E+00 -0.45593999997E+02  0.45594000000E+02  0.51100000000E-03 0. -1.
         23    2    1    2    0    0  0.00000000000E+00  0.00000000000E+00  0.71054273576E-14  0.91188000000E+02  0.91188000000E+02 0.  0.
    9900012    2    3    3    0    0  0.53699911181E+01  0.62441648352E+01 -0.35888068155E+02  0.54367084273E+02  0.40000000217E+02 0.  0.
        -12    1    3    3    0    0 -0.53699911181E+01 -0.62441648352E+01  0.35888068155E+02  0.36820915727E+02  0.00000000000E+00 0.  1.
         11    1    4    4    0    0  0.94939218917E+01  0.10688519355E+02 -0.37566325630E+01  0.14781450787E+02  0.51100000000E-03 0. -1.
        -11    1    4    4    0    0  0.23683792504E+01 -0.11035111809E+02 -0.82655223784E+01  0.13989344994E+02  0.51100000000E-03 0.  1.
         12    1    4    4    0    0 -0.64923100240E+01  0.65907572891E+01 -0.23865913213E+02  0.25596288493E+02  0.00000000000E+00 0. -1.
</event>
<event>
 8    1  0.2516265E-006  0.9118800E+02  0.7816164E-02  0.1184000E+00
        -11   -1    0    0    0    0  0.00000000000E+00  0.00000000000E+00  0.45593999997E+02  0.45594000000E+02  0.51100000000E-03 0.  1.
         11   -1    0    0    0    0 -0.00000000000E+00 -0.00000000000E+00 -0.45593999997E+02  0.45594000000E+02  0.51100000000E-03 0. -1.
         23    2    1    2    0    0  0.35527136788E-14 -0.17763568394E-14  0.00000000000E+00  0.91188000000E+02  0.91188000000E+02 0.  0.
    9900012    2    3    3    0    0  0.27519489796E+02 -0.15440830986E+02  0.18974664006E+02  0.54367089442E+02  0.40000012002E+02 0.  0.
        -12    1    3    3    0    0 -0.27519489796E+02  0.15440830986E+02 -0.18974664006E+02  0.36820910558E+02  0.00000000000E+00 0.  1.
         11    1    4    4    0    0  0.12863140334E+02 -0.24147970325E+01  0.22142714603E+02  0.25721419755E+02  0.51100000000E-03 0. -1.
        -11    1    4    4    0    0 -0.59925782613E+00 -0.12563891468E+02  0.15431647134E+01  0.12672483433E+02  0.51100000000E-03 0.  1.
         12    1    4    4    0    0  0.15255607288E+02 -0.46214248508E+00 -0.47112153108E+01  0.15973186254E+02  0.00000000000E+00 0. -1.
</event>
<event>
 8    1  0.2516265E-006  0.9118800E+02  0.7816164E-02  0.1184000E+00
        -11   -1    0    0    0    0  0.00000000000E+00  0.00000000000E+00  0.45593999997E+02  0.45594000000E+02  0.51100000000E-03 0.  1.
         11   -1    0    0    0    0 -0.00000000000E+00 -0.00000000000E+00 -0.45593999997E+02  0.45594000000E+02  0.51100000000E-03 0. -1.
         23    2    1    2    0    0  0.88817841970E-15  0.00000000000E+00  0.00000000000E+00  0.91188000000E+02  0.91188000000E+02 0.  0.
    9900012    2    3    3    0    0 -0.51923638093E+01 -0.31856733852E+02  0.17719102444E+02  0.54367099345E+02  0.40000034578E+02 0.  0.
         12    1    3    3    0    0  0.51923638093E+01  0.31856733852E+02 -0.17719102444E+02  0.36820900655E+02  0.00000000000E+00 0. -1.
         11    1    4    4    0    0  0.12021511555E+02 -0.22412555390E+02  0.55171986653E+01  0.26024581851E+02  0.51100000000E-03 0. -1.
        -11    1    4    4    0    0 -0.16487867686E+02 -0.43954423165E+00  0.87557566224E+01  0.18673678113E+02  0.51100000000E-03 0.  1.
        -12    1    4    4    0    0 -0.72600767826E+00 -0.90046342302E+01  0.34461471558E+01  0.96688393817E+01  0.00000000000E+00 0.  1.
</event>
<event>
 8    1  0.2516265E-006  0.9118800E+02  0.7816164E-02  0.1184000E+00
        -11   -1    0    0    0    0  0.00000000000E+00  0.00000000000E+00  0.45593999997E+02  0.45594000000E+02  0.51100000000E-03 0.  1.
         11   -1    0    0    0    0 -0.00000000000E+00 -0.00000000000E+00 -0.45593999997E+02  0.45594000000E+02  0.51100000000E-03 0. -1.
         23    2    1    2    0    0  0.35527136788E-14 -0.88817841970E-15  0.00000000000E+00  0.91188000000E+02  0.91188000000E+02 0.  0.
    9900012    2    3    3    0    0  0.31328925253E+02 -0.25403078489E+01 -0.19178762416E+02  0.54367086795E+02  0.40000005966E+02 0.  0.
         12    1    3    3    0    0 -0.31328925253E+02  0.25403078489E+01  0.19178762416E+02  0.36820913205E+02  0.00000000000E+00 0. -1.
         11    1    4    4    0    0  0.18622196481E+02  0.10924600975E+02 -0.12799716225E+02  0.25099120381E+02  0.51100000000E-03 0. -1.
        -11    1    4    4    0    0  0.14436204975E+02 -0.36897007813E+01  0.34539679087E+01  0.15295352252E+02  0.51100000000E-03 0.  1.
        -12    1    4    4    0    0 -0.17294762026E+01 -0.97752080429E+01 -0.98330140999E+01  0.13972614161E+02  0.00000000000E+00 0.  1.
</event>
<event>
 8    1  0.2516265E-006  0.9118800E+02  0.7816164E-02  0.1184000E+00
        -11   -1    0    0    0    0  0.00000000000E+00  0.00000000000E+00  0.45593999997E+02  0.45594000000E+02  0.51100000000E-03 0.  1.
         11   -1    0    0    0    0 -0.00000000000E+00 -0.00000000000E+00 -0.45593999997E+02  0.45594000000E+02  0.51100000000E-03 0. -1.
         23    2    1    2    0    0 -0.35527136788E-14  0.35527136788E-14  0.00000000000E+00  0.91188000000E+02  0.91188000000E+02 0.  0.
    9900012    2    3    3    0    0 -0.18542970851E+02  0.25953986815E+02  0.18393745718E+02  0.54367067352E+02  0.39999961642E+02 0.  0.
         12    1    3    3    0    0  0.18542970851E+02 -0.25953986815E+02 -0.18393745718E+02  0.36820932648E+02  0.00000000000E+00 0. -1.
         11    1    4    4    0    0 -0.12617251503E+02 -0.59434179605E+01  0.11237147231E+02  0.17910687610E+02  0.51100000000E-03 0. -1.
        -11    1    4    4    0    0 -0.11966150162E+01  0.17457048216E+02  0.11145973522E+02  0.20746400795E+02  0.51100000000E-03 0.  1.
         12    1    4    4    0    0 -0.47291043319E+01  0.14440356559E+02 -0.39893750354E+01  0.15709978947E+02  0.00000000000E+00 0. -1.
</event>
<event>
 8    1  0.2516265E-006  0.9118800E+02  0.7816164E-02  0.1184000E+00
        -11   -1    0    0    0    0  0.00000000000E+00  0.00000000000E+00  0.45593999997E+02  0.45594000000E+02  0.51100000000E-03 0. -1.
         11   -1    0    0    0    0 -0.00000000000E+00 -0.00000000000E+00 -0.45593999997E+02  0.45594000000E+02  0.51100000000E-03 0.  1.
         23    2    1    2    0    0  0.35527136788E-14 -0.17763568394E-14 -0.71054273576E-14  0.91188000000E+02  0.91188000000E+02 0.  0.
    9900012    2    3    3    0    0  0.11220596160E+02 -0.78738370442E+01 -0.34174275777E+02  0.54367079142E+02  0.39999988520E+02 0.  0.
         12    1    3    3    0    0 -0.11220596160E+02  0.78738370442E+01  0.34174275777E+02  0.36820920858E+02  0.00000000000E+00 0. -1.
         11    1    4    4    0    0 -0.15821583389E+01  0.16529292034E+01 -0.27586278713E+01  0.35840518905E+01  0.51100000000E-03 0. -1.
        -11    1    4    4    0    0 -0.48710371205E+01  0.11377706836E+02 -0.77969665484E+01  0.14627778474E+02  0.51100000000E-03 0.  1.
         12    1    4    4    0    0  0.17673791619E+02 -0.20904473083E+02 -0.23618681357E+02  0.36155248777E+02  0.00000000000E+00 0. -1.
</event>
<event>
 8    1  0.2516265E-006  0.9118800E+02  0.7816164E-02  0.1184000E+00
        -11   -1    0    0    0    0  0.00000000000E+00  0.00000000000E+00  0.45593999997E+02  0.45594000000E+02  0.51100000000E-03 0. -1.
         11   -1    0    0    0    0 -0.00000000000E+00 -0.00000000000E+00 -0.45593999997E+02  0.45594000000E+02  0.51100000000E-03 0.  1.
         23    2    1    2    0    0  0.00000000000E+00  0.00000000000E+00 -0.17763568394E-14  0.91188000000E+02  0.91188000000E+02 0.  0.
    9900012    2    3    3    0    0  0.10699877616E+02  0.32741699898E+02 -0.13010538834E+02  0.54367076411E+02  0.39999982294E+02 0.  0.
         12    1    3    3    0    0 -0.10699877616E+02 -0.32741699898E+02  0.13010538834E+02  0.36820923589E+02  0.00000000000E+00 0. -1.
         11    1    4    4    0    0 -0.41588253305E+00  0.45907188912E+01  0.64935766133E+01  0.79633030655E+01  0.51100000000E-03 0. -1.
        -11    1    4    4    0    0  0.20579309518E+02  0.14521295576E+02 -0.14548036221E+02  0.29086446390E+02  0.51100000000E-03 0.  1.
        -12    1    4    4    0    0 -0.94635493688E+01  0.13629685431E+02 -0.49560792262E+01  0.17317326956E+02  0.00000000000E+00 0.  1.
</event>
<event>
 8    1  0.2516265E-006  0.9118800E+02  0.7816164E-02  0.1184000E+00
        -11   -1    0    0    0    0  0.00000000000E+00  0.00000000000E+00  0.45593999997E+02  0.45594000000E+02  0.51100000000E-03 0. -1.
         11   -1    0    0    0    0 -0.00000000000E+00 -0.00000000000E+00 -0.45593999997E+02  0.45594000000E+02  0.51100000000E-03 0.  1.
         23    2    1    2    0    0  0.17763568394E-14  0.35527136788E-14  0.00000000000E+00  0.91188000000E+02  0.91188000000E+02 0.  0.
    9900012    2    3    3    0    0  0.14059712561E+02  0.31299231246E+02  0.13358970855E+02  0.54367088873E+02  0.40000010704E+02 0.  0.
        -12    1    3    3    0    0 -0.14059712561E+02 -0.31299231246E+02 -0.13358970855E+02  0.36820911127E+02  0.00000000000E+00 0.  1.
         11    1    4    4    0    0  0.21064133610E+02  0.21100837127E+02  0.11196222275E+02  0.31848052463E+02  0.51100000000E-03 0. -1.
        -11    1    4    4    0    0 -0.10885932897E+02  0.10745999323E+02 -0.34425961814E+01  0.15679014803E+02  0.51100000000E-03 0.  1.
        -12    1    4    4    0    0  0.38815118482E+01 -0.54760520290E+00  0.56053447614E+01  0.68400216067E+01  0.00000000000E+00 0.  1.
</event>
<event>
 8    1  0.2516265E-006  0.9118800E+02  0.7816164E-02  0.1184000E+00
        -11   -1    0    0    0    0  0.00000000000E+00  0.00000000000E+00  0.45593999997E+02  0.45594000000E+02  0.51100000000E-03 0. -1.
         11   -1    0    0    0    0 -0.00000000000E+00 -0.00000000000E+00 -0.45593999997E+02  0.45594000000E+02  0.51100000000E-03 0.  1.
         23    2    1    2    0    0  0.35527136788E-14  0.00000000000E+00  0.00000000000E+00  0.91188000000E+02  0.91188000000E+02 0.  0.
    9900012    2    3    3    0    0 -0.28081380303E+02 -0.16823913192E+02  0.16857806228E+02  0.54366897278E+02  0.39999573922E+02 0.  0.
        -12    1    3    3    0    0  0.28081380303E+02  0.16823913192E+02 -0.16857806228E+02  0.36821102722E+02  0.00000000000E+00 0.  1.
         11    1    4    4    0    0  0.45573786862E+00 -0.22715273642E+01  0.88497848523E+01  0.91480175866E+01  0.51100000000E-03 0. -1.
        -11    1    4    4    0    0 -0.34849564683E+02 -0.13413449720E+02  0.97078615391E+01  0.38583096920E+02  0.51100000000E-03 0.  1.
        -12    1    4    4    0    0  0.63124465110E+01 -0.11389361079E+01 -0.16998401635E+01  0.66357827717E+01  0.00000000000E+00 0.  1.
</event>
<event>
 8    1  0.2516265E-006  0.9118800E+02  0.7816164E-02  0.1184000E+00
        -11   -1    0    0    0    0  0.00000000000E+00  0.00000000000E+00  0.45593999997E+02  0.45594000000E+02  0.51100000000E-03 0.  1.
         11   -1    0    0    0    0 -0.00000000000E+00 -0.00000000000E+00 -0.45593999997E+02  0.45594000000E+02  0.51100000000E-03 0. -1.
         23    2    1    2    0    0  0.00000000000E+00 -0.13322676296E-14  0.00000000000E+00  0.91188000000E+02  0.91188000000E+02 0.  0.
    9900012    2    3    3    0    0 -0.32340405217E+02  0.20065743949E+01 -0.17488628669E+02  0.54367078188E+02  0.39999986345E+02 0.  0.
        -12    1    3    3    0    0  0.32340405217E+02 -0.20065743949E+01  0.17488628669E+02  0.36820921812E+02  0.00000000000E+00 0.  1.
         11    1    4    4    0    0 -0.11244065237E+02  0.14099476222E+02  0.56507799549E+01  0.18898559394E+02  0.51100000000E-03 0.  1.
        -11    1    4    4    0    0 -0.87579296537E+01 -0.58987061664E+01 -0.28669579331E+01  0.10941458509E+02  0.51100000000E-03 0. -1.
        -12    1    4    4    0    0 -0.12338410326E+02 -0.61941956607E+01 -0.20272450690E+02  0.24527060285E+02  0.00000000000E+00 0.  1.
</event>
<event>
 8    1  0.2516265E-006  0.9118800E+02  0.7816164E-02  0.1184000E+00
        -11   -1    0    0    0    0  0.00000000000E+00  0.00000000000E+00  0.45593999997E+02  0.45594000000E+02  0.51100000000E-03 0.  1.
         11   -1    0    0    0    0 -0.00000000000E+00 -0.00000000000E+00 -0.45593999997E+02  0.45594000000E+02  0.51100000000E-03 0. -1.
         23    2    1    2    0    0 -0.88817841970E-15  0.00000000000E+00  0.00000000000E+00  0.91188000000E+02  0.91188000000E+02 0.  0.
    9900012    2    3    3    0    0  0.74910331248E+01 -0.28903795818E+02 -0.21546097347E+02  0.54367091526E+02  0.40000016752E+02 0.  0.
        -12    1    3    3    0    0 -0.74910331248E+01  0.28903795818E+02  0.21546097347E+02  0.36820908474E+02  0.00000000000E+00 0.  1.
         11    1    4    4    0    0 -0.11401515612E+01 -0.16942951834E+02 -0.26062527371E+01  0.17180108149E+02  0.51100000000E-03 0. -1.
        -11    1    4    4    0    0  0.85799420462E+00 -0.14043196386E+02 -0.23900112412E+02  0.27733786116E+02  0.51100000000E-03 0.  1.
        -12    1    4    4    0    0  0.77731904813E+01  0.20823524024E+01  0.49602678014E+01  0.94531972606E+01  0.00000000000E+00 0.  1.
</event>
<event>
 8    1  0.2516265E-006  0.9118800E+02  0.7816164E-02  0.1184000E+00
        -11   -1    0    0    0    0  0.00000000000E+00  0.00000000000E+00  0.45593999997E+02  0.45594000000E+02  0.51100000000E-03 0. -1.
         11   -1    0    0    0    0 -0.00000000000E+00 -0.00000000000E+00 -0.45593999997E+02  0.45594000000E+02  0.51100000000E-03 0.  1.
         23    2    1    2    0    0  0.22204460493E-15  0.71054273576E-14 -0.17763568394E-14  0.91188000000E+02  0.91188000000E+02 0.  0.
    9900012    2    3    3    0    0  0.17835626260E+01 -0.36709354588E+02  0.22408668822E+01  0.54367091615E+02  0.40000016954E+02 0.  0.
         12    1    3    3    0    0 -0.17835626260E+01  0.36709354588E+02 -0.22408668822E+01  0.36820908385E+02  0.00000000000E+00 0. -1.
         11    1    4    4    0    0  0.37834241770E+01 -0.31760037806E+02  0.56287128734E+01  0.32476094421E+02  0.51100000000E-03 0. -1.
        -11    1    4    4    0    0  0.36269021394E+01 -0.36722785280E+00 -0.10871808724E+02  0.11466712721E+02  0.51100000000E-03 0.  1.
        -12    1    4    4    0    0 -0.56267636905E+01 -0.45820889293E+01  0.74839627330E+01  0.10424284473E+02  0.00000000000E+00 0.  1.
</event>
<event>
 8    1  0.2516265E-006  0.9118800E+02  0.7816164E-02  0.1184000E+00
        -11   -1    0    0    0    0  0.00000000000E+00  0.00000000000E+00  0.45593999997E+02  0.45594000000E+02  0.51100000000E-03 0.  1.
         11   -1    0    0    0    0 -0.00000000000E+00 -0.00000000000E+00 -0.45593999997E+02  0.45594000000E+02  0.51100000000E-03 0. -1.
         23    2    1    2    0    0 -0.24424906542E-14  0.17763568394E-14  0.00000000000E+00  0.91188000000E+02  0.91188000000E+02 0.  0.
    9900012    2    3    3    0    0 -0.11259340312E+01  0.22098627108E+01  0.36737308365E+02  0.54367067821E+02  0.39999962711E+02 0.  0.
         12    1    3    3    0    0  0.11259340312E+01 -0.22098627108E+01 -0.36737308365E+02  0.36820932179E+02  0.00000000000E+00 0. -1.
         11    1    4    4    0    0  0.11059721394E+02 -0.98854659399E+01  0.27941196534E+02  0.31634638265E+02  0.51100000000E-03 0. -1.
        -11    1    4    4    0    0 -0.63485087514E+01  0.13533904179E+02  0.63711500907E+01  0.16249974751E+02  0.51100000000E-03 0.  1.
         12    1    4    4    0    0 -0.58371466741E+01 -0.14385755280E+01  0.24249617401E+01  0.64824548040E+01  0.00000000000E+00 0. -1.
</event>
<event>
 8    1  0.2516265E-006  0.9118800E+02  0.7816164E-02  0.1184000E+00
        -11   -1    0    0    0    0  0.00000000000E+00  0.00000000000E+00  0.45593999997E+02  0.45594000000E+02  0.51100000000E-03 0.  1.
         11   -1    0    0    0    0 -0.00000000000E+00 -0.00000000000E+00 -0.45593999997E+02  0.45594000000E+02  0.51100000000E-03 0. -1.
         23    2    1    2    0    0 -0.35527136788E-14 -0.17763568394E-14  0.35527136788E-14  0.91188000000E+02  0.91188000000E+02 0.  0.
    9900012    2    3    3    0    0 -0.29313547425E+02 -0.15632417741E+02  0.15878377764E+02  0.54367089806E+02  0.40000012831E+02 0.  0.
         12    1    3    3    0    0  0.29313547425E+02  0.15632417741E+02 -0.15878377764E+02  0.36820910194E+02  0.00000000000E+00 0. -1.
         11    1    4    4    0    0 -0.13546777573E+02  0.67302977846E+01  0.86441941089E+01  0.17422232432E+02  0.51100000000E-03 0. -1.
        -11    1    4    4    0    0  0.31022581972E+01  0.22517030828E+01 -0.23338228675E+01  0.44878616437E+01  0.51100000000E-03 0.  1.
        -12    1    4    4    0    0 -0.18869028050E+02 -0.24614418609E+02  0.95680065226E+01  0.32456995730E+02  0.00000000000E+00 0.  1.
</event>
<event>
 8    1  0.2516265E-006  0.9118800E+02  0.7816164E-02  0.1184000E+00
        -11   -1    0    0    0    0  0.00000000000E+00  0.00000000000E+00  0.45593999997E+02  0.45594000000E+02  0.51100000000E-03 0.  1.
         11   -1    0    0    0    0 -0.00000000000E+00 -0.00000000000E+00 -0.45593999997E+02  0.45594000000E+02  0.51100000000E-03 0. -1.
         23    2    1    2    0    0  0.00000000000E+00 -0.35527136788E-14 -0.35527136788E-14  0.91188000000E+02  0.91188000000E+02 0.  0.
    9900012    2    3    3    0    0  0.12541368263E+02  0.22605742922E+02  0.26219738788E+02  0.54367078867E+02  0.39999987893E+02 0.  0.
         12    1    3    3    0    0 -0.12541368263E+02 -0.22605742922E+02 -0.26219738788E+02  0.36820921133E+02  0.00000000000E+00 0. -1.
         11    1    4    4    0    0  0.97319969551E+00  0.12510419245E+02  0.22081137958E+01  0.12741015428E+02  0.51100000000E-03 0. -1.
        -11    1    4    4    0    0  0.47442773434E+01  0.36725041223E+01 -0.70059279773E+01  0.92237997118E+01  0.51100000000E-03 0.  1.
        -12    1    4    4    0    0  0.68238912241E+01  0.64228195551E+01  0.31017552969E+02  0.32402263728E+02  0.00000000000E+00 0.  1.
</event>
<event>
 8    1  0.2516265E-006  0.9118800E+02  0.7816164E-02  0.1184000E+00
        -11   -1    0    0    0    0  0.00000000000E+00  0.00000000000E+00  0.45593999997E+02  0.45594000000E+02  0.51100000000E-03 0. -1.
         11   -1    0    0    0    0 -0.00000000000E+00 -0.00000000000E+00 -0.45593999997E+02  0.45594000000E+02  0.51100000000E-03 0.  1.
         23    2    1    2    0    0 -0.35527136788E-14 -0.35527136788E-14  0.00000000000E+00  0.91188000000E+02  0.91188000000E+02 0.  0.
    9900012    2    3    3    0    0 -0.22930798601E+02 -0.22257327917E+02  0.18291212903E+02  0.54367100501E+02  0.40000037212E+02 0.  0.
        -12    1    3    3    0    0  0.22930798601E+02  0.22257327917E+02 -0.18291212903E+02  0.36820899499E+02  0.00000000000E+00 0.  1.
         11    1    4    4    0    0 -0.25391383230E+02 -0.13847861394E+02  0.21386286519E+00  0.28922851608E+02  0.51100000000E-03 0. -1.
        -11    1    4    4    0    0 -0.61006827071E+01 -0.29385983650E+00  0.60087467704E+01  0.85679473101E+01  0.51100000000E-03 0.  1.
        -12    1    4    4    0    0  0.85612673369E+01 -0.81156066865E+01  0.12068603268E+02  0.16876301583E+02  0.00000000000E+00 0.  1.
</event>
<event>
 8    1  0.2516265E-006  0.9118800E+02  0.7816164E-02  0.1184000E+00
        -11   -1    0    0    0    0  0.00000000000E+00  0.00000000000E+00  0.45593999997E+02  0.45594000000E+02  0.51100000000E-03 0.  1.
         11   -1    0    0    0    0 -0.00000000000E+00 -0.00000000000E+00 -0.45593999997E+02  0.45594000000E+02  0.51100000000E-03 0. -1.
         23    2    1    2    0    0  0.00000000000E+00  0.00000000000E+00 -0.88817841970E-15  0.91188000000E+02  0.91188000000E+02 0.  0.
    9900012    2    3    3    0    0  0.35599572787E+02  0.86242945049E+01 -0.37514289961E+01  0.54367064951E+02  0.39999956169E+02 0.  0.
        -12    1    3    3    0    0 -0.35599572787E+02 -0.86242945049E+01  0.37514289961E+01  0.36820935049E+02  0.00000000000E+00 0.  1.
         11    1    4    4    0    0  0.64357698932E+01  0.15798689980E+01 -0.12299994328E+02  0.13971577610E+02  0.51100000000E-03 0. -1.
        -11    1    4    4    0    0  0.24912689665E+02  0.53161926773E+01 -0.51148555184E+01  0.25982027599E+02  0.51100000000E-03 0.  1.
        -12    1    4    4    0    0  0.42511132295E+01  0.17282328296E+01  0.13663420851E+02  0.14413459742E+02  0.00000000000E+00 0.  1.
</event>
<event>
 8    1  0.2516265E-006  0.9118800E+02  0.7816164E-02  0.1184000E+00
        -11   -1    0    0    0    0  0.00000000000E+00  0.00000000000E+00  0.45593999997E+02  0.45594000000E+02  0.51100000000E-03 0.  1.
         11   -1    0    0    0    0 -0.00000000000E+00 -0.00000000000E+00 -0.45593999997E+02  0.45594000000E+02  0.51100000000E-03 0. -1.
         23    2    1    2    0    0  0.35527136788E-14  0.00000000000E+00  0.00000000000E+00  0.91188000000E+02  0.91188000000E+02 0.  0.
    9900012    2    3    3    0    0  0.12700723508E+02  0.33364501590E+02 -0.90156144847E+01  0.54367086805E+02  0.40000005989E+02 0.  0.
        -12    1    3    3    0    0 -0.12700723508E+02 -0.33364501590E+02  0.90156144847E+01  0.36820913195E+02  0.00000000000E+00 0.  1.
         11    1    4    4    0    0 -0.10282740050E+02  0.88004923415E+01 -0.10053860958E+02  0.16860116513E+02  0.51100000000E-03 0. -1.
        -11    1    4    4    0    0 -0.40393579307E+00  0.76546799690E+01  0.37245219433E+01  0.85222856980E+01  0.51100000000E-03 0.  1.
        -12    1    4    4    0    0  0.23387399351E+02  0.16909329280E+02 -0.26862754700E+01  0.28984684594E+02  0.00000000000E+00 0.  1.
</event>
<event>
 8    1  0.2516265E-006  0.9118800E+02  0.7816164E-02  0.1184000E+00
        -11   -1    0    0    0    0  0.00000000000E+00  0.00000000000E+00  0.45593999997E+02  0.45594000000E+02  0.51100000000E-03 0. -1.
         11   -1    0    0    0    0 -0.00000000000E+00 -0.00000000000E+00 -0.45593999997E+02  0.45594000000E+02  0.51100000000E-03 0.  1.
         23    2    1    2    0    0  0.00000000000E+00  0.00000000000E+00 -0.17763568394E-14  0.91188000000E+02  0.91188000000E+02 0.  0.
    9900012    2    3    3    0    0 -0.33397886507E+02 -0.90441275056E+01 -0.12592299859E+02  0.54367067350E+02  0.39999961637E+02 0.  0.
        -12    1    3    3    0    0  0.33397886507E+02  0.90441275056E+01  0.12592299859E+02  0.36820932650E+02  0.00000000000E+00 0.  1.
         11    1    4    4    0    0 -0.11367929811E+01 -0.28857289584E-01  0.45911043394E+01  0.47298382997E+01  0.51100000000E-03 0. -1.
        -11    1    4    4    0    0 -0.12037059096E+02 -0.12566288754E+02 -0.22483510737E+02  0.28430804773E+02  0.51100000000E-03 0.  1.
        -12    1    4    4    0    0 -0.20224034430E+02  0.35510185383E+01  0.53001065382E+01  0.21206424277E+02  0.00000000000E+00 0.  1.
</event>
<event>
 8    1  0.2516265E-006  0.9118800E+02  0.7816164E-02  0.1184000E+00
        -11   -1    0    0    0    0  0.00000000000E+00  0.00000000000E+00  0.45593999997E+02  0.45594000000E+02  0.51100000000E-03 0.  1.
         11   -1    0    0    0    0 -0.00000000000E+00 -0.00000000000E+00 -0.45593999997E+02  0.45594000000E+02  0.51100000000E-03 0. -1.
         23    2    1    2    0    0  0.00000000000E+00  0.17763568394E-14  0.17763568394E-14  0.91188000000E+02  0.91188000000E+02 0.  0.
    9900012    2    3    3    0    0  0.33077927444E+02 -0.92975316625E+01 -0.13235893544E+02  0.54367051385E+02  0.39999925243E+02 0.  0.
         12    1    3    3    0    0 -0.33077927444E+02  0.92975316625E+01  0.13235893544E+02  0.36820948615E+02  0.00000000000E+00 0. -1.
         11    1    4    4    0    0 -0.20929436512E+01  0.54887689243E+00  0.10849370087E+01  0.24204891126E+01  0.51100000000E-03 0. -1.
        -11    1    4    4    0    0 -0.80486471286E-01 -0.41613051056E+01 -0.15670913033E+02  0.16214205309E+02  0.51100000000E-03 0.  1.
        -12    1    4    4    0    0  0.35251357566E+02 -0.56851034493E+01  0.13500824801E+01  0.35732356964E+02  0.00000000000E+00 0.  1.
</event>
<event>
 8    1  0.2516265E-006  0.9118800E+02  0.7816164E-02  0.1184000E+00
        -11   -1    0    0    0    0  0.00000000000E+00  0.00000000000E+00  0.45593999997E+02  0.45594000000E+02  0.51100000000E-03 0. -1.
         11   -1    0    0    0    0 -0.00000000000E+00 -0.00000000000E+00 -0.45593999997E+02  0.45594000000E+02  0.51100000000E-03 0.  1.
         23    2    1    2    0    0 -0.17763568394E-14  0.00000000000E+00  0.44408920985E-15  0.91188000000E+02  0.91188000000E+02 0.  0.
    9900012    2    3    3    0    0 -0.83591042044E+01  0.35792399547E+02  0.21930995341E+01  0.54367079670E+02  0.39999989723E+02 0.  0.
        -12    1    3    3    0    0  0.83591042044E+01 -0.35792399547E+02 -0.21930995341E+01  0.36820920330E+02  0.00000000000E+00 0.  1.
         11    1    4    4    0    0  0.38896725063E+01  0.69358978157E+01  0.79652563026E+01  0.11255289376E+02  0.51100000000E-03 0. -1.
        -11    1    4    4    0    0 -0.19618799866E+02  0.19136567595E+02  0.37172333664E+01  0.27657247724E+02  0.51100000000E-03 0.  1.
        -12    1    4    4    0    0  0.73700231548E+01  0.97199341357E+01 -0.94893901349E+01  0.15454542570E+02  0.00000000000E+00 0.  1.
</event>
<event>
 8    1  0.2516265E-006  0.9118800E+02  0.7816164E-02  0.1184000E+00
        -11   -1    0    0    0    0  0.00000000000E+00  0.00000000000E+00  0.45593999997E+02  0.45594000000E+02  0.51100000000E-03 0. -1.
         11   -1    0    0    0    0 -0.00000000000E+00 -0.00000000000E+00 -0.45593999997E+02  0.45594000000E+02  0.51100000000E-03 0.  1.
         23    2    1    2    0    0  0.00000000000E+00  0.00000000000E+00  0.00000000000E+00  0.91188000000E+02  0.91188000000E+02 0.  0.
    9900012    2    3    3    0    0  0.74070123295E+01  0.40352723003E+01 -0.35841788150E+02  0.54367068019E+02  0.39999963163E+02 0.  0.
         12    1    3    3    0    0 -0.74070123295E+01 -0.40352723003E+01  0.35841788150E+02  0.36820931981E+02  0.00000000000E+00 0. -1.
         11    1    4    4    0    0  0.57476717768E+01  0.56880011618E+00 -0.23416784321E+02  0.24118562408E+02  0.51100000000E-03 0. -1.
        -11    1    4    4    0    0 -0.53214660023E+01 -0.35302280097E+01 -0.17861244477E+02  0.18968515091E+02  0.51100000000E-03 0.  1.
         12    1    4    4    0    0  0.69808065549E+01  0.69967001938E+01  0.54362406483E+01  0.11279990521E+02  0.00000000000E+00 0. -1.
</event>
<event>
 8    1  0.2516265E-006  0.9118800E+02  0.7816164E-02  0.1184000E+00
        -11   -1    0    0    0    0  0.00000000000E+00  0.00000000000E+00  0.45593999997E+02  0.45594000000E+02  0.51100000000E-03 0. -1.
         11   -1    0    0    0    0 -0.00000000000E+00 -0.00000000000E+00 -0.45593999997E+02  0.45594000000E+02  0.51100000000E-03 0.  1.
         23    2    1    2    0    0  0.00000000000E+00 -0.88817841970E-15  0.35527136788E-14  0.91188000000E+02  0.91188000000E+02 0.  0.
    9900012    2    3    3    0    0  0.17511160127E+02 -0.67539700379E+01  0.31678435099E+02  0.54367080802E+02  0.39999992304E+02 0.  0.
        -12    1    3    3    0    0 -0.17511160127E+02  0.67539700379E+01 -0.31678435099E+02  0.36820919198E+02  0.00000000000E+00 0.  1.
         11    1    4    4    0    0  0.16236573651E+01 -0.13466164936E+02  0.30130761822E+02  0.33042951889E+02  0.51100000000E-03 0. -1.
        -11    1    4    4    0    0  0.42893808004E+01  0.66347185618E+01 -0.35419566102E+01  0.86581600202E+01  0.51100000000E-03 0.  1.
         12    1    4    4    0    0  0.11598121961E+02  0.77476335845E-01  0.50896298879E+01  0.12665968893E+02  0.00000000000E+00 0. -1.
</event>
<event>
 8    1  0.2516265E-006  0.9118800E+02  0.7816164E-02  0.1184000E+00
        -11   -1    0    0    0    0  0.00000000000E+00  0.00000000000E+00  0.45593999997E+02  0.45594000000E+02  0.51100000000E-03 0.  1.
         11   -1    0    0    0    0 -0.00000000000E+00 -0.00000000000E+00 -0.45593999997E+02  0.45594000000E+02  0.51100000000E-03 0. -1.
         23    2    1    2    0    0 -0.17763568394E-14 -0.71054273576E-14 -0.71054273576E-14  0.91188000000E+02  0.91188000000E+02 0.  0.
    9900012    2    3    3    0    0  0.84636009204E+01  0.26226038200E+02  0.24420178490E+02  0.54367044856E+02  0.39999910358E+02 0.  0.
         12    1    3    3    0    0 -0.84636009204E+01 -0.26226038200E+02 -0.24420178490E+02  0.36820955144E+02  0.00000000000E+00 0. -1.
         11    1    4    4    0    0  0.75976166614E+00  0.70089097593E+01  0.78992278580E+01  0.10587721890E+02  0.51100000000E-03 0.  1.
        -11    1    4    4    0    0  0.18463262079E+02  0.45978871582E+01 -0.30351420399E+00  0.19029575246E+02  0.51100000000E-03 0. -1.
         12    1    4    4    0    0 -0.10759422824E+02  0.14619241283E+02  0.16824464836E+02  0.24749747720E+02  0.00000000000E+00 0. -1.
</event>
<event>
 8    1  0.2516265E-006  0.9118800E+02  0.7816164E-02  0.1184000E+00
        -11   -1    0    0    0    0  0.00000000000E+00  0.00000000000E+00  0.45593999997E+02  0.45594000000E+02  0.51100000000E-03 0. -1.
         11   -1    0    0    0    0 -0.00000000000E+00 -0.00000000000E+00 -0.45593999997E+02  0.45594000000E+02  0.51100000000E-03 0.  1.
         23    2    1    2    0    0  0.17763568394E-14  0.00000000000E+00  0.35527136788E-14  0.91188000000E+02  0.91188000000E+02 0.  0.
    9900012    2    3    3    0    0 -0.80711973819E+01 -0.23386168685E+02  0.27271348180E+02  0.54367033900E+02  0.39999885382E+02 0.  0.
        -12    1    3    3    0    0  0.80711973819E+01  0.23386168685E+02 -0.27271348180E+02  0.36820966100E+02  0.00000000000E+00 0.  1.
         11    1    4    4    0    0  0.78272787844E+01 -0.68776135343E+01  0.15721150520E+02  0.18860605372E+02  0.51100000000E-03 0. -1.
        -11    1    4    4    0    0 -0.29228237096E+01 -0.13303416826E+02  0.16372475132E+02  0.21297458531E+02  0.51100000000E-03 0.  1.
        -12    1    4    4    0    0 -0.12975652457E+02 -0.32051383247E+01 -0.48222774706E+01  0.14208969996E+02  0.00000000000E+00 0.  1.
</event>
<event>
 8    1  0.2516265E-006  0.9118800E+02  0.7816164E-02  0.1184000E+00
        -11   -1    0    0    0    0  0.00000000000E+00  0.00000000000E+00  0.45593999997E+02  0.45594000000E+02  0.51100000000E-03 0.  1.
         11   -1    0    0    0    0 -0.00000000000E+00 -0.00000000000E+00 -0.45593999997E+02  0.45594000000E+02  0.51100000000E-03 0. -1.
         23    2    1    2    0    0  0.00000000000E+00  0.00000000000E+00  0.35527136788E-14  0.91188000000E+02  0.91188000000E+02 0.  0.
    9900012    2    3    3    0    0  0.22022345978E+02  0.33192888258E+01 -0.29321957607E+02  0.54367101062E+02  0.40000038491E+02 0.  0.
        -12    1    3    3    0    0 -0.22022345978E+02 -0.33192888258E+01  0.29321957607E+02  0.36820898938E+02  0.00000000000E+00 0.  1.
         11    1    4    4    0    0 -0.25589053401E+01 -0.91774074889E+01 -0.73318286081E+01  0.12022001321E+02  0.51100000000E-03 0. -1.
        -11    1    4    4    0    0 -0.32260051771E+01 -0.43499156080E-01  0.17694265832E+01  0.36796565429E+01  0.51100000000E-03 0.  1.
         12    1    4    4    0    0  0.27807256495E+02  0.12540195471E+02 -0.23759555582E+02  0.38665443198E+02  0.00000000000E+00 0. -1.
</event>
<event>
 8    1  0.2516265E-006  0.9118800E+02  0.7816164E-02  0.1184000E+00
        -11   -1    0    0    0    0  0.00000000000E+00  0.00000000000E+00  0.45593999997E+02  0.45594000000E+02  0.51100000000E-03 0.  1.
         11   -1    0    0    0    0 -0.00000000000E+00 -0.00000000000E+00 -0.45593999997E+02  0.45594000000E+02  0.51100000000E-03 0. -1.
         23    2    1    2    0    0 -0.88817841970E-15 -0.71054273576E-14 -0.71054273576E-14  0.91188000000E+02  0.91188000000E+02 0.  0.
    9900012    2    3    3    0    0 -0.35146084410E+01 -0.21895696209E+02 -0.29393978984E+02  0.54367082230E+02  0.39999995559E+02 0.  0.
        -12    1    3    3    0    0  0.35146084410E+01  0.21895696209E+02  0.29393978984E+02  0.36820917770E+02  0.00000000000E+00 0.  1.
         11    1    4    4    0    0 -0.50622852694E+00  0.26289826664E+00  0.19661837605E+01  0.20472571068E+01  0.51100000000E-03 0. -1.
        -11    1    4    4    0    0 -0.54488314287E+01  0.54371201198E+01  0.29306107531E+01  0.82365356057E+01  0.51100000000E-03 0.  1.
         12    1    4    4    0    0  0.24404515147E+01 -0.27595714595E+02 -0.34290773497E+02  0.44083289517E+02  0.00000000000E+00 0. -1.
</event>
<event>
 8    1  0.2516265E-006  0.9118800E+02  0.7816164E-02  0.1184000E+00
        -11   -1    0    0    0    0  0.00000000000E+00  0.00000000000E+00  0.45593999997E+02  0.45594000000E+02  0.51100000000E-03 0.  1.
         11   -1    0    0    0    0 -0.00000000000E+00 -0.00000000000E+00 -0.45593999997E+02  0.45594000000E+02  0.51100000000E-03 0. -1.
         23    2    1    2    0    0 -0.17763568394E-14  0.88817841970E-15  0.71054273576E-14  0.91188000000E+02  0.91188000000E+02 0.  0.
    9900012    2    3    3    0    0 -0.15933618513E+02  0.48167910079E+01  0.32843542947E+02  0.54367082197E+02  0.39999995484E+02 0.  0.
         12    1    3    3    0    0  0.15933618513E+02 -0.48167910079E+01 -0.32843542947E+02  0.36820917803E+02  0.00000000000E+00 0. -1.
         11    1    4    4    0    0 -0.17629129096E+01 -0.62954018464E+00  0.10004630794E+02  0.10178252324E+02  0.51100000000E-03 0. -1.
        -11    1    4    4    0    0  0.94165371901E+01 -0.30216683081E+01 -0.55576173507E+00  0.99050756375E+01  0.51100000000E-03 0.  1.
         12    1    4    4    0    0 -0.23587242794E+02  0.84679995006E+01  0.23394673888E+02  0.34283754236E+02  0.00000000000E+00 0. -1.
</event>
<event>
 8    1  0.2516265E-006  0.9118800E+02  0.7816164E-02  0.1184000E+00
        -11   -1    0    0    0    0  0.00000000000E+00  0.00000000000E+00  0.45593999997E+02  0.45594000000E+02  0.51100000000E-03 0.  1.
         11   -1    0    0    0    0 -0.00000000000E+00 -0.00000000000E+00 -0.45593999997E+02  0.45594000000E+02  0.51100000000E-03 0. -1.
         23    2    1    2    0    0  0.00000000000E+00  0.00000000000E+00  0.22204460493E-15  0.91188000000E+02  0.91188000000E+02 0.  0.
    9900012    2    3    3    0    0  0.27393202952E+02 -0.24602624568E+02 -0.31968124575E+00  0.54367096973E+02  0.40000029169E+02 0.  0.
         12    1    3    3    0    0 -0.27393202952E+02  0.24602624568E+02  0.31968124575E+00  0.36820903027E+02  0.00000000000E+00 0. -1.
         11    1    4    4    0    0  0.10436392251E+02  0.15814445114E+01  0.12406971007E+00  0.10556260868E+02  0.51100000000E-03 0.  1.
        -11    1    4    4    0    0  0.65975399770E+01 -0.19808322920E+02  0.13840477105E+02  0.25049071787E+02  0.51100000000E-03 0. -1.
         12    1    4    4    0    0  0.10359270724E+02 -0.63757461601E+01 -0.14284228061E+02  0.18761764318E+02  0.00000000000E+00 0. -1.
</event>
<event>
 8    1  0.2516265E-006  0.9118800E+02  0.7816164E-02  0.1184000E+00
        -11   -1    0    0    0    0  0.00000000000E+00  0.00000000000E+00  0.45593999997E+02  0.45594000000E+02  0.51100000000E-03 0.  1.
         11   -1    0    0    0    0 -0.00000000000E+00 -0.00000000000E+00 -0.45593999997E+02  0.45594000000E+02  0.51100000000E-03 0. -1.
         23    2    1    2    0    0  0.35527136788E-14  0.00000000000E+00 -0.35527136788E-14  0.91188000000E+02  0.91188000000E+02 0.  0.
    9900012    2    3    3    0    0  0.11775079254E+02 -0.23258535122E+02  0.26003098823E+02  0.54367175785E+02  0.40000208836E+02 0.  0.
        -12    1    3    3    0    0 -0.11775079254E+02  0.23258535122E+02 -0.26003098823E+02  0.36820824215E+02  0.00000000000E+00 0.  1.
         11    1    4    4    0    0  0.20039606930E+02 -0.19834814197E+02  0.28216524880E+01  0.28336679819E+02  0.51100000000E-03 0. -1.
        -11    1    4    4    0    0 -0.37697646419E+01 -0.39525225971E+01  0.19332807552E+02  0.20089574620E+02  0.51100000000E-03 0.  1.
         12    1    4    4    0    0 -0.44947630340E+01  0.52880167256E+00  0.38486387836E+01  0.59409213450E+01  0.00000000000E+00 0. -1.
</event>
<event>
 8    1  0.2516265E-006  0.9118800E+02  0.7816164E-02  0.1184000E+00
        -11   -1    0    0    0    0  0.00000000000E+00  0.00000000000E+00  0.45593999997E+02  0.45594000000E+02  0.51100000000E-03 0. -1.
         11   -1    0    0    0    0 -0.00000000000E+00 -0.00000000000E+00 -0.45593999997E+02  0.45594000000E+02  0.51100000000E-03 0.  1.
         23    2    1    2    0    0  0.00000000000E+00  0.00000000000E+00  0.35527136788E-14  0.91188000000E+02  0.91188000000E+02 0.  0.
    9900012    2    3    3    0    0 -0.17787635821E+02  0.65049882457E+01  0.31576313298E+02  0.54367103465E+02  0.40000043969E+02 0.  0.
        -12    1    3    3    0    0  0.17787635821E+02 -0.65049882457E+01 -0.31576313298E+02  0.36820896535E+02  0.00000000000E+00 0.  1.
         11    1    4    4    0    0 -0.13085619114E+02 -0.46203170658E+01  0.17671826206E+02  0.22469405847E+02  0.51100000000E-03 0. -1.
        -11    1    4    4    0    0  0.27788608287E+01  0.16606186314E+02  0.15012429695E+02  0.22557937339E+02  0.51100000000E-03 0.  1.
        -12    1    4    4    0    0 -0.74808775354E+01 -0.54808810021E+01 -0.11079426036E+01  0.93397602791E+01  0.00000000000E+00 0.  1.
</event>
<event>
 8    1  0.2516265E-006  0.9118800E+02  0.7816164E-02  0.1184000E+00
        -11   -1    0    0    0    0  0.00000000000E+00  0.00000000000E+00  0.45593999997E+02  0.45594000000E+02  0.51100000000E-03 0.  1.
         11   -1    0    0    0    0 -0.00000000000E+00 -0.00000000000E+00 -0.45593999997E+02  0.45594000000E+02  0.51100000000E-03 0. -1.
         23    2    1    2    0    0 -0.35527136788E-14  0.00000000000E+00  0.00000000000E+00  0.91188000000E+02  0.91188000000E+02 0.  0.
    9900012    2    3    3    0    0  0.23150520882E+02  0.15122235057E+02  0.24313769518E+02  0.54366973421E+02  0.39999747506E+02 0.  0.
         12    1    3    3    0    0 -0.23150520882E+02 -0.15122235057E+02 -0.24313769518E+02  0.36821026579E+02  0.00000000000E+00 0. -1.
         11    1    4    4    0    0 -0.96047747066E+01  0.17423763032E+01  0.50979011260E+01  0.11012545959E+02  0.51100000000E-03 0. -1.
        -11    1    4    4    0    0  0.20039172745E+02  0.15582979091E+02  0.91361398183E+01  0.26979005406E+02  0.51100000000E-03 0.  1.
         12    1    4    4    0    0  0.12716122843E+02 -0.22031203376E+01  0.10079728573E+02  0.16375422055E+02  0.00000000000E+00 0. -1.
</event>
<event>
 8    1  0.2516265E-006  0.9118800E+02  0.7816164E-02  0.1184000E+00
        -11   -1    0    0    0    0  0.00000000000E+00  0.00000000000E+00  0.45593999997E+02  0.45594000000E+02  0.51100000000E-03 0.  1.
         11   -1    0    0    0    0 -0.00000000000E+00 -0.00000000000E+00 -0.45593999997E+02  0.45594000000E+02  0.51100000000E-03 0. -1.
         23    2    1    2    0    0 -0.17763568394E-14 -0.35527136788E-14  0.00000000000E+00  0.91188000000E+02  0.91188000000E+02 0.  0.
    9900012    2    3    3    0    0 -0.15812744330E+02 -0.25608637973E+02  0.21211644817E+02  0.54367094282E+02  0.40000023035E+02 0.  0.
         12    1    3    3    0    0  0.15812744330E+02  0.25608637973E+02 -0.21211644817E+02  0.36820905718E+02  0.00000000000E+00 0. -1.
         11    1    4    4    0    0  0.57929087169E+01  0.14233040180E+01  0.30101250520E+01  0.66816494086E+01  0.51100000000E-03 0. -1.
        -11    1    4    4    0    0  0.58722378651E+01 -0.85943323566E+01  0.11854327518E+01  0.10476210062E+02  0.51100000000E-03 0.  1.
        -12    1    4    4    0    0 -0.27477890912E+02 -0.18437609634E+02  0.17016087013E+02  0.37209234811E+02  0.00000000000E+00 0.  1.
</event>
<event>
 8    1  0.2516265E-006  0.9118800E+02  0.7816164E-02  0.1184000E+00
        -11   -1    0    0    0    0  0.00000000000E+00  0.00000000000E+00  0.45593999997E+02  0.45594000000E+02  0.51100000000E-03 0. -1.
         11   -1    0    0    0    0 -0.00000000000E+00 -0.00000000000E+00 -0.45593999997E+02  0.45594000000E+02  0.51100000000E-03 0.  1.
         23    2    1    2    0    0 -0.88817841970E-15  0.00000000000E+00  0.00000000000E+00  0.91188000000E+02  0.91188000000E+02 0.  0.
    9900012    2    3    3    0    0  0.40883626429E+01  0.34925883593E+02 -0.10920093735E+02  0.54367075228E+02  0.39999979597E+02 0.  0.
         12    1    3    3    0    0 -0.40883626429E+01 -0.34925883593E+02  0.10920093735E+02  0.36820924772E+02  0.00000000000E+00 0. -1.
         11    1    4    4    0    0 -0.25661397152E+00  0.18381775719E+02  0.91895289835E+01  0.20552444442E+02  0.51100000000E-03 0. -1.
        -11    1    4    4    0    0  0.12500260034E+02  0.13703157881E+02 -0.13860555770E+02  0.23154870834E+02  0.51100000000E-03 0.  1.
        -12    1    4    4    0    0 -0.81552834193E+01  0.28409499930E+01 -0.62490669493E+01  0.10659759953E+02  0.00000000000E+00 0.  1.
</event>
<event>
 8    1  0.2516265E-006  0.9118800E+02  0.7816164E-02  0.1184000E+00
        -11   -1    0    0    0    0  0.00000000000E+00  0.00000000000E+00  0.45593999997E+02  0.45594000000E+02  0.51100000000E-03 0.  1.
         11   -1    0    0    0    0 -0.00000000000E+00 -0.00000000000E+00 -0.45593999997E+02  0.45594000000E+02  0.51100000000E-03 0. -1.
         23    2    1    2    0    0  0.24980018054E-14  0.35527136788E-14 -0.71054273576E-14  0.91188000000E+02  0.91188000000E+02 0.  0.
    9900012    2    3    3    0    0 -0.47538311481E+00 -0.24053151856E+02  0.27874709093E+02  0.54367088681E+02  0.40000010266E+02 0.  0.
         12    1    3    3    0    0  0.47538311481E+00  0.24053151856E+02 -0.27874709093E+02  0.36820911319E+02  0.00000000000E+00 0. -1.
         11    1    4    4    0    0  0.96293148248E+01 -0.21929959526E+02  0.10436416866E+02  0.26125956941E+02  0.51100000000E-03 0. -1.
        -11    1    4    4    0    0 -0.10170005324E+02  0.66806099501E+01  0.14567580704E+02  0.18980884211E+02  0.51100000000E-03 0.  1.
         12    1    4    4    0    0  0.65307384697E-01 -0.88038022803E+01  0.28707115225E+01  0.92602475286E+01  0.00000000000E+00 0. -1.
</event>
<event>
 8    1  0.2516265E-006  0.9118800E+02  0.7816164E-02  0.1184000E+00
        -11   -1    0    0    0    0  0.00000000000E+00  0.00000000000E+00  0.45593999997E+02  0.45594000000E+02  0.51100000000E-03 0.  1.
         11   -1    0    0    0    0 -0.00000000000E+00 -0.00000000000E+00 -0.45593999997E+02  0.45594000000E+02  0.51100000000E-03 0. -1.
         23    2    1    2    0    0  0.00000000000E+00 -0.71054273576E-14  0.35527136788E-14  0.91188000000E+02  0.91188000000E+02 0.  0.
    9900012    2    3    3    0    0  0.92198634623E+01  0.27795884541E+02 -0.22319562534E+02  0.54367082692E+02  0.39999996612E+02 0.  0.
        -12    1    3    3    0    0 -0.92198634623E+01 -0.27795884541E+02  0.22319562534E+02  0.36820917308E+02  0.00000000000E+00 0.  1.
         11    1    4    4    0    0  0.14770204280E+02 -0.28728156406E+01 -0.11019827825E+02  0.18650699980E+02  0.51100000000E-03 0. -1.
        -11    1    4    4    0    0 -0.82345109314E+01  0.12745398001E+02 -0.84569703744E+01  0.17371605817E+02  0.51100000000E-03 0.  1.
         12    1    4    4    0    0  0.26841701141E+01  0.17923302181E+02 -0.28427643343E+01  0.18344776895E+02  0.00000000000E+00 0. -1.
</event>
<event>
 8    1  0.2516265E-006  0.9118800E+02  0.7816164E-02  0.1184000E+00
        -11   -1    0    0    0    0  0.00000000000E+00  0.00000000000E+00  0.45593999997E+02  0.45594000000E+02  0.51100000000E-03 0.  1.
         11   -1    0    0    0    0 -0.00000000000E+00 -0.00000000000E+00 -0.45593999997E+02  0.45594000000E+02  0.51100000000E-03 0. -1.
         23    2    1    2    0    0  0.71054273576E-14  0.00000000000E+00 -0.35527136788E-14  0.91188000000E+02  0.91188000000E+02 0.  0.
    9900012    2    3    3    0    0  0.24286798766E+02  0.41414292864E+01 -0.27363842968E+02  0.54367082944E+02  0.39999997188E+02 0.  0.
        -12    1    3    3    0    0 -0.24286798766E+02 -0.41414292864E+01  0.27363842968E+02  0.36820917056E+02  0.00000000000E+00 0.  1.
         11    1    4    4    0    0  0.43006509971E+01 -0.40620954661E+01 -0.31699487481E+01  0.67115418424E+01  0.51100000000E-03 0. -1.
        -11    1    4    4    0    0  0.17563701708E+02 -0.10579515419E+02 -0.19152105539E+02  0.28057314751E+02  0.51100000000E-03 0.  1.
        -12    1    4    4    0    0  0.24224460601E+01  0.18783040171E+02 -0.50417886812E+01  0.19598226351E+02  0.00000000000E+00 0.  1.
</event>
<event>
 8    1  0.2516265E-006  0.9118800E+02  0.7816164E-02  0.1184000E+00
        -11   -1    0    0    0    0  0.00000000000E+00  0.00000000000E+00  0.45593999997E+02  0.45594000000E+02  0.51100000000E-03 0.  1.
         11   -1    0    0    0    0 -0.00000000000E+00 -0.00000000000E+00 -0.45593999997E+02  0.45594000000E+02  0.51100000000E-03 0. -1.
         23    2    1    2    0    0  0.00000000000E+00 -0.88817841970E-15  0.17763568394E-14  0.91188000000E+02  0.91188000000E+02 0.  0.
    9900012    2    3    3    0    0 -0.34615425783E+02  0.43263150667E+01  0.11782860925E+02  0.54367075028E+02  0.39999979141E+02 0.  0.
         12    1    3    3    0    0  0.34615425783E+02 -0.43263150667E+01 -0.11782860925E+02  0.36820924972E+02  0.00000000000E+00 0. -1.
         11    1    4    4    0    0 -0.22588676125E+02 -0.13511070253E+02 -0.42165675331E+01  0.26656645522E+02  0.51100000000E-03 0. -1.
        -11    1    4    4    0    0 -0.60893393884E+01  0.33195007743E+01  0.46527572965E+01  0.83514843172E+01  0.51100000000E-03 0.  1.
         12    1    4    4    0    0 -0.59374102700E+01  0.14517884545E+02  0.11346671162E+02  0.19358945189E+02  0.00000000000E+00 0. -1.
</event>
<event>
 8    1  0.2516265E-006  0.9118800E+02  0.7816164E-02  0.1184000E+00
        -11   -1    0    0    0    0  0.00000000000E+00  0.00000000000E+00  0.45593999997E+02  0.45594000000E+02  0.51100000000E-03 0.  1.
         11   -1    0    0    0    0 -0.00000000000E+00 -0.00000000000E+00 -0.45593999997E+02  0.45594000000E+02  0.51100000000E-03 0. -1.
         23    2    1    2    0    0 -0.53290705182E-14 -0.88817841970E-15  0.00000000000E+00  0.91188000000E+02  0.91188000000E+02 0.  0.
    9900012    2    3    3    0    0 -0.14923976376E+02  0.55834268970E+01 -0.33194580608E+02  0.54367083274E+02  0.39999997941E+02 0.  0.
        -12    1    3    3    0    0  0.14923976376E+02 -0.55834268970E+01  0.33194580608E+02  0.36820916726E+02  0.00000000000E+00 0.  1.
         11    1    4    4    0    0  0.25668441987E+01  0.90521616436E+01 -0.35806316312E+01  0.10067335432E+02  0.51100000000E-03 0.  1.
        -11    1    4    4    0    0 -0.17569346509E+02 -0.59376737918E+01 -0.34305570727E+02  0.38997565180E+02  0.51100000000E-03 0. -1.
         12    1    4    4    0    0  0.78525934526E-01  0.24689390451E+01  0.46916217506E+01  0.53021826621E+01  0.00000000000E+00 0. -1.
</event>
<event>
 8    1  0.2516265E-006  0.9118800E+02  0.7816164E-02  0.1184000E+00
        -11   -1    0    0    0    0  0.00000000000E+00  0.00000000000E+00  0.45593999997E+02  0.45594000000E+02  0.51100000000E-03 0. -1.
         11   -1    0    0    0    0 -0.00000000000E+00 -0.00000000000E+00 -0.45593999997E+02  0.45594000000E+02  0.51100000000E-03 0.  1.
         23    2    1    2    0    0  0.00000000000E+00  0.00000000000E+00  0.00000000000E+00  0.91188000000E+02  0.91188000000E+02 0.  0.
    9900012    2    3    3    0    0  0.24719261004E+02  0.21471915824E+02  0.16843356943E+02  0.54367031696E+02  0.39999880358E+02 0.  0.
        -12    1    3    3    0    0 -0.24719261004E+02 -0.21471915824E+02 -0.16843356943E+02  0.36820968304E+02  0.00000000000E+00 0.  1.
         11    1    4    4    0    0  0.18076450997E+02 -0.71371724297E+01  0.34114068060E+01  0.19731573875E+02  0.51100000000E-03 0.  1.
        -11    1    4    4    0    0  0.71987792939E+01  0.28127781208E+02  0.15162542844E+02  0.32755109598E+02  0.51100000000E-03 0. -1.
         12    1    4    4    0    0 -0.55596928754E+00  0.48130704558E+00 -0.17305927074E+01  0.18803482230E+01  0.00000000000E+00 0. -1.
</event>
<event>
 8    1  0.2516265E-006  0.9118800E+02  0.7816164E-02  0.1184000E+00
        -11   -1    0    0    0    0  0.00000000000E+00  0.00000000000E+00  0.45593999997E+02  0.45594000000E+02  0.51100000000E-03 0.  1.
         11   -1    0    0    0    0 -0.00000000000E+00 -0.00000000000E+00 -0.45593999997E+02  0.45594000000E+02  0.51100000000E-03 0. -1.
         23    2    1    2    0    0  0.35527136788E-14  0.00000000000E+00 -0.17763568394E-14  0.91188000000E+02  0.91188000000E+02 0.  0.
    9900012    2    3    3    0    0 -0.28080397007E+02 -0.19475809605E+02 -0.13709992788E+02  0.54367085318E+02  0.40000002598E+02 0.  0.
        -12    1    3    3    0    0  0.28080397007E+02  0.19475809605E+02  0.13709992788E+02  0.36820914682E+02  0.00000000000E+00 0.  1.
         11    1    4    4    0    0 -0.27311883880E+02 -0.15454870430E+02 -0.20326945860E+02  0.37389527268E+02  0.51100000000E-03 0. -1.
        -11    1    4    4    0    0  0.67672520448E+01 -0.15084660109E+00  0.10734087382E+01  0.68535145375E+01  0.51100000000E-03 0.  1.
        -12    1    4    4    0    0 -0.75357651720E+01 -0.38700925737E+01  0.55435443339E+01  0.10124043512E+02  0.00000000000E+00 0.  1.
</event>
<event>
 8    1  0.2516265E-006  0.9118800E+02  0.7816164E-02  0.1184000E+00
        -11   -1    0    0    0    0  0.00000000000E+00  0.00000000000E+00  0.45593999997E+02  0.45594000000E+02  0.51100000000E-03 0.  1.
         11   -1    0    0    0    0 -0.00000000000E+00 -0.00000000000E+00 -0.45593999997E+02  0.45594000000E+02  0.51100000000E-03 0. -1.
         23    2    1    2    0    0 -0.17763568394E-14  0.88817841970E-15  0.00000000000E+00  0.91188000000E+02  0.91188000000E+02 0.  0.
    9900012    2    3    3    0    0 -0.13041957311E+02  0.23993272362E+01 -0.34350119452E+02  0.54367080293E+02  0.39999991145E+02 0.  0.
        -12    1    3    3    0    0  0.13041957311E+02 -0.23993272362E+01  0.34350119452E+02  0.36820919707E+02  0.00000000000E+00 0.  1.
         11    1    4    4    0    0 -0.63813480058E+00  0.40244282748E+01 -0.72762691272E+01  0.83395042799E+01  0.51100000000E-03 0. -1.
        -11    1    4    4    0    0 -0.47218400286E+01  0.11917523464E+02  0.20705499077E+01  0.12985003502E+02  0.51100000000E-03 0.  1.
         12    1    4    4    0    0 -0.76819824815E+01 -0.13542624502E+02 -0.29144400233E+02  0.33042572511E+02  0.00000000000E+00 0. -1.
</event>
<event>
 8    1  0.2516265E-006  0.9118800E+02  0.7816164E-02  0.1184000E+00
        -11   -1    0    0    0    0  0.00000000000E+00  0.00000000000E+00  0.45593999997E+02  0.45594000000E+02  0.51100000000E-03 0.  1.
         11   -1    0    0    0    0 -0.00000000000E+00 -0.00000000000E+00 -0.45593999997E+02  0.45594000000E+02  0.51100000000E-03 0. -1.
         23    2    1    2    0    0 -0.88817841970E-15  0.00000000000E+00  0.00000000000E+00  0.91188000000E+02  0.91188000000E+02 0.  0.
    9900012    2    3    3    0    0  0.75147165880E+01 -0.28647277775E+02 -0.21877706653E+02  0.54367196944E+02  0.40000257072E+02 0.  0.
        -12    1    3    3    0    0 -0.75147165880E+01  0.28647277775E+02  0.21877706653E+02  0.36820803056E+02  0.00000000000E+00 0.  1.
         11    1    4    4    0    0  0.16699741353E+02 -0.85266621179E+01 -0.35128088389E+01  0.19076822438E+02  0.51100000000E-03 0. -1.
        -11    1    4    4    0    0 -0.30796458829E+01  0.38909056091E+00  0.35123628254E+01  0.46874623312E+01  0.51100000000E-03 0.  1.
         12    1    4    4    0    0 -0.61053788825E+01 -0.20509706218E+02 -0.21877260640E+02  0.30602912174E+02  0.00000000000E+00 0. -1.
</event>
<event>
 8    1  0.2516265E-006  0.9118800E+02  0.7816164E-02  0.1184000E+00
        -11   -1    0    0    0    0  0.00000000000E+00  0.00000000000E+00  0.45593999997E+02  0.45594000000E+02  0.51100000000E-03 0.  1.
         11   -1    0    0    0    0 -0.00000000000E+00 -0.00000000000E+00 -0.45593999997E+02  0.45594000000E+02  0.51100000000E-03 0. -1.
         23    2    1    2    0    0  0.17763568394E-14  0.17763568394E-14 -0.71054273576E-14  0.91188000000E+02  0.91188000000E+02 0.  0.
    9900012    2    3    3    0    0 -0.70426865700E+01 -0.85191509495E+01  0.35122714189E+02  0.54367076342E+02  0.39999982136E+02 0.  0.
         12    1    3    3    0    0  0.70426865700E+01  0.85191509495E+01 -0.35122714189E+02  0.36820923658E+02  0.00000000000E+00 0. -1.
         11    1    4    4    0    0  0.43737526672E+00  0.26533328435E+01 -0.41264984314E+01  0.49253895143E+01  0.51100000000E-03 0. -1.
        -11    1    4    4    0    0 -0.88063182182E+01 -0.74043492675E+00  0.37808313740E+02  0.38827413931E+02  0.51100000000E-03 0.  1.
         12    1    4    4    0    0  0.13262563814E+01 -0.10432048866E+02  0.14408988811E+01  0.10614272897E+02  0.00000000000E+00 0. -1.
</event>
<event>
 8    1  0.2516265E-006  0.9118800E+02  0.7816164E-02  0.1184000E+00
        -11   -1    0    0    0    0  0.00000000000E+00  0.00000000000E+00  0.45593999997E+02  0.45594000000E+02  0.51100000000E-03 0.  1.
         11   -1    0    0    0    0 -0.00000000000E+00 -0.00000000000E+00 -0.45593999997E+02  0.45594000000E+02  0.51100000000E-03 0. -1.
         23    2    1    2    0    0 -0.35527136788E-14  0.35527136788E-14  0.00000000000E+00  0.91188000000E+02  0.91188000000E+02 0.  0.
    9900012    2    3    3    0    0 -0.30580456786E+02  0.20400431084E+02  0.21061788490E+01  0.54367110345E+02  0.40000059653E+02 0.  0.
        -12    1    3    3    0    0  0.30580456786E+02 -0.20400431084E+02 -0.21061788490E+01  0.36820889655E+02  0.00000000000E+00 0.  1.
         11    1    4    4    0    0 -0.19716490407E+02  0.84176259351E+01  0.98624093149E+01  0.23597956228E+02  0.51100000000E-03 0. -1.
        -11    1    4    4    0    0 -0.34984690822E+01 -0.52671243174E+01  0.50208842468E+01  0.80741044937E+01  0.51100000000E-03 0.  1.
        -12    1    4    4    0    0 -0.73654972968E+01  0.17249929466E+02 -0.12777114713E+02  0.22695049623E+02  0.00000000000E+00 0.  1.
</event>
<event>
 8    1  0.2516265E-006  0.9118800E+02  0.7816164E-02  0.1184000E+00
        -11   -1    0    0    0    0  0.00000000000E+00  0.00000000000E+00  0.45593999997E+02  0.45594000000E+02  0.51100000000E-03 0.  1.
         11   -1    0    0    0    0 -0.00000000000E+00 -0.00000000000E+00 -0.45593999997E+02  0.45594000000E+02  0.51100000000E-03 0. -1.
         23    2    1    2    0    0 -0.35527136788E-14  0.35527136788E-14  0.00000000000E+00  0.91188000000E+02  0.91188000000E+02 0.  0.
    9900012    2    3    3    0    0 -0.19096924065E+02 -0.28241821235E+02  0.13909951940E+02  0.54367085585E+02  0.40000003208E+02 0.  0.
         12    1    3    3    0    0  0.19096924065E+02  0.28241821235E+02 -0.13909951940E+02  0.36820914415E+02  0.00000000000E+00 0. -1.
         11    1    4    4    0    0 -0.78732288612E+01 -0.45807163172E+01 -0.11980692958E+02  0.15050172713E+02  0.51100000000E-03 0. -1.
        -11    1    4    4    0    0 -0.94353970338E+01 -0.25116052461E+02  0.25428706153E+02  0.36965685511E+02  0.51100000000E-03 0.  1.
        -12    1    4    4    0    0 -0.17882981698E+01  0.14549475432E+01  0.46193874518E+00  0.23512273607E+01  0.00000000000E+00 0.  1.
</event>
<event>
 8    1  0.2516265E-006  0.9118800E+02  0.7816164E-02  0.1184000E+00
        -11   -1    0    0    0    0  0.00000000000E+00  0.00000000000E+00  0.45593999997E+02  0.45594000000E+02  0.51100000000E-03 0.  1.
         11   -1    0    0    0    0 -0.00000000000E+00 -0.00000000000E+00 -0.45593999997E+02  0.45594000000E+02  0.51100000000E-03 0. -1.
         23    2    1    2    0    0  0.44408920985E-15 -0.35527136788E-14  0.35527136788E-14  0.91188000000E+02  0.91188000000E+02 0.  0.
    9900012    2    3    3    0    0 -0.73182306447E+00 -0.23921241873E+02  0.27982458865E+02  0.54367090426E+02  0.40000014244E+02 0.  0.
         12    1    3    3    0    0  0.73182306447E+00  0.23921241873E+02 -0.27982458865E+02  0.36820909574E+02  0.00000000000E+00 0. -1.
         11    1    4    4    0    0  0.70502634590E+01  0.17937067207E+01  0.47394576361E+01  0.86825144737E+01  0.51100000000E-03 0.  1.
        -11    1    4    4    0    0  0.44110804179E+01 -0.15918153737E+02 -0.13130603034E+01  0.16570135077E+02  0.51100000000E-03 0. -1.
         12    1    4    4    0    0 -0.12193166941E+02 -0.97967948566E+01  0.24556061532E+02  0.29114440876E+02  0.00000000000E+00 0. -1.
</event>
<event>
 8    1  0.2516265E-006  0.9118800E+02  0.7816164E-02  0.1184000E+00
        -11   -1    0    0    0    0  0.00000000000E+00  0.00000000000E+00  0.45593999997E+02  0.45594000000E+02  0.51100000000E-03 0.  1.
         11   -1    0    0    0    0 -0.00000000000E+00 -0.00000000000E+00 -0.45593999997E+02  0.45594000000E+02  0.51100000000E-03 0. -1.
         23    2    1    2    0    0  0.00000000000E+00  0.35527136788E-14  0.00000000000E+00  0.91188000000E+02  0.91188000000E+02 0.  0.
    9900012    2    3    3    0    0 -0.17585256769E+02  0.27471721011E+02  0.17083399500E+02  0.54367092225E+02  0.40000018345E+02 0.  0.
         12    1    3    3    0    0  0.17585256769E+02 -0.27471721011E+02 -0.17083399500E+02  0.36820907775E+02  0.00000000000E+00 0. -1.
         11    1    4    4    0    0 -0.83782975121E+01 -0.42335791194E+01  0.85388878147E+01  0.12689825323E+02  0.51100000000E-03 0. -1.
        -11    1    4    4    0    0 -0.64127276262E+01  0.35576076986E+00  0.79205116980E+01  0.10197261748E+02  0.51100000000E-03 0.  1.
         12    1    4    4    0    0 -0.27942316304E+01  0.31349539360E+02  0.62399998749E+00  0.31480005154E+02  0.00000000000E+00 0. -1.
</event>
<event>
 8    1  0.2516265E-006  0.9118800E+02  0.7816164E-02  0.1184000E+00
        -11   -1    0    0    0    0  0.00000000000E+00  0.00000000000E+00  0.45593999997E+02  0.45594000000E+02  0.51100000000E-03 0.  1.
         11   -1    0    0    0    0 -0.00000000000E+00 -0.00000000000E+00 -0.45593999997E+02  0.45594000000E+02  0.51100000000E-03 0. -1.
         23    2    1    2    0    0  0.35527136788E-14  0.00000000000E+00  0.00000000000E+00  0.91188000000E+02  0.91188000000E+02 0.  0.
    9900012    2    3    3    0    0 -0.18483037343E+02  0.88215717339E+01 -0.30599631769E+02  0.54367078479E+02  0.39999987008E+02 0.  0.
        -12    1    3    3    0    0  0.18483037343E+02 -0.88215717339E+01  0.30599631769E+02  0.36820921521E+02  0.00000000000E+00 0.  1.
         11    1    4    4    0    0 -0.92030688588E+01  0.15040503010E+02 -0.19073565784E+02  0.25975259752E+02  0.51100000000E-03 0. -1.
        -11    1    4    4    0    0 -0.86404911990E+00  0.11466852361E+01 -0.16205085781E+02  0.16268567035E+02  0.51100000000E-03 0.  1.
        -12    1    4    4    0    0 -0.84159193643E+01 -0.73656165121E+01  0.46790197960E+01  0.12123251693E+02  0.00000000000E+00 0.  1.
</event>
<event>
 8    1  0.2516265E-006  0.9118800E+02  0.7816164E-02  0.1184000E+00
        -11   -1    0    0    0    0  0.00000000000E+00  0.00000000000E+00  0.45593999997E+02  0.45594000000E+02  0.51100000000E-03 0. -1.
         11   -1    0    0    0    0 -0.00000000000E+00 -0.00000000000E+00 -0.45593999997E+02  0.45594000000E+02  0.51100000000E-03 0.  1.
         23    2    1    2    0    0 -0.88817841970E-15  0.00000000000E+00  0.00000000000E+00  0.91188000000E+02  0.91188000000E+02 0.  0.
    9900012    2    3    3    0    0 -0.53402332201E+01 -0.28666831045E+02  0.22482766901E+02  0.54367080667E+02  0.39999991996E+02 0.  0.
         12    1    3    3    0    0  0.53402332201E+01  0.28666831045E+02 -0.22482766901E+02  0.36820919333E+02  0.00000000000E+00 0. -1.
         11    1    4    4    0    0 -0.10843151762E+02 -0.23112619914E+02  0.25671333981E+02  0.36204758362E+02  0.51100000000E-03 0. -1.
        -11    1    4    4    0    0  0.59285584888E+01 -0.12355315182E+01  0.56712300660E+01  0.82968183426E+01  0.51100000000E-03 0.  1.
        -12    1    4    4    0    0 -0.42563994727E+00 -0.43186796132E+01 -0.88597971457E+01  0.98655039622E+01  0.00000000000E+00 0.  1.
</event>
<event>
 8    1  0.2516265E-006  0.9118800E+02  0.7816164E-02  0.1184000E+00
        -11   -1    0    0    0    0  0.00000000000E+00  0.00000000000E+00  0.45593999997E+02  0.45594000000E+02  0.51100000000E-03 0.  1.
         11   -1    0    0    0    0 -0.00000000000E+00 -0.00000000000E+00 -0.45593999997E+02  0.45594000000E+02  0.51100000000E-03 0. -1.
         23    2    1    2    0    0 -0.88817841970E-15 -0.17763568394E-14  0.00000000000E+00  0.91188000000E+02  0.91188000000E+02 0.  0.
    9900012    2    3    3    0    0  0.60998866212E+01 -0.13314289206E+02 -0.33783157694E+02  0.54367073102E+02  0.39999974750E+02 0.  0.
        -12    1    3    3    0    0 -0.60998866212E+01  0.13314289206E+02  0.33783157694E+02  0.36820926898E+02  0.00000000000E+00 0.  1.
         11    1    4    4    0    0  0.94798742433E+01 -0.86156020490E+01 -0.92688245230E+01  0.15811632510E+02  0.51100000000E-03 0. -1.
        -11    1    4    4    0    0  0.11422848436E+01 -0.16749989208E+02 -0.15412995323E+02  0.22790949481E+02  0.51100000000E-03 0.  1.
        -12    1    4    4    0    0 -0.45222724658E+01  0.12051302051E+02 -0.91013378479E+01  0.15764491111E+02  0.00000000000E+00 0.  1.
</event>
<event>
 8    1  0.2516265E-006  0.9118800E+02  0.7816164E-02  0.1184000E+00
        -11   -1    0    0    0    0  0.00000000000E+00  0.00000000000E+00  0.45593999997E+02  0.45594000000E+02  0.51100000000E-03 0. -1.
         11   -1    0    0    0    0 -0.00000000000E+00 -0.00000000000E+00 -0.45593999997E+02  0.45594000000E+02  0.51100000000E-03 0.  1.
         23    2    1    2    0    0 -0.71054273576E-14  0.00000000000E+00  0.00000000000E+00  0.91188000000E+02  0.91188000000E+02 0.  0.
    9900012    2    3    3    0    0  0.34512739359E+02  0.84357339190E+01  0.96689294866E+01  0.54367095853E+02  0.40000026616E+02 0.  0.
         12    1    3    3    0    0 -0.34512739359E+02 -0.84357339190E+01 -0.96689294866E+01  0.36820904147E+02  0.00000000000E+00 0. -1.
         11    1    4    4    0    0 -0.61731319362E+00  0.24953115005E+01 -0.54016709198E+01  0.59821153492E+01  0.51100000000E-03 0. -1.
        -11    1    4    4    0    0  0.10484059966E+02  0.10806472038E+02 -0.53829670122E+01  0.15989736877E+02  0.51100000000E-03 0.  1.
        -12    1    4    4    0    0  0.24645992586E+02 -0.48660496199E+01  0.20453567419E+02  0.32395243626E+02  0.00000000000E+00 0.  1.
</event>
<event>
 8    1  0.2516265E-006  0.9118800E+02  0.7816164E-02  0.1184000E+00
        -11   -1    0    0    0    0  0.00000000000E+00  0.00000000000E+00  0.45593999997E+02  0.45594000000E+02  0.51100000000E-03 0. -1.
         11   -1    0    0    0    0 -0.00000000000E+00 -0.00000000000E+00 -0.45593999997E+02  0.45594000000E+02  0.51100000000E-03 0.  1.
         23    2    1    2    0    0 -0.35527136788E-14  0.00000000000E+00 -0.35527136788E-14  0.91188000000E+02  0.91188000000E+02 0.  0.
    9900012    2    3    3    0    0  0.24169768817E+02  0.19888665150E+02  0.19391828231E+02  0.54367085722E+02  0.40000003521E+02 0.  0.
        -12    1    3    3    0    0 -0.24169768817E+02 -0.19888665150E+02 -0.19391828231E+02  0.36820914278E+02  0.00000000000E+00 0.  1.
         11    1    4    4    0    0  0.82384009140E+01 -0.49429392940E+01  0.11272704179E+02  0.14811406356E+02  0.51100000000E-03 0. -1.
        -11    1    4    4    0    0  0.18975837212E+02  0.20487450480E+02  0.14330294211E+02  0.31387503206E+02  0.51100000000E-03 0.  1.
        -12    1    4    4    0    0 -0.30444693092E+01  0.43441539639E+01 -0.62111701589E+01  0.81681761599E+01  0.00000000000E+00 0.  1.
</event>
<event>
 8    1  0.2516265E-006  0.9118800E+02  0.7816164E-02  0.1184000E+00
        -11   -1    0    0    0    0  0.00000000000E+00  0.00000000000E+00  0.45593999997E+02  0.45594000000E+02  0.51100000000E-03 0.  1.
         11   -1    0    0    0    0 -0.00000000000E+00 -0.00000000000E+00 -0.45593999997E+02  0.45594000000E+02  0.51100000000E-03 0. -1.
         23    2    1    2    0    0 -0.35527136788E-14 -0.17763568394E-14  0.35527136788E-14  0.91188000000E+02  0.91188000000E+02 0.  0.
    9900012    2    3    3    0    0 -0.24972801733E+02 -0.85406503806E+01  0.25674836496E+02  0.54367071652E+02  0.39999971444E+02 0.  0.
         12    1    3    3    0    0  0.24972801733E+02  0.85406503806E+01 -0.25674836496E+02  0.36820928348E+02  0.00000000000E+00 0. -1.
         11    1    4    4    0    0 -0.15440009823E+01  0.11917568966E+02  0.13548344572E+02  0.18109942849E+02  0.51100000000E-03 0. -1.
        -11    1    4    4    0    0 -0.23216772329E+02 -0.19749313661E+02  0.14512553456E+02  0.33758970890E+02  0.51100000000E-03 0.  1.
         12    1    4    4    0    0 -0.21202842193E+00 -0.70890568608E+00 -0.23860615321E+01  0.24981579131E+01  0.00000000000E+00 0. -1.
</event>
<event>
 8    1  0.2516265E-006  0.9118800E+02  0.7816164E-02  0.1184000E+00
        -11   -1    0    0    0    0  0.00000000000E+00  0.00000000000E+00  0.45593999997E+02  0.45594000000E+02  0.51100000000E-03 0. -1.
         11   -1    0    0    0    0 -0.00000000000E+00 -0.00000000000E+00 -0.45593999997E+02  0.45594000000E+02  0.51100000000E-03 0.  1.
         23    2    1    2    0    0  0.00000000000E+00  0.00000000000E+00 -0.88817841970E-15  0.91188000000E+02  0.91188000000E+02 0.  0.
    9900012    2    3    3    0    0 -0.23065924976E+02  0.28381149701E+02 -0.42724072605E+01  0.54367081800E+02  0.39999994578E+02 0.  0.
        -12    1    3    3    0    0  0.23065924976E+02 -0.28381149701E+02  0.42724072605E+01  0.36820918200E+02  0.00000000000E+00 0.  1.
         11    1    4    4    0    0  0.30386209020E+00 -0.46623851679E+01 -0.72094975795E+01  0.85911013981E+01  0.51100000000E-03 0. -1.
        -11    1    4    4    0    0 -0.86610364080E+01  0.12960400894E+02  0.11586815048E+02  0.19422662696E+02  0.51100000000E-03 0.  1.
         12    1    4    4    0    0 -0.14708750658E+02  0.20083133975E+02 -0.86497247294E+01  0.26353317705E+02  0.00000000000E+00 0. -1.
</event>
<event>
 8    1  0.2516265E-006  0.9118800E+02  0.7816164E-02  0.1184000E+00
        -11   -1    0    0    0    0  0.00000000000E+00  0.00000000000E+00  0.45593999997E+02  0.45594000000E+02  0.51100000000E-03 0. -1.
         11   -1    0    0    0    0 -0.00000000000E+00 -0.00000000000E+00 -0.45593999997E+02  0.45594000000E+02  0.51100000000E-03 0.  1.
         23    2    1    2    0    0  0.35527136788E-14 -0.88817841970E-15 -0.35527136788E-14  0.91188000000E+02  0.91188000000E+02 0.  0.
    9900012    2    3    3    0    0 -0.28465205780E+02  0.45177847965E+01 -0.22915127896E+02  0.54367062939E+02  0.39999951581E+02 0.  0.
         12    1    3    3    0    0  0.28465205780E+02 -0.45177847965E+01  0.22915127896E+02  0.36820937061E+02  0.00000000000E+00 0. -1.
         11    1    4    4    0    0 -0.40861118106E+01  0.14402365850E+01  0.61169173167E+01  0.74958167580E+01  0.51100000000E-03 0. -1.
        -11    1    4    4    0    0 -0.21322648804E+02  0.13096548380E+01 -0.41778828216E+01  0.21767527488E+02  0.51100000000E-03 0.  1.
        -12    1    4    4    0    0 -0.30564451655E+01  0.17678933735E+01 -0.24854162391E+02  0.25103718692E+02  0.00000000000E+00 0.  1.
</event>
<event>
 8    1  0.2516265E-006  0.9118800E+02  0.7816164E-02  0.1184000E+00
        -11   -1    0    0    0    0  0.00000000000E+00  0.00000000000E+00  0.45593999997E+02  0.45594000000E+02  0.51100000000E-03 0.  1.
         11   -1    0    0    0    0 -0.00000000000E+00 -0.00000000000E+00 -0.45593999997E+02  0.45594000000E+02  0.51100000000E-03 0. -1.
         23    2    1    2    0    0  0.00000000000E+00  0.00000000000E+00  0.00000000000E+00  0.91188000000E+02  0.91188000000E+02 0.  0.
    9900012    2    3    3    0    0 -0.16716396308E+02  0.22326696924E+02  0.24038735697E+02  0.54367080471E+02  0.39999991549E+02 0.  0.
         12    1    3    3    0    0  0.16716396308E+02 -0.22326696924E+02 -0.24038735697E+02  0.36820919529E+02  0.00000000000E+00 0. -1.
         11    1    4    4    0    0  0.65197981168E+01 -0.42422471698E+01 -0.12810832069E+01  0.78832482504E+01  0.51100000000E-03 0. -1.
        -11    1    4    4    0    0 -0.15992537823E+01  0.11857093248E+02  0.12653726131E+02  0.17414507119E+02  0.51100000000E-03 0.  1.
        -12    1    4    4    0    0 -0.21636940642E+02  0.14711850847E+02  0.12666092773E+02  0.29069325101E+02  0.00000000000E+00 0.  1.
</event>
<event>
 8    1  0.2516265E-006  0.9118800E+02  0.7816164E-02  0.1184000E+00
        -11   -1    0    0    0    0  0.00000000000E+00  0.00000000000E+00  0.45593999997E+02  0.45594000000E+02  0.51100000000E-03 0.  1.
         11   -1    0    0    0    0 -0.00000000000E+00 -0.00000000000E+00 -0.45593999997E+02  0.45594000000E+02  0.51100000000E-03 0. -1.
         23    2    1    2    0    0  0.00000000000E+00  0.35527136788E-14 -0.35527136788E-14  0.91188000000E+02  0.91188000000E+02 0.  0.
    9900012    2    3    3    0    0 -0.16081923221E+02  0.25419010885E+02 -0.21237373189E+02  0.54367076752E+02  0.39999983072E+02 0.  0.
        -12    1    3    3    0    0  0.16081923221E+02 -0.25419010885E+02  0.21237373189E+02  0.36820923248E+02  0.00000000000E+00 0.  1.
         11    1    4    4    0    0  0.50605531641E+01  0.92303924710E+01 -0.10403865071E+01  0.10577889574E+02  0.51100000000E-03 0. -1.
        -11    1    4    4    0    0 -0.16501087195E+02 -0.30379185641E+01 -0.16757600260E+02  0.23713540321E+02  0.51100000000E-03 0.  1.
         12    1    4    4    0    0 -0.46413891903E+01  0.19226536978E+02 -0.34393864218E+01  0.20075646857E+02  0.00000000000E+00 0. -1.
</event>
<event>
 8    1  0.2516265E-006  0.9118800E+02  0.7816164E-02  0.1184000E+00
        -11   -1    0    0    0    0  0.00000000000E+00  0.00000000000E+00  0.45593999997E+02  0.45594000000E+02  0.51100000000E-03 0.  1.
         11   -1    0    0    0    0 -0.00000000000E+00 -0.00000000000E+00 -0.45593999997E+02  0.45594000000E+02  0.51100000000E-03 0. -1.
         23    2    1    2    0    0  0.00000000000E+00  0.22204460493E-15  0.00000000000E+00  0.91188000000E+02  0.91188000000E+02 0.  0.
    9900012    2    3    3    0    0  0.32935834788E+02  0.13415803673E+01 -0.16407667748E+02  0.54367073721E+02  0.39999976163E+02 0.  0.
        -12    1    3    3    0    0 -0.32935834788E+02 -0.13415803673E+01  0.16407667748E+02  0.36820926279E+02  0.00000000000E+00 0.  1.
         11    1    4    4    0    0 -0.20307696170E+01 -0.19303192942E+01 -0.70289161069E+01  0.75667575429E+01  0.51100000000E-03 0. -1.
        -11    1    4    4    0    0 -0.19916523530E+01  0.60002653517E+01 -0.73372447364E+01  0.96852993742E+01  0.51100000000E-03 0.  1.
        -12    1    4    4    0    0  0.36958256758E+02 -0.27283656901E+01 -0.20415069053E+01  0.37115016804E+02  0.00000000000E+00 0.  1.
</event>
<event>
 8    1  0.2516265E-006  0.9118800E+02  0.7816164E-02  0.1184000E+00
        -11   -1    0    0    0    0  0.00000000000E+00  0.00000000000E+00  0.45593999997E+02  0.45594000000E+02  0.51100000000E-03 0. -1.
         11   -1    0    0    0    0 -0.00000000000E+00 -0.00000000000E+00 -0.45593999997E+02  0.45594000000E+02  0.51100000000E-03 0.  1.
         23    2    1    2    0    0  0.88817841970E-15  0.00000000000E+00  0.00000000000E+00  0.91188000000E+02  0.91188000000E+02 0.  0.
    9900012    2    3    3    0    0  0.75998775417E+01 -0.61625149514E+01 -0.35497130977E+02  0.54367067953E+02  0.39999963013E+02 0.  0.
         12    1    3    3    0    0 -0.75998775417E+01  0.61625149514E+01  0.35497130977E+02  0.36820932047E+02  0.00000000000E+00 0. -1.
         11    1    4    4    0    0  0.87596079336E+01 -0.43478296797E+00 -0.14969724534E+02  0.17349709515E+02  0.51100000000E-03 0. -1.
        -11    1    4    4    0    0 -0.66593099322E+01 -0.12195084295E+02  0.94568143845E+00  0.13926981130E+02  0.51100000000E-03 0.  1.
        -12    1    4    4    0    0  0.54995795403E+01  0.64673523119E+01 -0.21473087882E+02  0.23090377308E+02  0.00000000000E+00 0.  1.
</event>
<event>
 8    1  0.2516265E-006  0.9118800E+02  0.7816164E-02  0.1184000E+00
        -11   -1    0    0    0    0  0.00000000000E+00  0.00000000000E+00  0.45593999997E+02  0.45594000000E+02  0.51100000000E-03 0.  1.
         11   -1    0    0    0    0 -0.00000000000E+00 -0.00000000000E+00 -0.45593999997E+02  0.45594000000E+02  0.51100000000E-03 0. -1.
         23    2    1    2    0    0  0.00000000000E+00 -0.17763568394E-14  0.00000000000E+00  0.91188000000E+02  0.91188000000E+02 0.  0.
    9900012    2    3    3    0    0 -0.24875356591E+02  0.13890010873E+02  0.23325218384E+02  0.54367060573E+02  0.39999946189E+02 0.  0.
         12    1    3    3    0    0  0.24875356591E+02 -0.13890010873E+02 -0.23325218384E+02  0.36820939427E+02  0.00000000000E+00 0. -1.
         11    1    4    4    0    0 -0.20514650571E+02  0.18953775035E+02  0.73911428802E+01  0.28891615903E+02  0.51100000000E-03 0. -1.
        -11    1    4    4    0    0 -0.29070034975E+01  0.70134248809E+01  0.75102395921E+01  0.10679068166E+02  0.51100000000E-03 0.  1.
         12    1    4    4    0    0 -0.14537025232E+01 -0.12077189043E+02  0.84238359118E+01  0.14796376505E+02  0.00000000000E+00 0. -1.
</event>
<event>
 8    1  0.2516265E-006  0.9118800E+02  0.7816164E-02  0.1184000E+00
        -11   -1    0    0    0    0  0.00000000000E+00  0.00000000000E+00  0.45593999997E+02  0.45594000000E+02  0.51100000000E-03 0.  1.
         11   -1    0    0    0    0 -0.00000000000E+00 -0.00000000000E+00 -0.45593999997E+02  0.45594000000E+02  0.51100000000E-03 0. -1.
         23    2    1    2    0    0  0.35527136788E-14  0.00000000000E+00  0.35527136788E-14  0.91188000000E+02  0.91188000000E+02 0.  0.
    9900012    2    3    3    0    0 -0.19197092165E+02 -0.78301031010E+01  0.30429259926E+02  0.54367099389E+02  0.40000034676E+02 0.  0.
         12    1    3    3    0    0  0.19197092165E+02  0.78301031010E+01 -0.30429259926E+02  0.36820900611E+02  0.00000000000E+00 0. -1.
         11    1    4    4    0    0 -0.15549812020E+02  0.15348516284E+01  0.98328075395E+01  0.18461758522E+02  0.51100000000E-03 0. -1.
        -11    1    4    4    0    0 -0.14163876399E+02 -0.79652536413E+01  0.49239819895E+01  0.16979583597E+02  0.51100000000E-03 0.  1.
        -12    1    4    4    0    0  0.10516596253E+02 -0.13997010881E+01  0.15672470397E+02  0.18925757270E+02  0.00000000000E+00 0.  1.
</event>
<event>
 8    1  0.2516265E-006  0.9118800E+02  0.7816164E-02  0.1184000E+00
        -11   -1    0    0    0    0  0.00000000000E+00  0.00000000000E+00  0.45593999997E+02  0.45594000000E+02  0.51100000000E-03 0.  1.
         11   -1    0    0    0    0 -0.00000000000E+00 -0.00000000000E+00 -0.45593999997E+02  0.45594000000E+02  0.51100000000E-03 0. -1.
         23    2    1    2    0    0  0.00000000000E+00  0.35527136788E-14  0.00000000000E+00  0.91188000000E+02  0.91188000000E+02 0.  0.
    9900012    2    3    3    0    0 -0.85341292976E+01 -0.27072764692E+02  0.23452354818E+02  0.54367097004E+02  0.40000029240E+02 0.  0.
         12    1    3    3    0    0  0.85341292976E+01  0.27072764692E+02 -0.23452354818E+02  0.36820902996E+02  0.00000000000E+00 0. -1.
         11    1    4    4    0    0 -0.10223653950E+02  0.37673218053E+00 -0.23529405353E+01  0.10497683394E+02  0.51100000000E-03 0. -1.
        -11    1    4    4    0    0  0.17564010975E+01 -0.97514823666E+01  0.24138474376E+02  0.26092954962E+02  0.51100000000E-03 0.  1.
         12    1    4    4    0    0 -0.66876445253E-01 -0.17698014506E+02  0.16668209772E+01  0.17776458648E+02  0.00000000000E+00 0. -1.
</event>
<event>
 8    1  0.2516265E-006  0.9118800E+02  0.7816164E-02  0.1184000E+00
        -11   -1    0    0    0    0  0.00000000000E+00  0.00000000000E+00  0.45593999997E+02  0.45594000000E+02  0.51100000000E-03 0.  1.
         11   -1    0    0    0    0 -0.00000000000E+00 -0.00000000000E+00 -0.45593999997E+02  0.45594000000E+02  0.51100000000E-03 0. -1.
         23    2    1    2    0    0  0.00000000000E+00  0.35527136788E-14  0.26645352591E-14  0.91188000000E+02  0.91188000000E+02 0.  0.
    9900012    2    3    3    0    0 -0.26859127710E+02 -0.24948995872E+02 -0.34513623267E+01  0.54367122250E+02  0.40000086793E+02 0.  0.
        -12    1    3    3    0    0  0.26859127710E+02  0.24948995872E+02  0.34513623267E+01  0.36820877750E+02  0.00000000000E+00 0.  1.
         11    1    4    4    0    0 -0.14674506562E+02 -0.19940135113E+02 -0.17612239579E+02  0.30383237392E+02  0.51100000000E-03 0. -1.
        -11    1    4    4    0    0  0.29758222569E+01 -0.17988423168E+01  0.46323429246E+01  0.57922321274E+01  0.51100000000E-03 0.  1.
        -12    1    4    4    0    0 -0.15160443404E+02 -0.32100184426E+01  0.95285343282E+01  0.18191652730E+02  0.00000000000E+00 0.  1.
</event>
<event>
 8    1  0.2516265E-006  0.9118800E+02  0.7816164E-02  0.1184000E+00
        -11   -1    0    0    0    0  0.00000000000E+00  0.00000000000E+00  0.45593999997E+02  0.45594000000E+02  0.51100000000E-03 0.  1.
         11   -1    0    0    0    0 -0.00000000000E+00 -0.00000000000E+00 -0.45593999997E+02  0.45594000000E+02  0.51100000000E-03 0. -1.
         23    2    1    2    0    0 -0.17763568394E-14  0.71054273576E-14 -0.88817841970E-15  0.91188000000E+02  0.91188000000E+02 0.  0.
    9900012    2    3    3    0    0  0.14186206413E+02 -0.33500294810E+02  0.56799583008E+01  0.54367080253E+02  0.39999991052E+02 0.  0.
        -12    1    3    3    0    0 -0.14186206413E+02  0.33500294810E+02 -0.56799583008E+01  0.36820919747E+02  0.00000000000E+00 0.  1.
         11    1    4    4    0    0  0.24616344438E+01 -0.26568424658E+01 -0.61105803730E+01  0.71033547552E+01  0.51100000000E-03 0. -1.
        -11    1    4    4    0    0  0.67036406845E+01  0.50983069410E+01  0.63932599565E+01  0.10573802780E+02  0.51100000000E-03 0.  1.
        -12    1    4    4    0    0  0.50209312850E+01 -0.35941759285E+02  0.53972787173E+01  0.36689922718E+02  0.00000000000E+00 0.  1.
</event>
<event>
 8    1  0.2516265E-006  0.9118800E+02  0.7816164E-02  0.1184000E+00
        -11   -1    0    0    0    0  0.00000000000E+00  0.00000000000E+00  0.45593999997E+02  0.45594000000E+02  0.51100000000E-03 0.  1.
         11   -1    0    0    0    0 -0.00000000000E+00 -0.00000000000E+00 -0.45593999997E+02  0.45594000000E+02  0.51100000000E-03 0. -1.
         23    2    1    2    0    0  0.00000000000E+00  0.44408920985E-15 -0.35527136788E-14  0.91188000000E+02  0.91188000000E+02 0.  0.
    9900012    2    3    3    0    0  0.26312728622E+02 -0.37833171173E+01 -0.25477595273E+02  0.54367067952E+02  0.39999963011E+02 0.  0.
        -12    1    3    3    0    0 -0.26312728622E+02  0.37833171173E+01  0.25477595273E+02  0.36820932048E+02  0.00000000000E+00 0.  1.
         11    1    4    4    0    0  0.75187622186E+01  0.73735404319E+01  0.54776123349E+00  0.10545184988E+02  0.51100000000E-03 0. -1.
        -11    1    4    4    0    0  0.15578378297E+02  0.42900981962E+00 -0.27599492776E+02  0.31695455850E+02  0.51100000000E-03 0.  1.
        -12    1    4    4    0    0  0.32155881066E+01 -0.11585867369E+02  0.15741362696E+01  0.12126427114E+02  0.00000000000E+00 0.  1.
</event>
<event>
 8    1  0.2516265E-006  0.9118800E+02  0.7816164E-02  0.1184000E+00
        -11   -1    0    0    0    0  0.00000000000E+00  0.00000000000E+00  0.45593999997E+02  0.45594000000E+02  0.51100000000E-03 0.  1.
         11   -1    0    0    0    0 -0.00000000000E+00 -0.00000000000E+00 -0.45593999997E+02  0.45594000000E+02  0.51100000000E-03 0. -1.
         23    2    1    2    0    0  0.22204460493E-14 -0.17763568394E-14  0.00000000000E+00  0.91188000000E+02  0.91188000000E+02 0.  0.
    9900012    2    3    3    0    0 -0.29086935902E+01 -0.13996964454E+02 -0.33932342168E+02  0.54367090759E+02  0.40000015003E+02 0.  0.
        -12    1    3    3    0    0  0.29086935902E+01  0.13996964454E+02  0.33932342168E+02  0.36820909241E+02  0.00000000000E+00 0.  1.
         11    1    4    4    0    0  0.11891352510E+01 -0.17473654487E+02 -0.18871939979E+02  0.25746703918E+02  0.51100000000E-03 0. -1.
        -11    1    4    4    0    0 -0.11851010454E+02  0.13719387165E+01 -0.16598076141E+02  0.20440763109E+02  0.51100000000E-03 0.  1.
        -12    1    4    4    0    0  0.77531816125E+01  0.21047513166E+01  0.15376739527E+01  0.81796237325E+01  0.00000000000E+00 0.  1.
</event>
<event>
 8    1  0.2516265E-006  0.9118800E+02  0.7816164E-02  0.1184000E+00
        -11   -1    0    0    0    0  0.00000000000E+00  0.00000000000E+00  0.45593999997E+02  0.45594000000E+02  0.51100000000E-03 0.  1.
         11   -1    0    0    0    0 -0.00000000000E+00 -0.00000000000E+00 -0.45593999997E+02  0.45594000000E+02  0.51100000000E-03 0. -1.
         23    2    1    2    0    0  0.88817841970E-15  0.00000000000E+00 -0.44408920985E-15  0.91188000000E+02  0.91188000000E+02 0.  0.
    9900012    2    3    3    0    0 -0.57451145316E+01 -0.36289472183E+02 -0.24180288464E+01  0.54367095668E+02  0.40000026194E+02 0.  0.
        -12    1    3    3    0    0  0.57451145316E+01  0.36289472183E+02  0.24180288464E+01  0.36820904332E+02  0.00000000000E+00 0.  1.
         11    1    4    4    0    0  0.31438608034E+01 -0.19193392150E+02  0.43765958384E+01  0.19935514901E+02  0.51100000000E-03 0. -1.
        -11    1    4    4    0    0 -0.43932917453E+01  0.46253207259E+01  0.60562239598E+01  0.87961612701E+01  0.51100000000E-03 0.  1.
         12    1    4    4    0    0 -0.44956835897E+01 -0.21721400759E+02 -0.12850848645E+02  0.25635419497E+02  0.00000000000E+00 0. -1.
</event>
<event>
 8    1  0.2516265E-006  0.9118800E+02  0.7816164E-02  0.1184000E+00
        -11   -1    0    0    0    0  0.00000000000E+00  0.00000000000E+00  0.45593999997E+02  0.45594000000E+02  0.51100000000E-03 0. -1.
         11   -1    0    0    0    0 -0.00000000000E+00 -0.00000000000E+00 -0.45593999997E+02  0.45594000000E+02  0.51100000000E-03 0.  1.
         23    2    1    2    0    0  0.00000000000E+00  0.88817841970E-15  0.00000000000E+00  0.91188000000E+02  0.91188000000E+02 0.  0.
    9900012    2    3    3    0    0  0.17186344481E+02  0.64651958812E+01 -0.31915659227E+02  0.54367102424E+02  0.40000041596E+02 0.  0.
         12    1    3    3    0    0 -0.17186344481E+02 -0.64651958812E+01  0.31915659227E+02  0.36820897576E+02  0.00000000000E+00 0. -1.
         11    1    4    4    0    0 -0.10252384313E+01 -0.29757546838E+01  0.48424417473E+01  0.57754196485E+01  0.51100000000E-03 0. -1.
        -11    1    4    4    0    0  0.10658956303E+02 -0.51298820486E+01 -0.49978172677E+01  0.12841620497E+02  0.51100000000E-03 0.  1.
        -12    1    4    4    0    0  0.75526266094E+01  0.14570832614E+02 -0.31760283707E+02  0.35750062278E+02  0.00000000000E+00 0.  1.
</event>
<event>
 8    1  0.2516265E-006  0.9118800E+02  0.7816164E-02  0.1184000E+00
        -11   -1    0    0    0    0  0.00000000000E+00  0.00000000000E+00  0.45593999997E+02  0.45594000000E+02  0.51100000000E-03 0. -1.
         11   -1    0    0    0    0 -0.00000000000E+00 -0.00000000000E+00 -0.45593999997E+02  0.45594000000E+02  0.51100000000E-03 0.  1.
         23    2    1    2    0    0  0.00000000000E+00  0.00000000000E+00 -0.35527136788E-14  0.91188000000E+02  0.91188000000E+02 0.  0.
    9900012    2    3    3    0    0  0.23817095203E+02  0.10655911602E+02 -0.25980333723E+02  0.54367079094E+02  0.39999988412E+02 0.  0.
         12    1    3    3    0    0 -0.23817095203E+02 -0.10655911602E+02  0.25980333723E+02  0.36820920906E+02  0.00000000000E+00 0. -1.
         11    1    4    4    0    0 -0.37481198931E+01  0.59952964802E+01  0.42715766626E+01  0.82606507046E+01  0.51100000000E-03 0. -1.
        -11    1    4    4    0    0  0.11160228592E+02  0.83005430986E+01 -0.32187849437E+01  0.14276214300E+02  0.51100000000E-03 0.  1.
         12    1    4    4    0    0  0.16404986505E+02 -0.36399279769E+01 -0.27033125441E+02  0.31830214090E+02  0.00000000000E+00 0. -1.
</event>
<event>
 8    1  0.2516265E-006  0.9118800E+02  0.7816164E-02  0.1184000E+00
        -11   -1    0    0    0    0  0.00000000000E+00  0.00000000000E+00  0.45593999997E+02  0.45594000000E+02  0.51100000000E-03 0.  1.
         11   -1    0    0    0    0 -0.00000000000E+00 -0.00000000000E+00 -0.45593999997E+02  0.45594000000E+02  0.51100000000E-03 0. -1.
         23    2    1    2    0    0  0.00000000000E+00  0.00000000000E+00  0.00000000000E+00  0.91188000000E+02  0.91188000000E+02 0.  0.
    9900012    2    3    3    0    0 -0.31446493132E+01  0.30915813545E+02  0.19751043582E+02  0.54367081095E+02  0.39999992972E+02 0.  0.
         12    1    3    3    0    0  0.31446493132E+01 -0.30915813545E+02 -0.19751043582E+02  0.36820918905E+02  0.00000000000E+00 0. -1.
         11    1    4    4    0    0 -0.11640910332E+02  0.85817369147E+01  0.14099305442E+02  0.20197708187E+02  0.51100000000E-03 0. -1.
        -11    1    4    4    0    0  0.31963957296E+01  0.17378006114E+02  0.14406682931E+02  0.22798345455E+02  0.51100000000E-03 0.  1.
         12    1    4    4    0    0  0.52998652889E+01  0.49560705163E+01 -0.87549447902E+01  0.11371027452E+02  0.00000000000E+00 0. -1.
</event>
<event>
 8    1  0.2516265E-006  0.9118800E+02  0.7816164E-02  0.1184000E+00
        -11   -1    0    0    0    0  0.00000000000E+00  0.00000000000E+00  0.45593999997E+02  0.45594000000E+02  0.51100000000E-03 0. -1.
         11   -1    0    0    0    0 -0.00000000000E+00 -0.00000000000E+00 -0.45593999997E+02  0.45594000000E+02  0.51100000000E-03 0.  1.
         23    2    1    2    0    0  0.71054273576E-14  0.17763568394E-14  0.00000000000E+00  0.91188000000E+02  0.91188000000E+02 0.  0.
    9900012    2    3    3    0    0 -0.25140415950E+02 -0.12772173629E+02  0.23677220152E+02  0.54367086276E+02  0.40000004784E+02 0.  0.
        -12    1    3    3    0    0  0.25140415950E+02  0.12772173629E+02 -0.23677220152E+02  0.36820913724E+02  0.00000000000E+00 0.  1.
         11    1    4    4    0    0  0.30357854264E+01 -0.18004711951E+01 -0.39697653010E+00  0.35517995870E+01  0.51100000000E-03 0. -1.
        -11    1    4    4    0    0 -0.33010699423E+02 -0.10096530259E+01  0.21620038824E+02  0.39473430997E+02  0.51100000000E-03 0.  1.
        -12    1    4    4    0    0  0.48344980466E+01 -0.99620494076E+01  0.24541578579E+01  0.11341855693E+02  0.00000000000E+00 0.  1.
</event>
<event>
 8    1  0.2516265E-006  0.9118800E+02  0.7816164E-02  0.1184000E+00
        -11   -1    0    0    0    0  0.00000000000E+00  0.00000000000E+00  0.45593999997E+02  0.45594000000E+02  0.51100000000E-03 0. -1.
         11   -1    0    0    0    0 -0.00000000000E+00 -0.00000000000E+00 -0.45593999997E+02  0.45594000000E+02  0.51100000000E-03 0.  1.
         23    2    1    2    0    0 -0.17763568394E-14  0.35527136788E-14 -0.35527136788E-14  0.91188000000E+02  0.91188000000E+02 0.  0.
    9900012    2    3    3    0    0 -0.11707475840E+02 -0.24080717446E+02  0.25275161185E+02  0.54367085886E+02  0.40000003895E+02 0.  0.
        -12    1    3    3    0    0  0.11707475840E+02  0.24080717446E+02 -0.25275161185E+02  0.36820914114E+02  0.00000000000E+00 0.  1.
         11    1    4    4    0    0 -0.14838055859E+02 -0.23402836146E+02 -0.29202346727E+00  0.27711837170E+02  0.51100000000E-03 0. -1.
        -11    1    4    4    0    0  0.51935662914E+01  0.79546242803E-01  0.15370103896E+02  0.16224042420E+02  0.51100000000E-03 0.  1.
        -12    1    4    4    0    0 -0.20629862727E+01 -0.75742754235E+00  0.10197080757E+02  0.10431206296E+02  0.00000000000E+00 0.  1.
</event>
<event>
 8    1  0.2516265E-006  0.9118800E+02  0.7816164E-02  0.1184000E+00
        -11   -1    0    0    0    0  0.00000000000E+00  0.00000000000E+00  0.45593999997E+02  0.45594000000E+02  0.51100000000E-03 0.  1.
         11   -1    0    0    0    0 -0.00000000000E+00 -0.00000000000E+00 -0.45593999997E+02  0.45594000000E+02  0.51100000000E-03 0. -1.
         23    2    1    2    0    0 -0.26645352591E-14 -0.17763568394E-14 -0.71054273576E-14  0.91188000000E+02  0.91188000000E+02 0.  0.
    9900012    2    3    3    0    0  0.35748992875E+01  0.13827806396E+02  0.33938058611E+02  0.54367082617E+02  0.39999996443E+02 0.  0.
         12    1    3    3    0    0 -0.35748992875E+01 -0.13827806396E+02 -0.33938058611E+02  0.36820917383E+02  0.00000000000E+00 0. -1.
         11    1    4    4    0    0 -0.73153925782E+01  0.82368894739E+01 -0.16443600708E+01  0.11138457572E+02  0.51100000000E-03 0. -1.
        -11    1    4    4    0    0 -0.34153888467E+01  0.90590265259E+01  0.11853683291E+02  0.15304922424E+02  0.51100000000E-03 0.  1.
        -12    1    4    4    0    0  0.14305680712E+02 -0.34681096040E+01  0.23728735390E+02  0.27923702621E+02  0.00000000000E+00 0.  1.
</event>
<event>
 8    1  0.2516265E-006  0.9118800E+02  0.7816164E-02  0.1184000E+00
        -11   -1    0    0    0    0  0.00000000000E+00  0.00000000000E+00  0.45593999997E+02  0.45594000000E+02  0.51100000000E-03 0. -1.
         11   -1    0    0    0    0 -0.00000000000E+00 -0.00000000000E+00 -0.45593999997E+02  0.45594000000E+02  0.51100000000E-03 0.  1.
         23    2    1    2    0    0  0.17763568394E-14  0.00000000000E+00  0.17763568394E-14  0.91188000000E+02  0.91188000000E+02 0.  0.
    9900012    2    3    3    0    0 -0.13172547090E+02  0.33020449034E+02  0.95871525652E+01  0.54367088203E+02  0.40000009177E+02 0.  0.
        -12    1    3    3    0    0  0.13172547090E+02 -0.33020449034E+02 -0.95871525652E+01  0.36820911797E+02  0.00000000000E+00 0.  1.
         11    1    4    4    0    0 -0.67697241599E+01  0.87295691726E+01  0.68513602432E+01  0.12999064604E+02  0.51100000000E-03 0. -1.
        -11    1    4    4    0    0 -0.13269386584E+02 -0.21778629929E+01  0.38915232293E+01  0.13998702113E+02  0.51100000000E-03 0.  1.
         12    1    4    4    0    0  0.68665636543E+01  0.26468742854E+02 -0.11557309074E+01  0.27369321486E+02  0.00000000000E+00 0. -1.
</event>
<event>
 8    1  0.2516265E-006  0.9118800E+02  0.7816164E-02  0.1184000E+00
        -11   -1    0    0    0    0  0.00000000000E+00  0.00000000000E+00  0.45593999997E+02  0.45594000000E+02  0.51100000000E-03 0. -1.
         11   -1    0    0    0    0 -0.00000000000E+00 -0.00000000000E+00 -0.45593999997E+02  0.45594000000E+02  0.51100000000E-03 0.  1.
         23    2    1    2    0    0 -0.88817841970E-15  0.00000000000E+00  0.35527136788E-14  0.91188000000E+02  0.91188000000E+02 0.  0.
    9900012    2    3    3    0    0 -0.63372822458E+01 -0.20686240351E+02 -0.29794254066E+02  0.54367092061E+02  0.40000017971E+02 0.  0.
         12    1    3    3    0    0  0.63372822458E+01  0.20686240351E+02  0.29794254066E+02  0.36820907939E+02  0.00000000000E+00 0. -1.
         11    1    4    4    0    0 -0.11668680852E+02 -0.15429768757E+02 -0.59762610835E+01  0.20247260889E+02  0.51100000000E-03 0. -1.
        -11    1    4    4    0    0  0.99783392027E+01 -0.10403210144E+02 -0.72000339030E+01  0.16113178551E+02  0.51100000000E-03 0.  1.
         12    1    4    4    0    0 -0.46469405970E+01  0.51467385506E+01 -0.16617959080E+02  0.18006652620E+02  0.00000000000E+00 0. -1.
</event>
<event>
 8    1  0.2516265E-006  0.9118800E+02  0.7816164E-02  0.1184000E+00
        -11   -1    0    0    0    0  0.00000000000E+00  0.00000000000E+00  0.45593999997E+02  0.45594000000E+02  0.51100000000E-03 0.  1.
         11   -1    0    0    0    0 -0.00000000000E+00 -0.00000000000E+00 -0.45593999997E+02  0.45594000000E+02  0.51100000000E-03 0. -1.
         23    2    1    2    0    0  0.00000000000E+00 -0.35527136788E-14  0.35527136788E-14  0.91188000000E+02  0.91188000000E+02 0.  0.
    9900012    2    3    3    0    0  0.17957874397E+02 -0.23974922021E+02  0.21412563116E+02  0.54367082060E+02  0.39999995172E+02 0.  0.
         12    1    3    3    0    0 -0.17957874397E+02  0.23974922021E+02 -0.21412563116E+02  0.36820917940E+02  0.00000000000E+00 0. -1.
         11    1    4    4    0    0  0.59940860472E+01 -0.11550040394E+02 -0.18402307387E+01  0.13142258181E+02  0.51100000000E-03 0. -1.
        -11    1    4    4    0    0  0.15210835858E+02 -0.19354407399E+02  0.22809497965E+02  0.33559436988E+02  0.51100000000E-03 0.  1.
        -12    1    4    4    0    0 -0.32470475082E+01  0.69295257725E+01  0.44329588922E+00  0.76653868915E+01  0.00000000000E+00 0.  1.
</event>
<event>
 8    1  0.2516265E-006  0.9118800E+02  0.7816164E-02  0.1184000E+00
        -11   -1    0    0    0    0  0.00000000000E+00  0.00000000000E+00  0.45593999997E+02  0.45594000000E+02  0.51100000000E-03 0.  1.
         11   -1    0    0    0    0 -0.00000000000E+00 -0.00000000000E+00 -0.45593999997E+02  0.45594000000E+02  0.51100000000E-03 0. -1.
         23    2    1    2    0    0 -0.35527136788E-14  0.00000000000E+00  0.00000000000E+00  0.91188000000E+02  0.91188000000E+02 0.  0.
    9900012    2    3    3    0    0 -0.23338512701E+02  0.11927646311E+02  0.25861672686E+02  0.54367067968E+02  0.39999963046E+02 0.  0.
         12    1    3    3    0    0  0.23338512701E+02 -0.11927646311E+02 -0.25861672686E+02  0.36820932032E+02  0.00000000000E+00 0. -1.
         11    1    4    4    0    0  0.50902246956E+01  0.64515684307E+01 -0.40080531199E+01  0.91431730128E+01  0.51100000000E-03 0. -1.
        -11    1    4    4    0    0 -0.11748026478E+02  0.11698432384E+01  0.24471155949E+02  0.27170243523E+02  0.51100000000E-03 0.  1.
        -12    1    4    4    0    0 -0.16680710919E+02  0.43062346418E+01  0.53985698570E+01  0.18053651432E+02  0.00000000000E+00 0.  1.
</event>
<event>
 8    1  0.2516265E-006  0.9118800E+02  0.7816164E-02  0.1184000E+00
        -11   -1    0    0    0    0  0.00000000000E+00  0.00000000000E+00  0.45593999997E+02  0.45594000000E+02  0.51100000000E-03 0.  1.
         11   -1    0    0    0    0 -0.00000000000E+00 -0.00000000000E+00 -0.45593999997E+02  0.45594000000E+02  0.51100000000E-03 0. -1.
         23    2    1    2    0    0  0.00000000000E+00  0.00000000000E+00  0.00000000000E+00  0.91188000000E+02  0.91188000000E+02 0.  0.
    9900012    2    3    3    0    0 -0.11522519393E+02 -0.20903724409E+02 -0.28036513717E+02  0.54367078655E+02  0.39999987409E+02 0.  0.
        -12    1    3    3    0    0  0.11522519393E+02  0.20903724409E+02  0.28036513717E+02  0.36820921345E+02  0.00000000000E+00 0.  1.
         11    1    4    4    0    0 -0.43993082391E+00 -0.13305613358E+01 -0.11249226460E+02  0.11336182285E+02  0.51100000000E-03 0. -1.
        -11    1    4    4    0    0  0.35897745594E+01 -0.23387482405E+02 -0.59571521325E+01  0.24399763860E+02  0.51100000000E-03 0.  1.
        -12    1    4    4    0    0 -0.14672363129E+02  0.38143193324E+01 -0.10830135125E+02  0.18631132509E+02  0.00000000000E+00 0.  1.
</event>
<event>
 8    1  0.2516265E-006  0.9118800E+02  0.7816164E-02  0.1184000E+00
        -11   -1    0    0    0    0  0.00000000000E+00  0.00000000000E+00  0.45593999997E+02  0.45594000000E+02  0.51100000000E-03 0.  1.
         11   -1    0    0    0    0 -0.00000000000E+00 -0.00000000000E+00 -0.45593999997E+02  0.45594000000E+02  0.51100000000E-03 0. -1.
         23    2    1    2    0    0  0.00000000000E+00  0.17763568394E-14  0.00000000000E+00  0.91188000000E+02  0.91188000000E+02 0.  0.
    9900012    2    3    3    0    0  0.24465367000E+02 -0.14853532264E+02 -0.23164562091E+02  0.54367101858E+02  0.40000040305E+02 0.  0.
        -12    1    3    3    0    0 -0.24465367000E+02  0.14853532264E+02  0.23164562091E+02  0.36820898142E+02  0.00000000000E+00 0.  1.
         11    1    4    4    0    0  0.16270224660E+02 -0.10938464092E+02 -0.12197699079E+02  0.23090129282E+02  0.51100000000E-03 0.  1.
        -11    1    4    4    0    0  0.12282835449E+02 -0.11287793758E+02 -0.14532236596E+02  0.22123929021E+02  0.51100000000E-03 0. -1.
        -12    1    4    4    0    0 -0.40876931085E+01  0.73727255865E+01  0.35653735839E+01  0.91530435548E+01  0.00000000000E+00 0.  1.
</event>
<event>
 8    1  0.2516265E-006  0.9118800E+02  0.7816164E-02  0.1184000E+00
        -11   -1    0    0    0    0  0.00000000000E+00  0.00000000000E+00  0.45593999997E+02  0.45594000000E+02  0.51100000000E-03 0. -1.
         11   -1    0    0    0    0 -0.00000000000E+00 -0.00000000000E+00 -0.45593999997E+02  0.45594000000E+02  0.51100000000E-03 0.  1.
         23    2    1    2    0    0  0.00000000000E+00  0.35527136788E-14  0.00000000000E+00  0.91188000000E+02  0.91188000000E+02 0.  0.
    9900012    2    3    3    0    0 -0.57388793777E+01 -0.24672453067E+02 -0.26722929945E+02  0.54367086625E+02  0.40000005580E+02 0.  0.
         12    1    3    3    0    0  0.57388793777E+01  0.24672453067E+02  0.26722929945E+02  0.36820913375E+02  0.00000000000E+00 0. -1.
         11    1    4    4    0    0 -0.25040583977E+00  0.69331737256E+01 -0.97757099042E+01  0.11987331037E+02  0.51100000000E-03 0. -1.
        -11    1    4    4    0    0 -0.73094424567E+01 -0.46281994957E+01 -0.12155040359E+02  0.14919557164E+02  0.51100000000E-03 0.  1.
        -12    1    4    4    0    0  0.18209689187E+01 -0.26977427297E+02 -0.47921796822E+01  0.27460198424E+02  0.00000000000E+00 0.  1.
</event>
<event>
 8    1  0.2516265E-006  0.9118800E+02  0.7816164E-02  0.1184000E+00
        -11   -1    0    0    0    0  0.00000000000E+00  0.00000000000E+00  0.45593999997E+02  0.45594000000E+02  0.51100000000E-03 0.  1.
         11   -1    0    0    0    0 -0.00000000000E+00 -0.00000000000E+00 -0.45593999997E+02  0.45594000000E+02  0.51100000000E-03 0. -1.
         23    2    1    2    0    0  0.00000000000E+00  0.00000000000E+00 -0.71054273576E-14  0.91188000000E+02  0.91188000000E+02 0.  0.
    9900012    2    3    3    0    0 -0.11666688911E+02  0.13098407635E+02  0.32374384132E+02  0.54367073061E+02  0.39999974658E+02 0.  0.
         12    1    3    3    0    0  0.11666688911E+02 -0.13098407635E+02 -0.32374384132E+02  0.36820926939E+02  0.00000000000E+00 0. -1.
         11    1    4    4    0    0 -0.18054296083E+02  0.47362913927E+01  0.31658036063E+01  0.18931782165E+02  0.51100000000E-03 0. -1.
        -11    1    4    4    0    0  0.53760694987E+01 -0.21758438495E+01  0.21686502018E+02  0.22448625565E+02  0.51100000000E-03 0.  1.
         12    1    4    4    0    0  0.10115376739E+01  0.10537960091E+02  0.75220785080E+01  0.12986665332E+02  0.00000000000E+00 0. -1.
</event>
<event>
 8    1  0.2516265E-006  0.9118800E+02  0.7816164E-02  0.1184000E+00
        -11   -1    0    0    0    0  0.00000000000E+00  0.00000000000E+00  0.45593999997E+02  0.45594000000E+02  0.51100000000E-03 0. -1.
         11   -1    0    0    0    0 -0.00000000000E+00 -0.00000000000E+00 -0.45593999997E+02  0.45594000000E+02  0.51100000000E-03 0.  1.
         23    2    1    2    0    0  0.14210854715E-13 -0.17763568394E-14  0.17763568394E-14  0.91188000000E+02  0.91188000000E+02 0.  0.
    9900012    2    3    3    0    0 -0.35712991654E+02  0.44029878584E+01 -0.78086705872E+01  0.54367090026E+02  0.40000013333E+02 0.  0.
         12    1    3    3    0    0  0.35712991654E+02 -0.44029878584E+01  0.78086705872E+01  0.36820909974E+02  0.00000000000E+00 0. -1.
         11    1    4    4    0    0  0.38775557654E+01 -0.11216793941E+01 -0.54321414183E-01  0.40368991137E+01  0.51100000000E-03 0. -1.
        -11    1    4    4    0    0 -0.17622697249E+02  0.14789112270E+02 -0.12256714289E+02  0.26067304147E+02  0.51100000000E-03 0.  1.
         12    1    4    4    0    0 -0.21967850170E+02 -0.92644450175E+01  0.45023651160E+01  0.24262886766E+02  0.00000000000E+00 0. -1.
</event>
<event>
 8    1  0.2516265E-006  0.9118800E+02  0.7816164E-02  0.1184000E+00
        -11   -1    0    0    0    0  0.00000000000E+00  0.00000000000E+00  0.45593999997E+02  0.45594000000E+02  0.51100000000E-03 0. -1.
         11   -1    0    0    0    0 -0.00000000000E+00 -0.00000000000E+00 -0.45593999997E+02  0.45594000000E+02  0.51100000000E-03 0.  1.
         23    2    1    2    0    0  0.00000000000E+00 -0.35527136788E-14  0.17763568394E-14  0.91188000000E+02  0.91188000000E+02 0.  0.
    9900012    2    3    3    0    0 -0.32179657503E+02  0.17200157274E+02 -0.49401379227E+01  0.54367072120E+02  0.39999972512E+02 0.  0.
         12    1    3    3    0    0  0.32179657503E+02 -0.17200157274E+02  0.49401379227E+01  0.36820927880E+02  0.00000000000E+00 0. -1.
         11    1    4    4    0    0 -0.27550480352E+02  0.72832048644E+01 -0.18239051346E+02  0.33833962744E+02  0.51100000000E-03 0.  1.
        -11    1    4    4    0    0 -0.46821478628E+01  0.71233049556E+00  0.94217411368E+01  0.10545099793E+02  0.51100000000E-03 0. -1.
        -12    1    4    4    0    0  0.52970711940E-01  0.92046219139E+01  0.38771722867E+01  0.99880095822E+01  0.00000000000E+00 0.  1.
</event>
<event>
 8    1  0.2516265E-006  0.9118800E+02  0.7816164E-02  0.1184000E+00
        -11   -1    0    0    0    0  0.00000000000E+00  0.00000000000E+00  0.45593999997E+02  0.45594000000E+02  0.51100000000E-03 0. -1.
         11   -1    0    0    0    0 -0.00000000000E+00 -0.00000000000E+00 -0.45593999997E+02  0.45594000000E+02  0.51100000000E-03 0.  1.
         23    2    1    2    0    0  0.35527136788E-14  0.35527136788E-14  0.35527136788E-14  0.91188000000E+02  0.91188000000E+02 0.  0.
    9900012    2    3    3    0    0 -0.22833407273E+02 -0.16915021693E+02 -0.23415751078E+02  0.54367084135E+02  0.39999999903E+02 0.  0.
         12    1    3    3    0    0  0.22833407273E+02  0.16915021693E+02  0.23415751078E+02  0.36820915865E+02  0.00000000000E+00 0. -1.
         11    1    4    4    0    0 -0.96725018232E+01 -0.13234242307E+02 -0.11776005952E+02  0.20183576923E+02  0.51100000000E-03 0. -1.
        -11    1    4    4    0    0 -0.15418048256E+02 -0.17202947328E+01 -0.19996070024E+02  0.25308465830E+02  0.51100000000E-03 0.  1.
         12    1    4    4    0    0  0.22571428066E+01 -0.19604846533E+01  0.83563248985E+01  0.88750413822E+01  0.00000000000E+00 0. -1.
</event>
<event>
 8    1  0.2516265E-006  0.9118800E+02  0.7816164E-02  0.1184000E+00
        -11   -1    0    0    0    0  0.00000000000E+00  0.00000000000E+00  0.45593999997E+02  0.45594000000E+02  0.51100000000E-03 0. -1.
         11   -1    0    0    0    0 -0.00000000000E+00 -0.00000000000E+00 -0.45593999997E+02  0.45594000000E+02  0.51100000000E-03 0.  1.
         23    2    1    2    0    0  0.00000000000E+00  0.94368957093E-15 -0.35527136788E-14  0.91188000000E+02  0.91188000000E+02 0.  0.
    9900012    2    3    3    0    0 -0.27377776076E+02  0.24224981274E+00 -0.24620636429E+02  0.54367122145E+02  0.40000086555E+02 0.  0.
         12    1    3    3    0    0  0.27377776076E+02 -0.24224981274E+00  0.24620636429E+02  0.36820877855E+02  0.00000000000E+00 0. -1.
         11    1    4    4    0    0 -0.57155951380E+00  0.83345747897E+01  0.58791751669E+01  0.10215503811E+02  0.51100000000E-03 0. -1.
        -11    1    4    4    0    0 -0.10708978790E+02  0.40673120947E+01 -0.14002620310E+02  0.18091396580E+02  0.51100000000E-03 0.  1.
         12    1    4    4    0    0 -0.16097237773E+02 -0.12159637072E+02 -0.16497191285E+02  0.26060221755E+02  0.00000000000E+00 0. -1.
</event>
<event>
 8    1  0.2516265E-006  0.9118800E+02  0.7816164E-02  0.1184000E+00
        -11   -1    0    0    0    0  0.00000000000E+00  0.00000000000E+00  0.45593999997E+02  0.45594000000E+02  0.51100000000E-03 0.  1.
         11   -1    0    0    0    0 -0.00000000000E+00 -0.00000000000E+00 -0.45593999997E+02  0.45594000000E+02  0.51100000000E-03 0. -1.
         23    2    1    2    0    0  0.17763568394E-14  0.00000000000E+00  0.00000000000E+00  0.91188000000E+02  0.91188000000E+02 0.  0.
    9900012    2    3    3    0    0  0.14317588990E+02 -0.25775384895E+02  0.22054793878E+02  0.54367112532E+02  0.40000064638E+02 0.  0.
         12    1    3    3    0    0 -0.14317588990E+02  0.25775384895E+02 -0.22054793878E+02  0.36820887468E+02  0.00000000000E+00 0. -1.
         11    1    4    4    0    0  0.40293490712E+01 -0.13492495844E+02 -0.33471992342E+01  0.14473660250E+02  0.51100000000E-03 0. -1.
        -11    1    4    4    0    0  0.12439587067E+02  0.22141854416E+01  0.27774801800E+01  0.12936782443E+02  0.51100000000E-03 0.  1.
        -12    1    4    4    0    0 -0.21513471488E+01 -0.14497074492E+02  0.22624512932E+02  0.26956669839E+02  0.00000000000E+00 0.  1.
</event>
<event>
 8    1  0.2516265E-006  0.9118800E+02  0.7816164E-02  0.1184000E+00
        -11   -1    0    0    0    0  0.00000000000E+00  0.00000000000E+00  0.45593999997E+02  0.45594000000E+02  0.51100000000E-03 0.  1.
         11   -1    0    0    0    0 -0.00000000000E+00 -0.00000000000E+00 -0.45593999997E+02  0.45594000000E+02  0.51100000000E-03 0. -1.
         23    2    1    2    0    0  0.00000000000E+00 -0.35527136788E-14  0.00000000000E+00  0.91188000000E+02  0.91188000000E+02 0.  0.
    9900012    2    3    3    0    0 -0.10443487690E+02 -0.27020355781E+02 -0.22729139002E+02  0.54367084457E+02  0.40000000637E+02 0.  0.
        -12    1    3    3    0    0  0.10443487690E+02  0.27020355781E+02  0.22729139002E+02  0.36820915543E+02  0.00000000000E+00 0.  1.
         11    1    4    4    0    0 -0.18160879813E+01 -0.29376333041E+01 -0.29531110654E+01  0.45440873903E+01  0.51100000000E-03 0. -1.
        -11    1    4    4    0    0  0.92824920559E+01 -0.11860944719E+01 -0.18492506981E+02  0.20725450383E+02  0.51100000000E-03 0.  1.
        -12    1    4    4    0    0 -0.17909891764E+02 -0.22896628005E+02 -0.12835209554E+01  0.29097546684E+02  0.00000000000E+00 0.  1.
</event>
<event>
 8    1  0.2516265E-006  0.9118800E+02  0.7816164E-02  0.1184000E+00
        -11   -1    0    0    0    0  0.00000000000E+00  0.00000000000E+00  0.45593999997E+02  0.45594000000E+02  0.51100000000E-03 0.  1.
         11   -1    0    0    0    0 -0.00000000000E+00 -0.00000000000E+00 -0.45593999997E+02  0.45594000000E+02  0.51100000000E-03 0. -1.
         23    2    1    2    0    0 -0.63837823916E-15  0.00000000000E+00  0.00000000000E+00  0.91188000000E+02  0.91188000000E+02 0.  0.
    9900012    2    3    3    0    0 -0.22120520740E+00  0.10621436570E+02  0.35255008542E+02  0.54367089177E+02  0.40000011397E+02 0.  0.
         12    1    3    3    0    0  0.22120520740E+00 -0.10621436570E+02 -0.35255008542E+02  0.36820910823E+02  0.00000000000E+00 0. -1.
         11    1    4    4    0    0 -0.77460624690E+01  0.14207543423E+00  0.19058217429E+02  0.20572732464E+02  0.51100000000E-03 0. -1.
        -11    1    4    4    0    0  0.90558885741E+01 -0.55055845987E+01 -0.52446503845E+00  0.10611109437E+02  0.51100000000E-03 0.  1.
        -12    1    4    4    0    0 -0.15310313125E+01  0.15984945734E+02  0.16721256151E+02  0.23183247276E+02  0.00000000000E+00 0.  1.
</event>
<event>
 8    1  0.2516265E-006  0.9118800E+02  0.7816164E-02  0.1184000E+00
        -11   -1    0    0    0    0  0.00000000000E+00  0.00000000000E+00  0.45593999997E+02  0.45594000000E+02  0.51100000000E-03 0.  1.
         11   -1    0    0    0    0 -0.00000000000E+00 -0.00000000000E+00 -0.45593999997E+02  0.45594000000E+02  0.51100000000E-03 0. -1.
         23    2    1    2    0    0  0.17763568394E-14  0.66613381478E-15  0.71054273576E-14  0.91188000000E+02  0.91188000000E+02 0.  0.
    9900012    2    3    3    0    0  0.15648856848E+02  0.16372966846E+01  0.33289613840E+02  0.54367274169E+02  0.40000433121E+02 0.  0.
         12    1    3    3    0    0 -0.15648856848E+02 -0.16372966846E+01 -0.33289613840E+02  0.36820725831E+02  0.00000000000E+00 0. -1.
         11    1    4    4    0    0 -0.30346382764E+01 -0.39537432809E+01  0.13463070874E+02  0.14356022883E+02  0.51100000000E-03 0. -1.
        -11    1    4    4    0    0  0.82322336774E+01  0.84815159233E+01  0.25255514938E+02  0.27884526511E+02  0.51100000000E-03 0.  1.
         12    1    4    4    0    0  0.10451261447E+02 -0.28904759578E+01 -0.54289719719E+01  0.12126724775E+02  0.00000000000E+00 0. -1.
</event>
<event>
 8    1  0.2516265E-006  0.9118800E+02  0.7816164E-02  0.1184000E+00
        -11   -1    0    0    0    0  0.00000000000E+00  0.00000000000E+00  0.45593999997E+02  0.45594000000E+02  0.51100000000E-03 0.  1.
         11   -1    0    0    0    0 -0.00000000000E+00 -0.00000000000E+00 -0.45593999997E+02  0.45594000000E+02  0.51100000000E-03 0. -1.
         23    2    1    2    0    0  0.00000000000E+00  0.00000000000E+00 -0.35527136788E-14  0.91188000000E+02  0.91188000000E+02 0.  0.
    9900012    2    3    3    0    0  0.23768968674E+02  0.22667828256E+02 -0.16642889528E+02  0.54367080925E+02  0.39999992585E+02 0.  0.
        -12    1    3    3    0    0 -0.23768968674E+02 -0.22667828256E+02  0.16642889528E+02  0.36820919075E+02  0.00000000000E+00 0.  1.
         11    1    4    4    0    0  0.97101087243E+01  0.12031696957E+02 -0.33657759643E+01  0.15823286359E+02  0.51100000000E-03 0. -1.
        -11    1    4    4    0    0  0.35845201966E+01  0.17326191622E+02  0.31227091427E+01  0.17966552642E+02  0.51100000000E-03 0.  1.
        -12    1    4    4    0    0  0.10474339754E+02 -0.66900603232E+01 -0.16399822707E+02  0.20577241924E+02  0.00000000000E+00 0.  1.
</event>
<event>
 8    1  0.2516265E-006  0.9118800E+02  0.7816164E-02  0.1184000E+00
        -11   -1    0    0    0    0  0.00000000000E+00  0.00000000000E+00  0.45593999997E+02  0.45594000000E+02  0.51100000000E-03 0.  1.
         11   -1    0    0    0    0 -0.00000000000E+00 -0.00000000000E+00 -0.45593999997E+02  0.45594000000E+02  0.51100000000E-03 0. -1.
         23    2    1    2    0    0 -0.35527136788E-14  0.26645352591E-14  0.00000000000E+00  0.91188000000E+02  0.91188000000E+02 0.  0.
    9900012    2    3    3    0    0 -0.27024808532E+02  0.69512390777E+01  0.24023326171E+02  0.54367079300E+02  0.39999988880E+02 0.  0.
         12    1    3    3    0    0  0.27024808532E+02 -0.69512390777E+01 -0.24023326171E+02  0.36820920700E+02  0.00000000000E+00 0. -1.
         11    1    4    4    0    0  0.27351960111E+01 -0.56192112704E+01  0.39373058194E+01  0.73864206418E+01  0.51100000000E-03 0.  1.
        -11    1    4    4    0    0 -0.14014894541E+01 -0.69757443585E+01  0.11161198582E-01  0.71151463006E+01  0.51100000000E-03 0. -1.
         12    1    4    4    0    0 -0.28358515089E+02  0.19546194707E+02  0.20074859153E+02  0.39865512358E+02  0.00000000000E+00 0. -1.
</event>
<event>
 8    1  0.2516265E-006  0.9118800E+02  0.7816164E-02  0.1184000E+00
        -11   -1    0    0    0    0  0.00000000000E+00  0.00000000000E+00  0.45593999997E+02  0.45594000000E+02  0.51100000000E-03 0. -1.
         11   -1    0    0    0    0 -0.00000000000E+00 -0.00000000000E+00 -0.45593999997E+02  0.45594000000E+02  0.51100000000E-03 0.  1.
         23    2    1    2    0    0  0.22204460493E-15  0.00000000000E+00  0.00000000000E+00  0.91188000000E+02  0.91188000000E+02 0.  0.
    9900012    2    3    3    0    0 -0.17266237014E+01  0.32794196526E+02  0.16653573763E+02  0.54367053865E+02  0.39999930897E+02 0.  0.
        -12    1    3    3    0    0  0.17266237014E+01 -0.32794196526E+02 -0.16653573763E+02  0.36820946135E+02  0.00000000000E+00 0.  1.
         11    1    4    4    0    0  0.67246066432E+01  0.68485419364E+01  0.18219898959E+02  0.20593386790E+02  0.51100000000E-03 0. -1.
        -11    1    4    4    0    0  0.32156984712E+01  0.20195627208E+01  0.50752280213E+01  0.63385558269E+01  0.51100000000E-03 0.  1.
        -12    1    4    4    0    0 -0.11666928816E+02  0.23926091868E+02 -0.66415532169E+01  0.27435111248E+02  0.00000000000E+00 0.  1.
</event>
<event>
 8    1  0.2516265E-006  0.9118800E+02  0.7816164E-02  0.1184000E+00
        -11   -1    0    0    0    0  0.00000000000E+00  0.00000000000E+00  0.45593999997E+02  0.45594000000E+02  0.51100000000E-03 0. -1.
         11   -1    0    0    0    0 -0.00000000000E+00 -0.00000000000E+00 -0.45593999997E+02  0.45594000000E+02  0.51100000000E-03 0.  1.
         23    2    1    2    0    0 -0.88817841970E-15  0.00000000000E+00  0.71054273576E-14  0.91188000000E+02  0.91188000000E+02 0.  0.
    9900012    2    3    3    0    0 -0.79106741604E+01 -0.32697861542E+01  0.35812143528E+02  0.54367083509E+02  0.39999998476E+02 0.  0.
        -12    1    3    3    0    0  0.79106741604E+01  0.32697861542E+01 -0.35812143528E+02  0.36820916491E+02  0.00000000000E+00 0.  1.
         11    1    4    4    0    0 -0.79601134837E+01  0.84502876467E+01  0.55427175002E+01  0.12864388269E+02  0.51100000000E-03 0. -1.
        -11    1    4    4    0    0  0.10357725192E+02 -0.36701765197E+01  0.32097209310E+01  0.11447924509E+02  0.51100000000E-03 0.  1.
        -12    1    4    4    0    0 -0.10308285869E+02 -0.80498972813E+01  0.27059705097E+02  0.30054770731E+02  0.00000000000E+00 0.  1.
</event>
<event>
 8    1  0.2516265E-006  0.9118800E+02  0.7816164E-02  0.1184000E+00
        -11   -1    0    0    0    0  0.00000000000E+00  0.00000000000E+00  0.45593999997E+02  0.45594000000E+02  0.51100000000E-03 0. -1.
         11   -1    0    0    0    0 -0.00000000000E+00 -0.00000000000E+00 -0.45593999997E+02  0.45594000000E+02  0.51100000000E-03 0.  1.
         23    2    1    2    0    0  0.00000000000E+00  0.17763568394E-14 -0.35527136788E-14  0.91188000000E+02  0.91188000000E+02 0.  0.
    9900012    2    3    3    0    0  0.16266593796E+02  0.13368571775E+02 -0.30206956920E+02  0.54367068027E+02  0.39999963181E+02 0.  0.
         12    1    3    3    0    0 -0.16266593796E+02 -0.13368571775E+02  0.30206956920E+02  0.36820931973E+02  0.00000000000E+00 0. -1.
         11    1    4    4    0    0 -0.16381649448E+01  0.93540030105E+01 -0.25111046434E+01  0.98227594646E+01  0.51100000000E-03 0. -1.
        -11    1    4    4    0    0  0.11184338776E+02  0.14377936772E+02 -0.26469744167E+02  0.32131944482E+02  0.51100000000E-03 0.  1.
         12    1    4    4    0    0  0.67204199652E+01 -0.10363368007E+02 -0.12261081089E+01  0.12412364080E+02  0.00000000000E+00 0. -1.
</event>
<event>
 8    1  0.2516265E-006  0.9118800E+02  0.7816164E-02  0.1184000E+00
        -11   -1    0    0    0    0  0.00000000000E+00  0.00000000000E+00  0.45593999997E+02  0.45594000000E+02  0.51100000000E-03 0.  1.
         11   -1    0    0    0    0 -0.00000000000E+00 -0.00000000000E+00 -0.45593999997E+02  0.45594000000E+02  0.51100000000E-03 0. -1.
         23    2    1    2    0    0  0.00000000000E+00 -0.35527136788E-14  0.15543122345E-14  0.91188000000E+02  0.91188000000E+02 0.  0.
    9900012    2    3    3    0    0  0.26729213894E+02 -0.25295837230E+02  0.12039092863E+01  0.54367086728E+02  0.40000005814E+02 0.  0.
        -12    1    3    3    0    0 -0.26729213894E+02  0.25295837230E+02 -0.12039092863E+01  0.36820913272E+02  0.00000000000E+00 0.  1.
         11    1    4    4    0    0  0.15969806462E+02 -0.15914057635E+02  0.94308865559E+01  0.24438362677E+02  0.51100000000E-03 0. -1.
        -11    1    4    4    0    0  0.11037191566E+02  0.52988640187E+01 -0.90460369614E+01  0.15222626006E+02  0.51100000000E-03 0.  1.
         12    1    4    4    0    0 -0.27778413319E+00 -0.14680643614E+02  0.81905969176E+00  0.14706098045E+02  0.00000000000E+00 0. -1.
</event>
<event>
 8    1  0.2516265E-006  0.9118800E+02  0.7816164E-02  0.1184000E+00
        -11   -1    0    0    0    0  0.00000000000E+00  0.00000000000E+00  0.45593999997E+02  0.45594000000E+02  0.51100000000E-03 0.  1.
         11   -1    0    0    0    0 -0.00000000000E+00 -0.00000000000E+00 -0.45593999997E+02  0.45594000000E+02  0.51100000000E-03 0. -1.
         23    2    1    2    0    0 -0.17763568394E-14  0.00000000000E+00  0.00000000000E+00  0.91188000000E+02  0.91188000000E+02 0.  0.
    9900012    2    3    3    0    0 -0.95551340450E+01 -0.17867641246E+02  0.30744529870E+02  0.54367091439E+02  0.40000016554E+02 0.  0.
         12    1    3    3    0    0  0.95551340450E+01  0.17867641246E+02 -0.30744529870E+02  0.36820908561E+02  0.00000000000E+00 0. -1.
         11    1    4    4    0    0 -0.48739643604E+01 -0.19886384552E+01 -0.57312238951E+01  0.77818467660E+01  0.51100000000E-03 0. -1.
        -11    1    4    4    0    0 -0.53762930620E+01  0.29422174630E+01  0.21980727371E+02  0.22819148685E+02  0.51100000000E-03 0.  1.
        -12    1    4    4    0    0  0.69512337746E+00 -0.18821220254E+02  0.14495026394E+02  0.23766095988E+02  0.00000000000E+00 0.  1.
</event>
<event>
 8    1  0.2516265E-006  0.9118800E+02  0.7816164E-02  0.1184000E+00
        -11   -1    0    0    0    0  0.00000000000E+00  0.00000000000E+00  0.45593999997E+02  0.45594000000E+02  0.51100000000E-03 0. -1.
         11   -1    0    0    0    0 -0.00000000000E+00 -0.00000000000E+00 -0.45593999997E+02  0.45594000000E+02  0.51100000000E-03 0.  1.
         23    2    1    2    0    0 -0.35527136788E-14 -0.22204460493E-15 -0.71054273576E-14  0.91188000000E+02  0.91188000000E+02 0.  0.
    9900012    2    3    3    0    0 -0.18592099559E+02 -0.92363508035E+00 -0.31768953981E+02  0.54367004565E+02  0.39999818506E+02 0.  0.
         12    1    3    3    0    0  0.18592099559E+02  0.92363508035E+00  0.31768953981E+02  0.36820995435E+02  0.00000000000E+00 0. -1.
         11    1    4    4    0    0 -0.77580786430E+01  0.11356759763E+01  0.34070017404E+01  0.85489885528E+01  0.51100000000E-03 0. -1.
        -11    1    4    4    0    0 -0.58236368031E+01 -0.82058089659E+01 -0.31576255171E+00  0.10067261427E+02  0.51100000000E-03 0.  1.
        -12    1    4    4    0    0 -0.50103841130E+01  0.61464979093E+01 -0.34860193170E+02  0.35750754585E+02  0.00000000000E+00 0.  1.
</event>
<event>
 8    1  0.2516265E-006  0.9118800E+02  0.7816164E-02  0.1184000E+00
        -11   -1    0    0    0    0  0.00000000000E+00  0.00000000000E+00  0.45593999997E+02  0.45594000000E+02  0.51100000000E-03 0.  1.
         11   -1    0    0    0    0 -0.00000000000E+00 -0.00000000000E+00 -0.45593999997E+02  0.45594000000E+02  0.51100000000E-03 0. -1.
         23    2    1    2    0    0  0.88817841970E-15  0.00000000000E+00  0.00000000000E+00  0.91188000000E+02  0.91188000000E+02 0.  0.
    9900012    2    3    3    0    0  0.60515708065E+00 -0.45746555681E+01  0.36530609273E+02  0.54367094219E+02  0.40000022891E+02 0.  0.
         12    1    3    3    0    0 -0.60515708065E+00  0.45746555681E+01 -0.36530609273E+02  0.36820905781E+02  0.00000000000E+00 0. -1.
         11    1    4    4    0    0 -0.12257748839E+02 -0.77228614307E+01  0.44975592356E+01  0.15169806677E+02  0.51100000000E-03 0. -1.
        -11    1    4    4    0    0  0.29918186794E+00  0.87729013898E+01  0.11258891191E+02  0.14276412004E+02  0.51100000000E-03 0.  1.
        -12    1    4    4    0    0  0.12563724051E+02 -0.56246955272E+01  0.20774158847E+02  0.24920875538E+02  0.00000000000E+00 0.  1.
</event>
<event>
 8    1  0.2516265E-006  0.9118800E+02  0.7816164E-02  0.1184000E+00
        -11   -1    0    0    0    0  0.00000000000E+00  0.00000000000E+00  0.45593999997E+02  0.45594000000E+02  0.51100000000E-03 0. -1.
         11   -1    0    0    0    0 -0.00000000000E+00 -0.00000000000E+00 -0.45593999997E+02  0.45594000000E+02  0.51100000000E-03 0.  1.
         23    2    1    2    0    0  0.35527136788E-14  0.00000000000E+00  0.35527136788E-14  0.91188000000E+02  0.91188000000E+02 0.  0.
    9900012    2    3    3    0    0  0.18761307720E+02  0.74449579390E+01  0.30795505092E+02  0.54367120054E+02  0.40000081788E+02 0.  0.
        -12    1    3    3    0    0 -0.18761307720E+02 -0.74449579390E+01 -0.30795505092E+02  0.36820879946E+02  0.00000000000E+00 0.  1.
         11    1    4    4    0    0 -0.30183027187E+01  0.68922789154E+01 -0.90898024338E+00  0.75789118805E+01  0.51100000000E-03 0. -1.
        -11    1    4    4    0    0 -0.25294993865E+01 -0.72601303850E+00 -0.32567337677E+01  0.41870965087E+01  0.51100000000E-03 0.  1.
         12    1    4    4    0    0  0.24309109825E+02  0.12786920621E+01  0.34961219104E+02  0.42601111665E+02  0.00000000000E+00 0. -1.
</event>
<event>
 8    1  0.2516265E-006  0.9118800E+02  0.7816164E-02  0.1184000E+00
        -11   -1    0    0    0    0  0.00000000000E+00  0.00000000000E+00  0.45593999997E+02  0.45594000000E+02  0.51100000000E-03 0. -1.
         11   -1    0    0    0    0 -0.00000000000E+00 -0.00000000000E+00 -0.45593999997E+02  0.45594000000E+02  0.51100000000E-03 0.  1.
         23    2    1    2    0    0  0.00000000000E+00  0.35527136788E-14 -0.88817841970E-15  0.91188000000E+02  0.91188000000E+02 0.  0.
    9900012    2    3    3    0    0 -0.26254186365E+02 -0.25716763736E+02  0.22688279924E+01  0.54367057328E+02  0.39999938791E+02 0.  0.
        -12    1    3    3    0    0  0.26254186365E+02  0.25716763736E+02 -0.22688279924E+01  0.36820942672E+02  0.00000000000E+00 0.  1.
         11    1    4    4    0    0 -0.12762677231E+02 -0.14776578128E+02 -0.58787603984E+01  0.20391003294E+02  0.51100000000E-03 0. -1.
        -11    1    4    4    0    0  0.45222237642E+00 -0.11194988151E+02 -0.71378155696E+01  0.13284602973E+02  0.51100000000E-03 0.  1.
         12    1    4    4    0    0 -0.13943731511E+02  0.25480254263E+00  0.15285403960E+02  0.20691451061E+02  0.00000000000E+00 0. -1.
</event>
<event>
 8    1  0.2516265E-006  0.9118800E+02  0.7816164E-02  0.1184000E+00
        -11   -1    0    0    0    0  0.00000000000E+00  0.00000000000E+00  0.45593999997E+02  0.45594000000E+02  0.51100000000E-03 0. -1.
         11   -1    0    0    0    0 -0.00000000000E+00 -0.00000000000E+00 -0.45593999997E+02  0.45594000000E+02  0.51100000000E-03 0.  1.
         23    2    1    2    0    0  0.00000000000E+00  0.00000000000E+00  0.88817841970E-15  0.91188000000E+02  0.91188000000E+02 0.  0.
    9900012    2    3    3    0    0 -0.35136531338E+02 -0.78892073027E+01 -0.76788134836E+01  0.54367087425E+02  0.40000007404E+02 0.  0.
         12    1    3    3    0    0  0.35136531338E+02  0.78892073027E+01  0.76788134836E+01  0.36820912575E+02  0.00000000000E+00 0. -1.
         11    1    4    4    0    0 -0.33509869124E+02 -0.28032307509E+01  0.92993821808E+01  0.34889080535E+02  0.51100000000E-03 0. -1.
        -11    1    4    4    0    0  0.32452672224E+00 -0.28319360570E+01 -0.70819817876E+00  0.29371285886E+01  0.51100000000E-03 0.  1.
        -12    1    4    4    0    0 -0.19511889357E+01 -0.22540404948E+01 -0.16269997486E+02  0.16540878302E+02  0.00000000000E+00 0.  1.
</event>
<event>
 8    1  0.2516265E-006  0.9118800E+02  0.7816164E-02  0.1184000E+00
        -11   -1    0    0    0    0  0.00000000000E+00  0.00000000000E+00  0.45593999997E+02  0.45594000000E+02  0.51100000000E-03 0. -1.
         11   -1    0    0    0    0 -0.00000000000E+00 -0.00000000000E+00 -0.45593999997E+02  0.45594000000E+02  0.51100000000E-03 0.  1.
         23    2    1    2    0    0  0.71054273576E-14  0.00000000000E+00  0.88817841970E-15  0.91188000000E+02  0.91188000000E+02 0.  0.
    9900012    2    3    3    0    0 -0.20914748936E+02 -0.29776638597E+02 -0.56307360179E+01  0.54367080439E+02  0.39999991477E+02 0.  0.
         12    1    3    3    0    0  0.20914748936E+02  0.29776638597E+02  0.56307360179E+01  0.36820919561E+02  0.00000000000E+00 0. -1.
         11    1    4    4    0    0  0.26800799552E+01  0.27434730565E+00  0.99720537555E+01  0.10329566853E+02  0.51100000000E-03 0. -1.
        -11    1    4    4    0    0 -0.34278628120E+01 -0.14724882069E+02 -0.18962199735E+01  0.15237061589E+02  0.51100000000E-03 0.  1.
        -12    1    4    4    0    0 -0.20166966079E+02 -0.15326103834E+02 -0.13706569800E+02  0.28800451997E+02  0.00000000000E+00 0.  1.
</event>
<event>
 8    1  0.2516265E-006  0.9118800E+02  0.7816164E-02  0.1184000E+00
        -11   -1    0    0    0    0  0.00000000000E+00  0.00000000000E+00  0.45593999997E+02  0.45594000000E+02  0.51100000000E-03 0. -1.
         11   -1    0    0    0    0 -0.00000000000E+00 -0.00000000000E+00 -0.45593999997E+02  0.45594000000E+02  0.51100000000E-03 0.  1.
         23    2    1    2    0    0  0.00000000000E+00  0.00000000000E+00  0.00000000000E+00  0.91188000000E+02  0.91188000000E+02 0.  0.
    9900012    2    3    3    0    0  0.32013661064E+02  0.81620421790E+01  0.16256968338E+02  0.54367048806E+02  0.39999919364E+02 0.  0.
         12    1    3    3    0    0 -0.32013661064E+02 -0.81620421790E+01 -0.16256968338E+02  0.36820951194E+02  0.00000000000E+00 0. -1.
         11    1    4    4    0    0 -0.46631376719E+01 -0.79140686309E+01  0.19529541774E+01  0.93910257971E+01  0.51100000000E-03 0.  1.
        -11    1    4    4    0    0  0.69330515023E+01  0.10098030131E+02  0.51392650295E+01  0.13283428058E+02  0.51100000000E-03 0. -1.
        -12    1    4    4    0    0  0.29743747234E+02  0.59780806786E+01  0.91647491308E+01  0.31692594951E+02  0.00000000000E+00 0.  1.
</event>
<event>
 8    1  0.2516265E-006  0.9118800E+02  0.7816164E-02  0.1184000E+00
        -11   -1    0    0    0    0  0.00000000000E+00  0.00000000000E+00  0.45593999997E+02  0.45594000000E+02  0.51100000000E-03 0. -1.
         11   -1    0    0    0    0 -0.00000000000E+00 -0.00000000000E+00 -0.45593999997E+02  0.45594000000E+02  0.51100000000E-03 0.  1.
         23    2    1    2    0    0  0.00000000000E+00  0.00000000000E+00  0.00000000000E+00  0.91188000000E+02  0.91188000000E+02 0.  0.
    9900012    2    3    3    0    0 -0.31717215156E+02  0.95824661539E+01  0.16061596367E+02  0.54367078329E+02  0.39999986666E+02 0.  0.
        -12    1    3    3    0    0  0.31717215156E+02 -0.95824661539E+01 -0.16061596367E+02  0.36820921671E+02  0.00000000000E+00 0.  1.
         11    1    4    4    0    0 -0.26338139561E+01  0.46373896224E+01 -0.51729496397E+01  0.74297891424E+01  0.51100000000E-03 0. -1.
        -11    1    4    4    0    0 -0.51358277118E+01 -0.34518026025E+01 -0.67518542276E+01  0.91585590168E+01  0.51100000000E-03 0.  1.
         12    1    4    4    0    0 -0.23947573488E+02  0.83968791340E+01  0.27986400234E+02  0.37778730170E+02  0.00000000000E+00 0. -1.
</event>
<event>
 8    1  0.2516265E-006  0.9118800E+02  0.7816164E-02  0.1184000E+00
        -11   -1    0    0    0    0  0.00000000000E+00  0.00000000000E+00  0.45593999997E+02  0.45594000000E+02  0.51100000000E-03 0. -1.
         11   -1    0    0    0    0 -0.00000000000E+00 -0.00000000000E+00 -0.45593999997E+02  0.45594000000E+02  0.51100000000E-03 0.  1.
         23    2    1    2    0    0  0.00000000000E+00  0.35527136788E-14  0.00000000000E+00  0.91188000000E+02  0.91188000000E+02 0.  0.
    9900012    2    3    3    0    0  0.21570604759E+02 -0.12987019731E+02  0.26866814802E+02  0.54367090061E+02  0.40000013412E+02 0.  0.
        -12    1    3    3    0    0 -0.21570604759E+02  0.12987019731E+02 -0.26866814802E+02  0.36820909939E+02  0.00000000000E+00 0.  1.
         11    1    4    4    0    0  0.54926449396E+01  0.46368982840E+01  0.94696221897E+00  0.72502904655E+01  0.51100000000E-03 0. -1.
        -11    1    4    4    0    0 -0.12841923976E+01  0.80550552941E+01  0.73669100248E+01  0.10991106836E+02  0.51100000000E-03 0.  1.
         12    1    4    4    0    0  0.17362152217E+02 -0.25678973309E+02  0.18552942558E+02  0.36125692759E+02  0.00000000000E+00 0. -1.
</event>
<event>
 8    1  0.2516265E-006  0.9118800E+02  0.7816164E-02  0.1184000E+00
        -11   -1    0    0    0    0  0.00000000000E+00  0.00000000000E+00  0.45593999997E+02  0.45594000000E+02  0.51100000000E-03 0.  1.
         11   -1    0    0    0    0 -0.00000000000E+00 -0.00000000000E+00 -0.45593999997E+02  0.45594000000E+02  0.51100000000E-03 0. -1.
         23    2    1    2    0    0  0.00000000000E+00  0.35527136788E-14  0.44408920985E-15  0.91188000000E+02  0.91188000000E+02 0.  0.
    9900012    2    3    3    0    0  0.32783648890E+02  0.16509856122E+02  0.29045024020E+01  0.54367094010E+02  0.40000022416E+02 0.  0.
         12    1    3    3    0    0 -0.32783648890E+02 -0.16509856122E+02 -0.29045024020E+01  0.36820905990E+02  0.00000000000E+00 0. -1.
         11    1    4    4    0    0  0.13669563687E+02  0.12286288278E+02 -0.90375386520E+01  0.20481380720E+02  0.51100000000E-03 0. -1.
        -11    1    4    4    0    0 -0.48402791486E+01  0.52645804855E+01  0.11965667201E+00  0.71525119996E+01  0.51100000000E-03 0.  1.
        -12    1    4    4    0    0  0.23954364351E+02 -0.10410126414E+01  0.11822384382E+02  0.26733201291E+02  0.00000000000E+00 0.  1.
</event>
<event>
 8    1  0.2516265E-006  0.9118800E+02  0.7816164E-02  0.1184000E+00
        -11   -1    0    0    0    0  0.00000000000E+00  0.00000000000E+00  0.45593999997E+02  0.45594000000E+02  0.51100000000E-03 0. -1.
         11   -1    0    0    0    0 -0.00000000000E+00 -0.00000000000E+00 -0.45593999997E+02  0.45594000000E+02  0.51100000000E-03 0.  1.
         23    2    1    2    0    0 -0.17763568394E-14  0.00000000000E+00 -0.17763568394E-14  0.91188000000E+02  0.91188000000E+02 0.  0.
    9900012    2    3    3    0    0 -0.14291788583E+02 -0.32295473970E+02 -0.10417714607E+02  0.54367059796E+02  0.39999944418E+02 0.  0.
         12    1    3    3    0    0  0.14291788583E+02  0.32295473970E+02  0.10417714607E+02  0.36820940204E+02  0.00000000000E+00 0. -1.
         11    1    4    4    0    0 -0.19322263605E+02 -0.89140599039E+01 -0.34477715763E+01  0.21556842623E+02  0.51100000000E-03 0. -1.
        -11    1    4    4    0    0 -0.24247985257E+01 -0.67475957794E+01 -0.11930384991E+02  0.13919187584E+02  0.51100000000E-03 0.  1.
         12    1    4    4    0    0  0.74552735478E+01 -0.16633818287E+02  0.49604419612E+01  0.18891029589E+02  0.00000000000E+00 0. -1.
</event>
<event>
 8    1  0.2516265E-006  0.9118800E+02  0.7816164E-02  0.1184000E+00
        -11   -1    0    0    0    0  0.00000000000E+00  0.00000000000E+00  0.45593999997E+02  0.45594000000E+02  0.51100000000E-03 0.  1.
         11   -1    0    0    0    0 -0.00000000000E+00 -0.00000000000E+00 -0.45593999997E+02  0.45594000000E+02  0.51100000000E-03 0. -1.
         23    2    1    2    0    0  0.00000000000E+00  0.00000000000E+00  0.00000000000E+00  0.91188000000E+02  0.91188000000E+02 0.  0.
    9900012    2    3    3    0    0 -0.35591130313E+02  0.93077498645E+01  0.15549555406E+01  0.54367073189E+02  0.39999974948E+02 0.  0.
         12    1    3    3    0    0  0.35591130313E+02 -0.93077498645E+01 -0.15549555406E+01  0.36820926811E+02  0.00000000000E+00 0. -1.
         11    1    4    4    0    0 -0.13276287388E+02  0.30146143217E+01 -0.77092734880E+00  0.13636056451E+02  0.51100000000E-03 0. -1.
        -11    1    4    4    0    0 -0.85430531826E+01 -0.13713547817E+02  0.30006998191E+01  0.16433178362E+02  0.51100000000E-03 0.  1.
         12    1    4    4    0    0 -0.13771789743E+02  0.20006683360E+02 -0.67481692975E+00  0.24297838375E+02  0.00000000000E+00 0. -1.
</event>
<event>
 8    1  0.2516265E-006  0.9118800E+02  0.7816164E-02  0.1184000E+00
        -11   -1    0    0    0    0  0.00000000000E+00  0.00000000000E+00  0.45593999997E+02  0.45594000000E+02  0.51100000000E-03 0.  1.
         11   -1    0    0    0    0 -0.00000000000E+00 -0.00000000000E+00 -0.45593999997E+02  0.45594000000E+02  0.51100000000E-03 0. -1.
         23    2    1    2    0    0  0.35527136788E-14  0.00000000000E+00 -0.35527136788E-14  0.91188000000E+02  0.91188000000E+02 0.  0.
    9900012    2    3    3    0    0  0.14075923057E+02 -0.14483353484E+02 -0.30787697775E+02  0.54367062039E+02  0.39999949530E+02 0.  0.
        -12    1    3    3    0    0 -0.14075923057E+02  0.14483353484E+02  0.30787697775E+02  0.36820937961E+02  0.00000000000E+00 0.  1.
         11    1    4    4    0    0  0.53827773662E+01 -0.18202498379E+02 -0.28177076867E+02  0.33974297644E+02  0.51100000000E-03 0. -1.
        -11    1    4    4    0    0  0.28093427168E+01  0.88562890766E+01 -0.68146554978E+01  0.11522403939E+02  0.51100000000E-03 0.  1.
         12    1    4    4    0    0  0.58838029745E+01 -0.51371441822E+01  0.42040345901E+01  0.88703604564E+01  0.00000000000E+00 0. -1.
</event>
<event>
 8    1  0.2516265E-006  0.9118800E+02  0.7816164E-02  0.1184000E+00
        -11   -1    0    0    0    0  0.00000000000E+00  0.00000000000E+00  0.45593999997E+02  0.45594000000E+02  0.51100000000E-03 0. -1.
         11   -1    0    0    0    0 -0.00000000000E+00 -0.00000000000E+00 -0.45593999997E+02  0.45594000000E+02  0.51100000000E-03 0.  1.
         23    2    1    2    0    0 -0.88817841970E-15  0.00000000000E+00 -0.88817841970E-15  0.91188000000E+02  0.91188000000E+02 0.  0.
    9900012    2    3    3    0    0 -0.55721776305E+01 -0.35937592560E+02  0.57633358604E+01  0.54367139570E+02  0.40000126277E+02 0.  0.
         12    1    3    3    0    0  0.55721776305E+01  0.35937592560E+02 -0.57633358604E+01  0.36820860430E+02  0.00000000000E+00 0. -1.
         11    1    4    4    0    0  0.55488386219E+01 -0.13822225468E+01 -0.37629175455E+01  0.68454143728E+01  0.51100000000E-03 0. -1.
        -11    1    4    4    0    0  0.62837318033E+01 -0.19808493829E+02 -0.37655526268E+01  0.21119685130E+02  0.51100000000E-03 0.  1.
        -12    1    4    4    0    0 -0.17404748056E+02 -0.14746876185E+02  0.13291806033E+02  0.26402040067E+02  0.00000000000E+00 0.  1.
</event>
<event>
 8    1  0.2516265E-006  0.9118800E+02  0.7816164E-02  0.1184000E+00
        -11   -1    0    0    0    0  0.00000000000E+00  0.00000000000E+00  0.45593999997E+02  0.45594000000E+02  0.51100000000E-03 0. -1.
         11   -1    0    0    0    0 -0.00000000000E+00 -0.00000000000E+00 -0.45593999997E+02  0.45594000000E+02  0.51100000000E-03 0.  1.
         23    2    1    2    0    0 -0.44408920985E-15  0.00000000000E+00  0.00000000000E+00  0.91188000000E+02  0.91188000000E+02 0.  0.
    9900012    2    3    3    0    0 -0.28941172850E+01  0.89104461030E+01 -0.35609076431E+02  0.54367105268E+02  0.40000048079E+02 0.  0.
         12    1    3    3    0    0  0.28941172850E+01 -0.89104461030E+01  0.35609076431E+02  0.36820894732E+02  0.00000000000E+00 0. -1.
         11    1    4    4    0    0 -0.77567281177E+01 -0.34730540859E+01 -0.67241671217E+00  0.85253199512E+01  0.51100000000E-03 0. -1.
        -11    1    4    4    0    0 -0.21516846837E+01  0.66438439631E+01  0.24279974395E+01  0.73936176133E+01  0.51100000000E-03 0.  1.
        -12    1    4    4    0    0  0.70142955163E+01  0.57396562258E+01 -0.37364657158E+02  0.38448167703E+02  0.00000000000E+00 0.  1.
</event>
<event>
 8    1  0.2516265E-006  0.9118800E+02  0.7816164E-02  0.1184000E+00
        -11   -1    0    0    0    0  0.00000000000E+00  0.00000000000E+00  0.45593999997E+02  0.45594000000E+02  0.51100000000E-03 0.  1.
         11   -1    0    0    0    0 -0.00000000000E+00 -0.00000000000E+00 -0.45593999997E+02  0.45594000000E+02  0.51100000000E-03 0. -1.
         23    2    1    2    0    0  0.00000000000E+00  0.35527136788E-14  0.35527136788E-14  0.91188000000E+02  0.91188000000E+02 0.  0.
    9900012    2    3    3    0    0  0.78014194667E+01  0.28924603003E+02  0.21407593015E+02  0.54367084160E+02  0.39999999961E+02 0.  0.
         12    1    3    3    0    0 -0.78014194667E+01 -0.28924603003E+02 -0.21407593015E+02  0.36820915840E+02  0.00000000000E+00 0. -1.
         11    1    4    4    0    0  0.47775756657E+01 -0.34886985025E+01  0.15382009208E+02  0.16480365713E+02  0.51100000000E-03 0.  1.
        -11    1    4    4    0    0 -0.67875103647E+01  0.20204227740E+02  0.62867678112E+01  0.22221713824E+02  0.51100000000E-03 0. -1.
        -12    1    4    4    0    0  0.98113541658E+01  0.12209073765E+02 -0.26118400413E+00  0.15665004623E+02  0.00000000000E+00 0.  1.
</event>
<event>
 8    1  0.2516265E-006  0.9118800E+02  0.7816164E-02  0.1184000E+00
        -11   -1    0    0    0    0  0.00000000000E+00  0.00000000000E+00  0.45593999997E+02  0.45594000000E+02  0.51100000000E-03 0.  1.
         11   -1    0    0    0    0 -0.00000000000E+00 -0.00000000000E+00 -0.45593999997E+02  0.45594000000E+02  0.51100000000E-03 0. -1.
         23    2    1    2    0    0  0.35527136788E-14 -0.35527136788E-14  0.00000000000E+00  0.91188000000E+02  0.91188000000E+02 0.  0.
    9900012    2    3    3    0    0 -0.23917390580E+02 -0.26667353689E+02  0.85200231809E+01  0.54367080404E+02  0.39999991396E+02 0.  0.
         12    1    3    3    0    0  0.23917390580E+02  0.26667353689E+02 -0.85200231809E+01  0.36820919596E+02  0.00000000000E+00 0. -1.
         11    1    4    4    0    0  0.23691465811E+01  0.30044655285E+01  0.41942094883E+01  0.56772407142E+01  0.51100000000E-03 0. -1.
        -11    1    4    4    0    0 -0.27149531128E+02 -0.16121483225E+02  0.11159523228E+02  0.33489315024E+02  0.51100000000E-03 0.  1.
         12    1    4    4    0    0  0.86299396691E+00 -0.13550335992E+02 -0.68337095355E+01  0.15200524665E+02  0.00000000000E+00 0. -1.
</event>
<event>
 8    1  0.2516265E-006  0.9118800E+02  0.7816164E-02  0.1184000E+00
        -11   -1    0    0    0    0  0.00000000000E+00  0.00000000000E+00  0.45593999997E+02  0.45594000000E+02  0.51100000000E-03 0. -1.
         11   -1    0    0    0    0 -0.00000000000E+00 -0.00000000000E+00 -0.45593999997E+02  0.45594000000E+02  0.51100000000E-03 0.  1.
         23    2    1    2    0    0  0.35527136788E-14  0.00000000000E+00  0.35527136788E-14  0.91188000000E+02  0.91188000000E+02 0.  0.
    9900012    2    3    3    0    0 -0.28792476606E+02  0.17549284491E+02  0.14791708123E+02  0.54367099353E+02  0.40000034595E+02 0.  0.
        -12    1    3    3    0    0  0.28792476606E+02 -0.17549284491E+02 -0.14791708123E+02  0.36820900647E+02  0.00000000000E+00 0.  1.
         11    1    4    4    0    0 -0.22736197211E+02  0.16605143440E+02  0.19217577700E+02  0.34087838670E+02  0.51100000000E-03 0. -1.
        -11    1    4    4    0    0 -0.12093701043E+02 -0.31448343025E+01 -0.29567419966E+01  0.12840946663E+02  0.51100000000E-03 0.  1.
        -12    1    4    4    0    0  0.60374216485E+01  0.40889753536E+01 -0.14691275806E+01  0.74383140195E+01  0.00000000000E+00 0.  1.
</event>
<event>
 8    1  0.2516265E-006  0.9118800E+02  0.7816164E-02  0.1184000E+00
        -11   -1    0    0    0    0  0.00000000000E+00  0.00000000000E+00  0.45593999997E+02  0.45594000000E+02  0.51100000000E-03 0. -1.
         11   -1    0    0    0    0 -0.00000000000E+00 -0.00000000000E+00 -0.45593999997E+02  0.45594000000E+02  0.51100000000E-03 0.  1.
         23    2    1    2    0    0  0.00000000000E+00 -0.77715611724E-15  0.00000000000E+00  0.91188000000E+02  0.91188000000E+02 0.  0.
    9900012    2    3    3    0    0 -0.22109723621E+02 -0.90892204703E+00  0.29429802946E+02  0.54367091276E+02  0.40000016181E+02 0.  0.
        -12    1    3    3    0    0  0.22109723621E+02  0.90892204703E+00 -0.29429802946E+02  0.36820908724E+02  0.00000000000E+00 0.  1.
         11    1    4    4    0    0 -0.13411788422E+02 -0.19722891254E+01  0.52793508766E+01  0.14547767492E+02  0.51100000000E-03 0. -1.
        -11    1    4    4    0    0 -0.28219706404E+01  0.15485402171E+02  0.92024719497E+01  0.18233120658E+02  0.51100000000E-03 0.  1.
        -12    1    4    4    0    0 -0.58759645582E+01 -0.14422035093E+02  0.14947980119E+02  0.21586203125E+02  0.00000000000E+00 0.  1.
</event>
<event>
 8    1  0.2516265E-006  0.9118800E+02  0.7816164E-02  0.1184000E+00
        -11   -1    0    0    0    0  0.00000000000E+00  0.00000000000E+00  0.45593999997E+02  0.45594000000E+02  0.51100000000E-03 0.  1.
         11   -1    0    0    0    0 -0.00000000000E+00 -0.00000000000E+00 -0.45593999997E+02  0.45594000000E+02  0.51100000000E-03 0. -1.
         23    2    1    2    0    0  0.00000000000E+00  0.17763568394E-14  0.00000000000E+00  0.91188000000E+02  0.91188000000E+02 0.  0.
    9900012    2    3    3    0    0  0.26756983507E+02 -0.92498107046E+01 -0.23543242715E+02  0.54367089609E+02  0.40000012382E+02 0.  0.
        -12    1    3    3    0    0 -0.26756983507E+02  0.92498107046E+01  0.23543242715E+02  0.36820910391E+02  0.00000000000E+00 0.  1.
         11    1    4    4    0    0  0.52114311744E+01  0.75658963193E+01 -0.13752797720E+02  0.16539082423E+02  0.51100000000E-03 0. -1.
        -11    1    4    4    0    0  0.14755294954E+02  0.14618118156E+01 -0.10737258808E+02  0.18306948133E+02  0.51100000000E-03 0.  1.
        -12    1    4    4    0    0  0.67902573788E+01 -0.18277518840E+02  0.94681381292E+00  0.19521059054E+02  0.00000000000E+00 0.  1.
</event>
<event>
 8    1  0.2516265E-006  0.9118800E+02  0.7816164E-02  0.1184000E+00
        -11   -1    0    0    0    0  0.00000000000E+00  0.00000000000E+00  0.45593999997E+02  0.45594000000E+02  0.51100000000E-03 0.  1.
         11   -1    0    0    0    0 -0.00000000000E+00 -0.00000000000E+00 -0.45593999997E+02  0.45594000000E+02  0.51100000000E-03 0. -1.
         23    2    1    2    0    0  0.00000000000E+00  0.00000000000E+00  0.00000000000E+00  0.91188000000E+02  0.91188000000E+02 0.  0.
    9900012    2    3    3    0    0  0.33494075913E+02 -0.14083071564E+02  0.59661366849E+01  0.54367070994E+02  0.39999969945E+02 0.  0.
         12    1    3    3    0    0 -0.33494075913E+02  0.14083071564E+02 -0.59661366849E+01  0.36820929006E+02  0.00000000000E+00 0. -1.
         11    1    4    4    0    0  0.19843474239E+02 -0.19669632536E+02  0.20585796375E+01  0.28015989441E+02  0.51100000000E-03 0. -1.
        -11    1    4    4    0    0  0.73151541677E+01 -0.80353821322E+01  0.16011488705E+00  0.10867588672E+02  0.51100000000E-03 0.  1.
         12    1    4    4    0    0  0.63354475060E+01  0.13621943104E+02  0.37474421604E+01  0.15483492880E+02  0.00000000000E+00 0. -1.
</event>
<event>
 8    1  0.2516265E-006  0.9118800E+02  0.7816164E-02  0.1184000E+00
        -11   -1    0    0    0    0  0.00000000000E+00  0.00000000000E+00  0.45593999997E+02  0.45594000000E+02  0.51100000000E-03 0.  1.
         11   -1    0    0    0    0 -0.00000000000E+00 -0.00000000000E+00 -0.45593999997E+02  0.45594000000E+02  0.51100000000E-03 0. -1.
         23    2    1    2    0    0  0.17763568394E-14  0.00000000000E+00  0.00000000000E+00  0.91188000000E+02  0.91188000000E+02 0.  0.
    9900012    2    3    3    0    0 -0.93739954446E+01  0.82700086055E+01 -0.34633998978E+02  0.54367099439E+02  0.40000034791E+02 0.  0.
        -12    1    3    3    0    0  0.93739954446E+01 -0.82700086055E+01  0.34633998978E+02  0.36820900561E+02  0.00000000000E+00 0.  1.
         11    1    4    4    0    0 -0.80070916600E+01  0.24845842501E+01 -0.67936367476E+00  0.84111955756E+01  0.51100000000E-03 0. -1.
        -11    1    4    4    0    0 -0.10207166534E+02 -0.18869509012E+00  0.16157457789E+00  0.10210189082E+02  0.51100000000E-03 0.  1.
         12    1    4    4    0    0  0.88402627491E+01  0.59741194455E+01 -0.34116209881E+02  0.35745714782E+02  0.00000000000E+00 0. -1.
</event>
<event>
 8    1  0.2516265E-006  0.9118800E+02  0.7816164E-02  0.1184000E+00
        -11   -1    0    0    0    0  0.00000000000E+00  0.00000000000E+00  0.45593999997E+02  0.45594000000E+02  0.51100000000E-03 0.  1.
         11   -1    0    0    0    0 -0.00000000000E+00 -0.00000000000E+00 -0.45593999997E+02  0.45594000000E+02  0.51100000000E-03 0. -1.
         23    2    1    2    0    0  0.10658141036E-13  0.35527136788E-14  0.00000000000E+00  0.91188000000E+02  0.91188000000E+02 0.  0.
    9900012    2    3    3    0    0  0.29040079754E+02  0.19573943937E+02 -0.11371603926E+02  0.54367097116E+02  0.40000029495E+02 0.  0.
        -12    1    3    3    0    0 -0.29040079754E+02 -0.19573943937E+02  0.11371603926E+02  0.36820902884E+02  0.00000000000E+00 0.  1.
         11    1    4    4    0    0  0.95663237815E+01  0.12253921340E+01 -0.97632907564E+01  0.13723628647E+02  0.51100000000E-03 0. -1.
        -11    1    4    4    0    0 -0.58383038630E+01  0.47552360360E+00 -0.70681581798E+01  0.91799114924E+01  0.51100000000E-03 0.  1.
        -12    1    4    4    0    0  0.25312059835E+02  0.17873028199E+02  0.54598450099E+01  0.31463556977E+02  0.00000000000E+00 0.  1.
</event>
<event>
 8    1  0.2516265E-006  0.9118800E+02  0.7816164E-02  0.1184000E+00
        -11   -1    0    0    0    0  0.00000000000E+00  0.00000000000E+00  0.45593999997E+02  0.45594000000E+02  0.51100000000E-03 0. -1.
         11   -1    0    0    0    0 -0.00000000000E+00 -0.00000000000E+00 -0.45593999997E+02  0.45594000000E+02  0.51100000000E-03 0.  1.
         23    2    1    2    0    0  0.00000000000E+00  0.00000000000E+00  0.00000000000E+00  0.91188000000E+02  0.91188000000E+02 0.  0.
    9900012    2    3    3    0    0 -0.24090276479E+02 -0.27449762051E+02  0.46849321269E+01  0.54367089548E+02  0.40000012243E+02 0.  0.
         12    1    3    3    0    0  0.24090276479E+02  0.27449762051E+02 -0.46849321269E+01  0.36820910452E+02  0.00000000000E+00 0. -1.
         11    1    4    4    0    0  0.13251965130E+01  0.28276114079E+01 -0.46724274391E+01  0.56198852753E+01  0.51100000000E-03 0. -1.
        -11    1    4    4    0    0 -0.10005409076E+02 -0.19950081658E+02  0.17624090264E+02  0.28438047170E+02  0.51100000000E-03 0.  1.
        -12    1    4    4    0    0 -0.15410063916E+02 -0.10327291801E+02 -0.82667306976E+01  0.20309157103E+02  0.00000000000E+00 0.  1.
</event>
<event>
 8    1  0.2516265E-006  0.9118800E+02  0.7816164E-02  0.1184000E+00
        -11   -1    0    0    0    0  0.00000000000E+00  0.00000000000E+00  0.45593999997E+02  0.45594000000E+02  0.51100000000E-03 0. -1.
         11   -1    0    0    0    0 -0.00000000000E+00 -0.00000000000E+00 -0.45593999997E+02  0.45594000000E+02  0.51100000000E-03 0.  1.
         23    2    1    2    0    0  0.00000000000E+00  0.71054273576E-14  0.15820678101E-14  0.91188000000E+02  0.91188000000E+02 0.  0.
    9900012    2    3    3    0    0  0.81779618130E+01  0.35901087314E+02  0.11380450687E+00  0.54367080929E+02  0.39999992595E+02 0.  0.
        -12    1    3    3    0    0 -0.81779618130E+01 -0.35901087314E+02 -0.11380450687E+00  0.36820919071E+02  0.00000000000E+00 0.  1.
         11    1    4    4    0    0  0.13763115606E+02  0.11218875374E+02 -0.81840536088E+01  0.19551604782E+02  0.51100000000E-03 0.  1.
        -11    1    4    4    0    0  0.72453252749E+01  0.17491252562E+02  0.29273131925E+01  0.19157448090E+02  0.51100000000E-03 0. -1.
         12    1    4    4    0    0 -0.12830479067E+02  0.71909593788E+01  0.53705449231E+01  0.15658028058E+02  0.00000000000E+00 0. -1.
</event>
<event>
 8    1  0.2516265E-006  0.9118800E+02  0.7816164E-02  0.1184000E+00
        -11   -1    0    0    0    0  0.00000000000E+00  0.00000000000E+00  0.45593999997E+02  0.45594000000E+02  0.51100000000E-03 0.  1.
         11   -1    0    0    0    0 -0.00000000000E+00 -0.00000000000E+00 -0.45593999997E+02  0.45594000000E+02  0.51100000000E-03 0. -1.
         23    2    1    2    0    0  0.00000000000E+00 -0.22204460493E-15 -0.88817841970E-15  0.91188000000E+02  0.91188000000E+02 0.  0.
    9900012    2    3    3    0    0  0.36033036251E+02  0.10142031051E+01 -0.75082390602E+01  0.54367055373E+02  0.39999934334E+02 0.  0.
        -12    1    3    3    0    0 -0.36033036251E+02 -0.10142031051E+01  0.75082390602E+01  0.36820944627E+02  0.00000000000E+00 0.  1.
         11    1    4    4    0    0  0.44362404953E+01  0.20884926896E+01 -0.28859285080E+01  0.56895179990E+01  0.51100000000E-03 0. -1.
        -11    1    4    4    0    0  0.34864304297E+02 -0.88530668450E+00 -0.14874862929E+02  0.37915234794E+02  0.51100000000E-03 0.  1.
        -12    1    4    4    0    0 -0.32675085410E+01 -0.18898289999E+00  0.10252552377E+02  0.10762302581E+02  0.00000000000E+00 0.  1.
</event>
<event>
 8    1  0.2516265E-006  0.9118800E+02  0.7816164E-02  0.1184000E+00
        -11   -1    0    0    0    0  0.00000000000E+00  0.00000000000E+00  0.45593999997E+02  0.45594000000E+02  0.51100000000E-03 0.  1.
         11   -1    0    0    0    0 -0.00000000000E+00 -0.00000000000E+00 -0.45593999997E+02  0.45594000000E+02  0.51100000000E-03 0. -1.
         23    2    1    2    0    0  0.17763568394E-14  0.71054273576E-14  0.00000000000E+00  0.91188000000E+02  0.91188000000E+02 0.  0.
    9900012    2    3    3    0    0 -0.62510663096E+01  0.35710811626E+02  0.64376006592E+01  0.54367073895E+02  0.39999976558E+02 0.  0.
         12    1    3    3    0    0  0.62510663096E+01 -0.35710811626E+02 -0.64376006592E+01  0.36820926105E+02  0.00000000000E+00 0. -1.
         11    1    4    4    0    0 -0.10291820477E+02 -0.11258643615E+01 -0.48807867112E+01  0.11446013213E+02  0.51100000000E-03 0. -1.
        -11    1    4    4    0    0  0.10983548981E+02  0.16169442344E+02  0.64301830392E+01  0.20577571968E+02  0.51100000000E-03 0.  1.
        -12    1    4    4    0    0 -0.69427948130E+01  0.20667233644E+02  0.48882043312E+01  0.22343488714E+02  0.00000000000E+00 0.  1.
</event>
<event>
 8    1  0.2516265E-006  0.9118800E+02  0.7816164E-02  0.1184000E+00
        -11   -1    0    0    0    0  0.00000000000E+00  0.00000000000E+00  0.45593999997E+02  0.45594000000E+02  0.51100000000E-03 0.  1.
         11   -1    0    0    0    0 -0.00000000000E+00 -0.00000000000E+00 -0.45593999997E+02  0.45594000000E+02  0.51100000000E-03 0. -1.
         23    2    1    2    0    0  0.00000000000E+00  0.00000000000E+00 -0.26645352591E-14  0.91188000000E+02  0.91188000000E+02 0.  0.
    9900012    2    3    3    0    0  0.29757892638E+02 -0.20238704663E+02 -0.77883978944E+01  0.54366858214E+02  0.39999484867E+02 0.  0.
        -12    1    3    3    0    0 -0.29757892638E+02  0.20238704663E+02  0.77883978944E+01  0.36821141786E+02  0.00000000000E+00 0.  1.
         11    1    4    4    0    0  0.12190761862E+02  0.46870660468E+01  0.28522221465E+01  0.13368561416E+02  0.51100000000E-03 0. -1.
        -11    1    4    4    0    0  0.15218366791E+02 -0.31238031471E+01  0.20378485351E+01  0.15668747902E+02  0.51100000000E-03 0.  1.
         12    1    4    4    0    0  0.23487639843E+01 -0.21801967562E+02 -0.12678468576E+02  0.25329548896E+02  0.00000000000E+00 0. -1.
</event>
<event>
 8    1  0.2516265E-006  0.9118800E+02  0.7816164E-02  0.1184000E+00
        -11   -1    0    0    0    0  0.00000000000E+00  0.00000000000E+00  0.45593999997E+02  0.45594000000E+02  0.51100000000E-03 0.  1.
         11   -1    0    0    0    0 -0.00000000000E+00 -0.00000000000E+00 -0.45593999997E+02  0.45594000000E+02  0.51100000000E-03 0. -1.
         23    2    1    2    0    0 -0.44408920985E-15  0.71054273576E-14 -0.44408920985E-15  0.91188000000E+02  0.91188000000E+02 0.  0.
    9900012    2    3    3    0    0 -0.27398641228E+01  0.36560090780E+02 -0.34106801163E+01  0.54367084312E+02  0.40000000305E+02 0.  0.
        -12    1    3    3    0    0  0.27398641228E+01 -0.36560090780E+02  0.34106801163E+01  0.36820915688E+02  0.00000000000E+00 0.  1.
         11    1    4    4    0    0  0.22811099261E+01  0.34272535899E+02  0.51356649526E+01  0.34730177572E+02  0.51100000000E-03 0. -1.
        -11    1    4    4    0    0 -0.14389195824E+01  0.30493332940E+01  0.47614522613E+01  0.58344109386E+01  0.51100000000E-03 0.  1.
        -12    1    4    4    0    0 -0.35820544664E+01 -0.76177841234E+00 -0.13307797330E+02  0.13802495801E+02  0.00000000000E+00 0.  1.
</event>
<event>
 8    1  0.2516265E-006  0.9118800E+02  0.7816164E-02  0.1184000E+00
        -11   -1    0    0    0    0  0.00000000000E+00  0.00000000000E+00  0.45593999997E+02  0.45594000000E+02  0.51100000000E-03 0.  1.
         11   -1    0    0    0    0 -0.00000000000E+00 -0.00000000000E+00 -0.45593999997E+02  0.45594000000E+02  0.51100000000E-03 0. -1.
         23    2    1    2    0    0  0.00000000000E+00  0.00000000000E+00  0.00000000000E+00  0.91188000000E+02  0.91188000000E+02 0.  0.
    9900012    2    3    3    0    0 -0.16110762827E+02 -0.24703392772E+02 -0.22044739597E+02  0.54367016346E+02  0.39999845364E+02 0.  0.
        -12    1    3    3    0    0  0.16110762827E+02  0.24703392772E+02  0.22044739597E+02  0.36820983654E+02  0.00000000000E+00 0.  1.
         11    1    4    4    0    0  0.43577636449E+01 -0.15436379610E+02 -0.23574802722E+02  0.28513913150E+02  0.51100000000E-03 0. -1.
        -11    1    4    4    0    0  0.45623665519E+00 -0.87590521056E+00 -0.27357256609E+01  0.29085317561E+01  0.51100000000E-03 0.  1.
        -12    1    4    4    0    0 -0.20924763127E+02 -0.83911079513E+01  0.42657887861E+01  0.22944571440E+02  0.00000000000E+00 0.  1.
</event>
<event>
 8    1  0.2516265E-006  0.9118800E+02  0.7816164E-02  0.1184000E+00
        -11   -1    0    0    0    0  0.00000000000E+00  0.00000000000E+00  0.45593999997E+02  0.45594000000E+02  0.51100000000E-03 0. -1.
         11   -1    0    0    0    0 -0.00000000000E+00 -0.00000000000E+00 -0.45593999997E+02  0.45594000000E+02  0.51100000000E-03 0.  1.
         23    2    1    2    0    0 -0.35527136788E-14  0.00000000000E+00  0.00000000000E+00  0.91188000000E+02  0.91188000000E+02 0.  0.
    9900012    2    3    3    0    0  0.18926245232E+02  0.86893791210E+01  0.30365626060E+02  0.54367091346E+02  0.40000016341E+02 0.  0.
        -12    1    3    3    0    0 -0.18926245232E+02 -0.86893791210E+01 -0.30365626060E+02  0.36820908654E+02  0.00000000000E+00 0.  1.
         11    1    4    4    0    0 -0.51031322747E+01 -0.47595338092E+01  0.41194544433E+01  0.81033959712E+01  0.51100000000E-03 0. -1.
        -11    1    4    4    0    0  0.19634742038E+02  0.14714921558E+02  0.56672620577E+01  0.25182729614E+02  0.51100000000E-03 0.  1.
         12    1    4    4    0    0  0.43946354691E+01 -0.12660086276E+01  0.20578909559E+02  0.21080965760E+02  0.00000000000E+00 0. -1.
</event>
<event>
 8    1  0.2516265E-006  0.9118800E+02  0.7816164E-02  0.1184000E+00
        -11   -1    0    0    0    0  0.00000000000E+00  0.00000000000E+00  0.45593999997E+02  0.45594000000E+02  0.51100000000E-03 0. -1.
         11   -1    0    0    0    0 -0.00000000000E+00 -0.00000000000E+00 -0.45593999997E+02  0.45594000000E+02  0.51100000000E-03 0.  1.
         23    2    1    2    0    0 -0.17763568394E-14  0.35527136788E-14  0.00000000000E+00  0.91188000000E+02  0.91188000000E+02 0.  0.
    9900012    2    3    3    0    0 -0.14348915001E+02  0.27221796713E+02  0.20220321161E+02  0.54367096075E+02  0.40000027122E+02 0.  0.
        -12    1    3    3    0    0  0.14348915001E+02 -0.27221796713E+02 -0.20220321161E+02  0.36820903925E+02  0.00000000000E+00 0.  1.
         11    1    4    4    0    0 -0.20885507871E+01  0.22104757288E+02  0.11367157309E+02  0.24943828990E+02  0.51100000000E-03 0. -1.
        -11    1    4    4    0    0 -0.14867351419E+01  0.13824621190E+02  0.65903809410E+01  0.15387126231E+02  0.51100000000E-03 0.  1.
        -12    1    4    4    0    0 -0.10773629072E+02 -0.87075817645E+01  0.22627829107E+01  0.14036140854E+02  0.00000000000E+00 0.  1.
</event>
<event>
 8    1  0.2516265E-006  0.9118800E+02  0.7816164E-02  0.1184000E+00
        -11   -1    0    0    0    0  0.00000000000E+00  0.00000000000E+00  0.45593999997E+02  0.45594000000E+02  0.51100000000E-03 0. -1.
         11   -1    0    0    0    0 -0.00000000000E+00 -0.00000000000E+00 -0.45593999997E+02  0.45594000000E+02  0.51100000000E-03 0.  1.
         23    2    1    2    0    0  0.35527136788E-14  0.00000000000E+00 -0.35527136788E-14  0.91188000000E+02  0.91188000000E+02 0.  0.
    9900012    2    3    3    0    0 -0.28191470448E+02 -0.26015603527E+01  0.23542595460E+02  0.54367069495E+02  0.39999966527E+02 0.  0.
        -12    1    3    3    0    0  0.28191470448E+02  0.26015603527E+01 -0.23542595460E+02  0.36820930505E+02  0.00000000000E+00 0.  1.
         11    1    4    4    0    0 -0.24603451098E+02  0.10356491241E+02  0.10540411725E+02  0.28699947672E+02  0.51100000000E-03 0. -1.
        -11    1    4    4    0    0  0.24159282154E+01 -0.26045552028E+01 -0.36935591920E+01  0.51247240621E+01  0.51100000000E-03 0.  1.
        -12    1    4    4    0    0 -0.60039475652E+01 -0.10353496391E+02  0.16695742927E+02  0.20542397761E+02  0.00000000000E+00 0.  1.
</event>
<event>
 8    1  0.2516265E-006  0.9118800E+02  0.7816164E-02  0.1184000E+00
        -11   -1    0    0    0    0  0.00000000000E+00  0.00000000000E+00  0.45593999997E+02  0.45594000000E+02  0.51100000000E-03 0.  1.
         11   -1    0    0    0    0 -0.00000000000E+00 -0.00000000000E+00 -0.45593999997E+02  0.45594000000E+02  0.51100000000E-03 0. -1.
         23    2    1    2    0    0 -0.61062266354E-15  0.00000000000E+00  0.35527136788E-14  0.91188000000E+02  0.91188000000E+02 0.  0.
    9900012    2    3    3    0    0  0.44416236194E+00  0.20497127737E+02  0.30585128261E+02  0.54367087512E+02  0.40000007601E+02 0.  0.
         12    1    3    3    0    0 -0.44416236194E+00 -0.20497127737E+02 -0.30585128261E+02  0.36820912488E+02  0.00000000000E+00 0. -1.
         11    1    4    4    0    0  0.13589972453E+02 -0.31578098494E+01  0.12905880021E+02  0.19005811051E+02  0.51100000000E-03 0. -1.
        -11    1    4    4    0    0 -0.12405307516E+01  0.82948390577E+01  0.12835983490E+02  0.15333158316E+02  0.51100000000E-03 0.  1.
         12    1    4    4    0    0 -0.11905279340E+02  0.15360098529E+02  0.48432647501E+01  0.20028118145E+02  0.00000000000E+00 0. -1.
</event>
<event>
 8    1  0.2516265E-006  0.9118800E+02  0.7816164E-02  0.1184000E+00
        -11   -1    0    0    0    0  0.00000000000E+00  0.00000000000E+00  0.45593999997E+02  0.45594000000E+02  0.51100000000E-03 0. -1.
         11   -1    0    0    0    0 -0.00000000000E+00 -0.00000000000E+00 -0.45593999997E+02  0.45594000000E+02  0.51100000000E-03 0.  1.
         23    2    1    2    0    0 -0.88817841970E-15  0.00000000000E+00 -0.71054273576E-14  0.91188000000E+02  0.91188000000E+02 0.  0.
    9900012    2    3    3    0    0 -0.26996169718E+01 -0.65193790291E+01  0.36138484345E+02  0.54367078156E+02  0.39999986271E+02 0.  0.
        -12    1    3    3    0    0  0.26996169718E+01  0.65193790291E+01 -0.36138484345E+02  0.36820921844E+02  0.00000000000E+00 0.  1.
         11    1    4    4    0    0 -0.23071383912E+01 -0.17655955206E+02  0.21404612443E+02  0.27842648507E+02  0.51100000000E-03 0. -1.
        -11    1    4    4    0    0 -0.53952979176E+01 -0.28411958029E+01  0.84091063502E+01  0.10387237510E+02  0.51100000000E-03 0.  1.
        -12    1    4    4    0    0  0.50028193370E+01  0.13977771980E+02  0.63247655522E+01  0.16137192139E+02  0.00000000000E+00 0.  1.
</event>
<event>
 8    1  0.2516265E-006  0.9118800E+02  0.7816164E-02  0.1184000E+00
        -11   -1    0    0    0    0  0.00000000000E+00  0.00000000000E+00  0.45593999997E+02  0.45594000000E+02  0.51100000000E-03 0.  1.
         11   -1    0    0    0    0 -0.00000000000E+00 -0.00000000000E+00 -0.45593999997E+02  0.45594000000E+02  0.51100000000E-03 0. -1.
         23    2    1    2    0    0  0.00000000000E+00  0.00000000000E+00  0.00000000000E+00  0.91188000000E+02  0.91188000000E+02 0.  0.
    9900012    2    3    3    0    0 -0.16516964598E+02 -0.17045068152E+02 -0.28150238890E+02  0.54367076364E+02  0.39999982186E+02 0.  0.
        -12    1    3    3    0    0  0.16516964598E+02  0.17045068152E+02  0.28150238890E+02  0.36820923636E+02  0.00000000000E+00 0.  1.
         11    1    4    4    0    0 -0.22878365086E+02 -0.15840076681E+02 -0.60999388912E+01  0.28487486253E+02  0.51100000000E-03 0. -1.
        -11    1    4    4    0    0  0.16997239400E+01  0.19947668065E+01 -0.19502678093E+02  0.19677972689E+02  0.51100000000E-03 0.  1.
         12    1    4    4    0    0  0.46616765479E+01 -0.31997582773E+01 -0.25476219060E+01  0.62016174218E+01  0.00000000000E+00 0. -1.
</event>
<event>
 8    1  0.2516265E-006  0.9118800E+02  0.7816164E-02  0.1184000E+00
        -11   -1    0    0    0    0  0.00000000000E+00  0.00000000000E+00  0.45593999997E+02  0.45594000000E+02  0.51100000000E-03 0. -1.
         11   -1    0    0    0    0 -0.00000000000E+00 -0.00000000000E+00 -0.45593999997E+02  0.45594000000E+02  0.51100000000E-03 0.  1.
         23    2    1    2    0    0  0.11102230246E-15 -0.35527136788E-14  0.00000000000E+00  0.91188000000E+02  0.91188000000E+02 0.  0.
    9900012    2    3    3    0    0 -0.48574575848E+00  0.19441874883E+02 -0.31265935957E+02  0.54367065748E+02  0.39999957986E+02 0.  0.
         12    1    3    3    0    0  0.48574575848E+00 -0.19441874883E+02  0.31265935957E+02  0.36820934252E+02  0.00000000000E+00 0. -1.
         11    1    4    4    0    0 -0.53377903303E+01  0.16800403902E+02 -0.30587502160E+02  0.35303553158E+02  0.51100000000E-03 0. -1.
        -11    1    4    4    0    0  0.30905394837E+00  0.10031811998E+02  0.14247347608E+01  0.10137190721E+02  0.51100000000E-03 0.  1.
         12    1    4    4    0    0  0.45429906235E+01 -0.73903410166E+01 -0.21031685571E+01  0.89263218700E+01  0.00000000000E+00 0. -1.
</event>
<event>
 8    1  0.2516265E-006  0.9118800E+02  0.7816164E-02  0.1184000E+00
        -11   -1    0    0    0    0  0.00000000000E+00  0.00000000000E+00  0.45593999997E+02  0.45594000000E+02  0.51100000000E-03 0.  1.
         11   -1    0    0    0    0 -0.00000000000E+00 -0.00000000000E+00 -0.45593999997E+02  0.45594000000E+02  0.51100000000E-03 0. -1.
         23    2    1    2    0    0  0.00000000000E+00  0.00000000000E+00  0.00000000000E+00  0.91188000000E+02  0.91188000000E+02 0.  0.
    9900012    2    3    3    0    0  0.19814133612E+02 -0.23911909723E+02  0.19783845210E+02  0.54367084087E+02  0.39999999793E+02 0.  0.
         12    1    3    3    0    0 -0.19814133612E+02  0.23911909723E+02 -0.19783845210E+02  0.36820915913E+02  0.00000000000E+00 0. -1.
         11    1    4    4    0    0  0.37098997578E+01  0.71665346670E+01 -0.14578425449E+01  0.82004805038E+01  0.51100000000E-03 0. -1.
        -11    1    4    4    0    0  0.14406833257E+02 -0.62439998575E+01  0.11379737595E+02  0.19391823192E+02  0.51100000000E-03 0.  1.
         12    1    4    4    0    0  0.16974005970E+01 -0.24834444533E+02  0.98619501597E+01  0.26774780391E+02  0.00000000000E+00 0. -1.
</event>
<event>
 8    1  0.2516265E-006  0.9118800E+02  0.7816164E-02  0.1184000E+00
        -11   -1    0    0    0    0  0.00000000000E+00  0.00000000000E+00  0.45593999997E+02  0.45594000000E+02  0.51100000000E-03 0.  1.
         11   -1    0    0    0    0 -0.00000000000E+00 -0.00000000000E+00 -0.45593999997E+02  0.45594000000E+02  0.51100000000E-03 0. -1.
         23    2    1    2    0    0  0.00000000000E+00 -0.35527136788E-14 -0.35527136788E-14  0.91188000000E+02  0.91188000000E+02 0.  0.
    9900012    2    3    3    0    0 -0.18930583460E+02  0.16820125483E+02  0.26729979138E+02  0.54367144549E+02  0.40000137628E+02 0.  0.
         12    1    3    3    0    0  0.18930583460E+02 -0.16820125483E+02 -0.26729979138E+02  0.36820855451E+02  0.00000000000E+00 0. -1.
         11    1    4    4    0    0 -0.12590364503E+02 -0.10353973466E+01  0.36658948311E+01  0.13154015020E+02  0.51100000000E-03 0.  1.
        -11    1    4    4    0    0 -0.10857507900E+02  0.10045782715E+02 -0.16690323208E+01  0.14885862329E+02  0.51100000000E-03 0. -1.
         12    1    4    4    0    0  0.45172889423E+01  0.78097401150E+01  0.24733116628E+02  0.26327267200E+02  0.00000000000E+00 0. -1.
</event>
<event>
 8    1  0.2516265E-006  0.9118800E+02  0.7816164E-02  0.1184000E+00
        -11   -1    0    0    0    0  0.00000000000E+00  0.00000000000E+00  0.45593999997E+02  0.45594000000E+02  0.51100000000E-03 0. -1.
         11   -1    0    0    0    0 -0.00000000000E+00 -0.00000000000E+00 -0.45593999997E+02  0.45594000000E+02  0.51100000000E-03 0.  1.
         23    2    1    2    0    0  0.00000000000E+00 -0.17763568394E-14  0.00000000000E+00  0.91188000000E+02  0.91188000000E+02 0.  0.
    9900012    2    3    3    0    0 -0.31132230078E+01 -0.12891742168E+02  0.34349544067E+02  0.54367077263E+02  0.39999984236E+02 0.  0.
        -12    1    3    3    0    0  0.31132230078E+01  0.12891742168E+02 -0.34349544067E+02  0.36820922737E+02  0.00000000000E+00 0.  1.
         11    1    4    4    0    0  0.10818667439E+00 -0.17924582965E+02  0.81173719864E+01  0.19677248462E+02  0.51100000000E-03 0. -1.
        -11    1    4    4    0    0  0.43065273989E+01  0.11670639783E+02  0.16902741857E+02  0.20986964852E+02  0.51100000000E-03 0.  1.
        -12    1    4    4    0    0 -0.75279370810E+01 -0.66377989862E+01  0.93294302235E+01  0.13702863948E+02  0.00000000000E+00 0.  1.
</event>
<event>
 8    1  0.2516265E-006  0.9118800E+02  0.7816164E-02  0.1184000E+00
        -11   -1    0    0    0    0  0.00000000000E+00  0.00000000000E+00  0.45593999997E+02  0.45594000000E+02  0.51100000000E-03 0. -1.
         11   -1    0    0    0    0 -0.00000000000E+00 -0.00000000000E+00 -0.45593999997E+02  0.45594000000E+02  0.51100000000E-03 0.  1.
         23    2    1    2    0    0  0.11102230246E-15  0.00000000000E+00  0.00000000000E+00  0.91188000000E+02  0.91188000000E+02 0.  0.
    9900012    2    3    3    0    0  0.92661641931E+00  0.86028124618E+01  0.35789851631E+02  0.54367075513E+02  0.39999980248E+02 0.  0.
        -12    1    3    3    0    0 -0.92661641931E+00 -0.86028124618E+01 -0.35789851631E+02  0.36820924487E+02  0.00000000000E+00 0.  1.
         11    1    4    4    0    0  0.10194051632E+02  0.93845686323E+01  0.30042113121E+02  0.33083491021E+02  0.51100000000E-03 0. -1.
        -11    1    4    4    0    0 -0.13491035446E+02  0.39616106972E+01  0.30756250196E+01  0.14393118712E+02  0.51100000000E-03 0.  1.
         12    1    4    4    0    0  0.42236002330E+01 -0.47433668676E+01  0.26721134908E+01  0.68904657808E+01  0.00000000000E+00 0. -1.
</event>
<event>
 8    1  0.2516265E-006  0.9118800E+02  0.7816164E-02  0.1184000E+00
        -11   -1    0    0    0    0  0.00000000000E+00  0.00000000000E+00  0.45593999997E+02  0.45594000000E+02  0.51100000000E-03 0. -1.
         11   -1    0    0    0    0 -0.00000000000E+00 -0.00000000000E+00 -0.45593999997E+02  0.45594000000E+02  0.51100000000E-03 0.  1.
         23    2    1    2    0    0 -0.71054273576E-14  0.00000000000E+00  0.35527136788E-14  0.91188000000E+02  0.91188000000E+02 0.  0.
    9900012    2    3    3    0    0  0.23782666235E+02 -0.88196263206E+01 -0.26690276044E+02  0.54367192608E+02  0.40000247188E+02 0.  0.
         12    1    3    3    0    0 -0.23782666235E+02  0.88196263206E+01  0.26690276044E+02  0.36820807392E+02  0.00000000000E+00 0. -1.
         11    1    4    4    0    0  0.70017531855E+01  0.22773531106E+01  0.34972264354E+01  0.81511642029E+01  0.51100000000E-03 0. -1.
        -11    1    4    4    0    0 -0.42655926619E+00 -0.59920025357E+01  0.42658367095E+01  0.73677276204E+01  0.51100000000E-03 0.  1.
        -12    1    4    4    0    0  0.17207472316E+02 -0.51049768955E+01 -0.34453339189E+02  0.38848300785E+02  0.00000000000E+00 0.  1.
</event>
<event>
 8    1  0.2516265E-006  0.9118800E+02  0.7816164E-02  0.1184000E+00
        -11   -1    0    0    0    0  0.00000000000E+00  0.00000000000E+00  0.45593999997E+02  0.45594000000E+02  0.51100000000E-03 0.  1.
         11   -1    0    0    0    0 -0.00000000000E+00 -0.00000000000E+00 -0.45593999997E+02  0.45594000000E+02  0.51100000000E-03 0. -1.
         23    2    1    2    0    0 -0.17763568394E-14 -0.35527136788E-14 -0.71054273576E-14  0.91188000000E+02  0.91188000000E+02 0.  0.
    9900012    2    3    3    0    0 -0.99267590244E+01 -0.11378902306E+02 -0.33582126674E+02  0.54367092972E+02  0.40000020048E+02 0.  0.
        -12    1    3    3    0    0  0.99267590244E+01  0.11378902306E+02  0.33582126674E+02  0.36820907028E+02  0.00000000000E+00 0.  1.
         11    1    4    4    0    0  0.43884177244E+01  0.62526667415E+01 -0.19012410735E+02  0.20489651381E+02  0.51100000000E-03 0. -1.
        -11    1    4    4    0    0 -0.20128015462E+00  0.42907148389E+01 -0.35460366144E+01  0.55700200593E+01  0.51100000000E-03 0.  1.
        -12    1    4    4    0    0 -0.14113896594E+02 -0.21922283887E+02 -0.11023679325E+02  0.28307421531E+02  0.00000000000E+00 0.  1.
</event>
<event>
 8    1  0.2516265E-006  0.9118800E+02  0.7816164E-02  0.1184000E+00
        -11   -1    0    0    0    0  0.00000000000E+00  0.00000000000E+00  0.45593999997E+02  0.45594000000E+02  0.51100000000E-03 0.  1.
         11   -1    0    0    0    0 -0.00000000000E+00 -0.00000000000E+00 -0.45593999997E+02  0.45594000000E+02  0.51100000000E-03 0. -1.
         23    2    1    2    0    0  0.88817841970E-15  0.71054273576E-14  0.44408920985E-15  0.91188000000E+02  0.91188000000E+02 0.  0.
    9900012    2    3    3    0    0  0.56344443025E+01 -0.36368632438E+02 -0.11646231542E+01  0.54367072050E+02  0.39999972353E+02 0.  0.
         12    1    3    3    0    0 -0.56344443025E+01  0.36368632438E+02  0.11646231542E+01  0.36820927950E+02  0.00000000000E+00 0. -1.
         11    1    4    4    0    0 -0.95145325044E+01 -0.10553671361E+02  0.12335698849E+02  0.18816901295E+02  0.51100000000E-03 0. -1.
        -11    1    4    4    0    0  0.17475601779E+02 -0.20008592393E+02 -0.11796366854E+02  0.29067072407E+02  0.51100000000E-03 0.  1.
        -12    1    4    4    0    0 -0.23266249720E+01 -0.58063686835E+01 -0.17039551492E+01  0.64830983487E+01  0.00000000000E+00 0.  1.
</event>
<event>
 8    1  0.2516265E-006  0.9118800E+02  0.7816164E-02  0.1184000E+00
        -11   -1    0    0    0    0  0.00000000000E+00  0.00000000000E+00  0.45593999997E+02  0.45594000000E+02  0.51100000000E-03 0.  1.
         11   -1    0    0    0    0 -0.00000000000E+00 -0.00000000000E+00 -0.45593999997E+02  0.45594000000E+02  0.51100000000E-03 0. -1.
         23    2    1    2    0    0  0.88817841970E-15 -0.35527136788E-14  0.00000000000E+00  0.91188000000E+02  0.91188000000E+02 0.  0.
    9900012    2    3    3    0    0  0.54058470735E+01  0.11912782964E+02  0.34418629120E+02  0.54367087314E+02  0.40000007150E+02 0.  0.
         12    1    3    3    0    0 -0.54058470735E+01 -0.11912782964E+02 -0.34418629120E+02  0.36820912686E+02  0.00000000000E+00 0. -1.
         11    1    4    4    0    0  0.74865799339E+01  0.90275375556E+00  0.19084207326E+02  0.20520010063E+02  0.51100000000E-03 0. -1.
        -11    1    4    4    0    0 -0.11990439961E+02  0.14652301845E+02  0.13187444456E+02  0.23073129206E+02  0.51100000000E-03 0.  1.
         12    1    4    4    0    0  0.99097071010E+01 -0.36422726365E+01  0.21469773373E+01  0.10773948045E+02  0.00000000000E+00 0. -1.
</event>
<event>
 8    1  0.2516265E-006  0.9118800E+02  0.7816164E-02  0.1184000E+00
        -11   -1    0    0    0    0  0.00000000000E+00  0.00000000000E+00  0.45593999997E+02  0.45594000000E+02  0.51100000000E-03 0. -1.
         11   -1    0    0    0    0 -0.00000000000E+00 -0.00000000000E+00 -0.45593999997E+02  0.45594000000E+02  0.51100000000E-03 0.  1.
         23    2    1    2    0    0  0.44408920985E-15 -0.88817841970E-15  0.71054273576E-14  0.91188000000E+02  0.91188000000E+02 0.  0.
    9900012    2    3    3    0    0 -0.31661818284E+01  0.12149301390E+01 -0.36664507446E+02  0.54366988758E+02  0.39999782471E+02 0.  0.
         12    1    3    3    0    0  0.31661818284E+01 -0.12149301390E+01  0.36664507446E+02  0.36821011242E+02  0.00000000000E+00 0. -1.
         11    1    4    4    0    0 -0.35386421992E+01 -0.16230512547E+02 -0.16428637969E+02  0.23363468748E+02  0.51100000000E-03 0. -1.
        -11    1    4    4    0    0  0.48727064980E+01  0.33580732511E+01 -0.13525808614E+02  0.14763719839E+02  0.51100000000E-03 0.  1.
        -12    1    4    4    0    0 -0.45002461272E+01  0.14087369435E+02 -0.67100608626E+01  0.16239800171E+02  0.00000000000E+00 0.  1.
</event>
<event>
 8    1  0.2516265E-006  0.9118800E+02  0.7816164E-02  0.1184000E+00
        -11   -1    0    0    0    0  0.00000000000E+00  0.00000000000E+00  0.45593999997E+02  0.45594000000E+02  0.51100000000E-03 0. -1.
         11   -1    0    0    0    0 -0.00000000000E+00 -0.00000000000E+00 -0.45593999997E+02  0.45594000000E+02  0.51100000000E-03 0.  1.
         23    2    1    2    0    0 -0.17763568394E-14  0.00000000000E+00 -0.17763568394E-14  0.91188000000E+02  0.91188000000E+02 0.  0.
    9900012    2    3    3    0    0 -0.10394755910E+02 -0.34972208035E+02  0.49672274622E+01  0.54367087003E+02  0.40000006441E+02 0.  0.
        -12    1    3    3    0    0  0.10394755910E+02  0.34972208035E+02 -0.49672274622E+01  0.36820912997E+02  0.00000000000E+00 0.  1.
         11    1    4    4    0    0 -0.15879765082E+02 -0.33054445021E+02 -0.88059746718E+01  0.37713505073E+02  0.51100000000E-03 0. -1.
        -11    1    4    4    0    0  0.31811661153E+01 -0.27584040393E+01  0.13552202889E+02  0.14191223136E+02  0.51100000000E-03 0.  1.
         12    1    4    4    0    0  0.23038430566E+01  0.84064102542E+00  0.22099924506E+00  0.24623587938E+01  0.00000000000E+00 0. -1.
</event>
<event>
 8    1  0.2516265E-006  0.9118800E+02  0.7816164E-02  0.1184000E+00
        -11   -1    0    0    0    0  0.00000000000E+00  0.00000000000E+00  0.45593999997E+02  0.45594000000E+02  0.51100000000E-03 0.  1.
         11   -1    0    0    0    0 -0.00000000000E+00 -0.00000000000E+00 -0.45593999997E+02  0.45594000000E+02  0.51100000000E-03 0. -1.
         23    2    1    2    0    0  0.71054273576E-14  0.88817841970E-15  0.12490009027E-15  0.91188000000E+02  0.91188000000E+02 0.  0.
    9900012    2    3    3    0    0  0.36693373234E+02 -0.30606276472E+01  0.40670531275E-01  0.54367180686E+02  0.40000220008E+02 0.  0.
        -12    1    3    3    0    0 -0.36693373234E+02  0.30606276472E+01 -0.40670531275E-01  0.36820819314E+02  0.00000000000E+00 0.  1.
         11    1    4    4    0    0  0.33119038051E+01 -0.81059293025E+01  0.37456575335E+01  0.95239039942E+01  0.51100000000E-03 0. -1.
        -11    1    4    4    0    0 -0.30909278583E+01 -0.44032770069E+01  0.35892792650E+01  0.64672721705E+01  0.51100000000E-03 0.  1.
         12    1    4    4    0    0  0.36472397287E+02  0.94485786621E+01 -0.72942662672E+01  0.38376004521E+02  0.00000000000E+00 0. -1.
</event>
<event>
 8    1  0.2516265E-006  0.9118800E+02  0.7816164E-02  0.1184000E+00
        -11   -1    0    0    0    0  0.00000000000E+00  0.00000000000E+00  0.45593999997E+02  0.45594000000E+02  0.51100000000E-03 0. -1.
         11   -1    0    0    0    0 -0.00000000000E+00 -0.00000000000E+00 -0.45593999997E+02  0.45594000000E+02  0.51100000000E-03 0.  1.
         23    2    1    2    0    0  0.00000000000E+00 -0.17763568394E-14 -0.15543122345E-14  0.91188000000E+02  0.91188000000E+02 0.  0.
    9900012    2    3    3    0    0 -0.36593457458E+02  0.40375714998E+01  0.62995240398E+00  0.54367082679E+02  0.39999996584E+02 0.  0.
        -12    1    3    3    0    0  0.36593457458E+02 -0.40375714998E+01 -0.62995240398E+00  0.36820917321E+02  0.00000000000E+00 0.  1.
         11    1    4    4    0    0 -0.21620527892E+02  0.12715633479E+01  0.12732753490E+02  0.25123437491E+02  0.51100000000E-03 0. -1.
        -11    1    4    4    0    0 -0.82253557797E+01  0.81752147272E+01 -0.15997678346E+02  0.19758955597E+02  0.51100000000E-03 0.  1.
        -12    1    4    4    0    0 -0.67475737857E+01 -0.54092065752E+01  0.38948772607E+01  0.94846895913E+01  0.00000000000E+00 0.  1.
</event>
<event>
 8    1  0.2516265E-006  0.9118800E+02  0.7816164E-02  0.1184000E+00
        -11   -1    0    0    0    0  0.00000000000E+00  0.00000000000E+00  0.45593999997E+02  0.45594000000E+02  0.51100000000E-03 0.  1.
         11   -1    0    0    0    0 -0.00000000000E+00 -0.00000000000E+00 -0.45593999997E+02  0.45594000000E+02  0.51100000000E-03 0. -1.
         23    2    1    2    0    0  0.00000000000E+00 -0.35527136788E-14  0.00000000000E+00  0.91188000000E+02  0.91188000000E+02 0.  0.
    9900012    2    3    3    0    0  0.10177077555E+02  0.26240889905E+02 -0.23740744359E+02  0.54367079950E+02  0.39999990363E+02 0.  0.
        -12    1    3    3    0    0 -0.10177077555E+02 -0.26240889905E+02  0.23740744359E+02  0.36820920050E+02  0.00000000000E+00 0.  1.
         11    1    4    4    0    0 -0.78617905582E+01  0.46150745689E+01 -0.61143756285E+01  0.10976896358E+02  0.51100000000E-03 0. -1.
        -11    1    4    4    0    0 -0.30802611715E+01  0.80511349816E+01  0.46780479499E+01  0.98077987469E+01  0.51100000000E-03 0.  1.
        -12    1    4    4    0    0  0.21119129285E+02  0.13574680355E+02 -0.22304416681E+02  0.33582384846E+02  0.00000000000E+00 0.  1.
</event>
<event>
 8    1  0.2516265E-006  0.9118800E+02  0.7816164E-02  0.1184000E+00
        -11   -1    0    0    0    0  0.00000000000E+00  0.00000000000E+00  0.45593999997E+02  0.45594000000E+02  0.51100000000E-03 0.  1.
         11   -1    0    0    0    0 -0.00000000000E+00 -0.00000000000E+00 -0.45593999997E+02  0.45594000000E+02  0.51100000000E-03 0. -1.
         23    2    1    2    0    0  0.00000000000E+00  0.00000000000E+00  0.88817841970E-15  0.91188000000E+02  0.91188000000E+02 0.  0.
    9900012    2    3    3    0    0  0.27000601594E+02 -0.24910421127E+02 -0.24935623840E+01  0.54367089900E+02  0.40000013046E+02 0.  0.
        -12    1    3    3    0    0 -0.27000601594E+02  0.24910421127E+02  0.24935623840E+01  0.36820910100E+02  0.00000000000E+00 0.  1.
         11    1    4    4    0    0  0.16555851191E+01 -0.11142070056E+02 -0.47814259855E+01  0.12237186030E+02  0.51100000000E-03 0.  1.
        -11    1    4    4    0    0  0.15715641730E+02 -0.21071971920E+02 -0.66297466668E+01  0.27110199865E+02  0.51100000000E-03 0. -1.
        -12    1    4    4    0    0  0.96293747455E+01  0.73036208495E+01  0.89176102682E+01  0.15019704005E+02  0.00000000000E+00 0.  1.
</event>
<event>
 8    1  0.2516265E-006  0.9118800E+02  0.7816164E-02  0.1184000E+00
        -11   -1    0    0    0    0  0.00000000000E+00  0.00000000000E+00  0.45593999997E+02  0.45594000000E+02  0.51100000000E-03 0.  1.
         11   -1    0    0    0    0 -0.00000000000E+00 -0.00000000000E+00 -0.45593999997E+02  0.45594000000E+02  0.51100000000E-03 0. -1.
         23    2    1    2    0    0  0.71054273576E-14  0.00000000000E+00  0.00000000000E+00  0.91188000000E+02  0.91188000000E+02 0.  0.
    9900012    2    3    3    0    0  0.32337575941E+02  0.16421318212E+02 -0.63561571082E+01  0.54367092315E+02  0.40000018551E+02 0.  0.
        -12    1    3    3    0    0 -0.32337575941E+02 -0.16421318212E+02  0.63561571082E+01  0.36820907685E+02  0.00000000000E+00 0.  1.
         11    1    4    4    0    0  0.32431678811E+01  0.15349939707E+01 -0.84158706945E+01  0.91488373142E+01  0.51100000000E-03 0. -1.
        -11    1    4    4    0    0  0.80245034573E+01  0.13031358002E+02 -0.12315863514E+02  0.19644068862E+02  0.51100000000E-03 0.  1.
        -12    1    4    4    0    0  0.21069904602E+02  0.18549662398E+01  0.14375577100E+02  0.25574186139E+02  0.00000000000E+00 0.  1.
</event>
<event>
 8    1  0.2516265E-006  0.9118800E+02  0.7816164E-02  0.1184000E+00
        -11   -1    0    0    0    0  0.00000000000E+00  0.00000000000E+00  0.45593999997E+02  0.45594000000E+02  0.51100000000E-03 0. -1.
         11   -1    0    0    0    0 -0.00000000000E+00 -0.00000000000E+00 -0.45593999997E+02  0.45594000000E+02  0.51100000000E-03 0.  1.
         23    2    1    2    0    0  0.35527136788E-14  0.00000000000E+00  0.00000000000E+00  0.91188000000E+02  0.91188000000E+02 0.  0.
    9900012    2    3    3    0    0 -0.29282542044E+02  0.21490092511E+02  0.60405885697E+01  0.54367081286E+02  0.39999993408E+02 0.  0.
         12    1    3    3    0    0  0.29282542044E+02 -0.21490092511E+02 -0.60405885697E+01  0.36820918714E+02  0.00000000000E+00 0. -1.
         11    1    4    4    0    0  0.65839872574E+01  0.82028017845E+01  0.95643714060E+01  0.14216611621E+02  0.51100000000E-03 0. -1.
        -11    1    4    4    0    0 -0.11773765570E+02 -0.12722203407E+01 -0.82219059996E+00  0.11870808647E+02  0.51100000000E-03 0.  1.
         12    1    4    4    0    0 -0.24092763731E+02  0.14559511067E+02 -0.27015922363E+01  0.28279661019E+02  0.00000000000E+00 0. -1.
</event>
<event>
 8    1  0.2516265E-006  0.9118800E+02  0.7816164E-02  0.1184000E+00
        -11   -1    0    0    0    0  0.00000000000E+00  0.00000000000E+00  0.45593999997E+02  0.45594000000E+02  0.51100000000E-03 0. -1.
         11   -1    0    0    0    0 -0.00000000000E+00 -0.00000000000E+00 -0.45593999997E+02  0.45594000000E+02  0.51100000000E-03 0.  1.
         23    2    1    2    0    0  0.00000000000E+00  0.00000000000E+00  0.35527136788E-14  0.91188000000E+02  0.91188000000E+02 0.  0.
    9900012    2    3    3    0    0 -0.19067700403E+02 -0.58716615639E+01 -0.30947144766E+02  0.54367090487E+02  0.40000014383E+02 0.  0.
         12    1    3    3    0    0  0.19067700403E+02  0.58716615639E+01  0.30947144766E+02  0.36820909513E+02  0.00000000000E+00 0. -1.
         11    1    4    4    0    0 -0.22182282667E+02 -0.10114330300E+02 -0.26922788086E+02  0.36320653357E+02  0.51100000000E-03 0. -1.
        -11    1    4    4    0    0 -0.29084288220E+01  0.92817619222E+01 -0.18914577930E+01  0.99089694438E+01  0.51100000000E-03 0.  1.
         12    1    4    4    0    0  0.60230110856E+01 -0.50390931859E+01 -0.21328988878E+01  0.81374676859E+01  0.00000000000E+00 0. -1.
</event>
<event>
 8    1  0.2516265E-006  0.9118800E+02  0.7816164E-02  0.1184000E+00
        -11   -1    0    0    0    0  0.00000000000E+00  0.00000000000E+00  0.45593999997E+02  0.45594000000E+02  0.51100000000E-03 0.  1.
         11   -1    0    0    0    0 -0.00000000000E+00 -0.00000000000E+00 -0.45593999997E+02  0.45594000000E+02  0.51100000000E-03 0. -1.
         23    2    1    2    0    0  0.00000000000E+00 -0.35527136788E-14  0.00000000000E+00  0.91188000000E+02  0.91188000000E+02 0.  0.
    9900012    2    3    3    0    0  0.98040259252E+01 -0.31642133053E+02 -0.16075946181E+02  0.54367088087E+02  0.40000008912E+02 0.  0.
         12    1    3    3    0    0 -0.98040259252E+01  0.31642133053E+02  0.16075946181E+02  0.36820911913E+02  0.00000000000E+00 0. -1.
         11    1    4    4    0    0 -0.40501027940E+01 -0.37369741919E+01 -0.17723774634E+02  0.18560724563E+02  0.51100000000E-03 0. -1.
        -11    1    4    4    0    0  0.15830875565E+02 -0.20395479078E+02  0.65328722397E+01  0.26632134874E+02  0.51100000000E-03 0.  1.
        -12    1    4    4    0    0 -0.19767468453E+01 -0.75096797828E+01 -0.48850437873E+01  0.91742286506E+01  0.00000000000E+00 0.  1.
</event>
<event>
 8    1  0.2516265E-006  0.9118800E+02  0.7816164E-02  0.1184000E+00
        -11   -1    0    0    0    0  0.00000000000E+00  0.00000000000E+00  0.45593999997E+02  0.45594000000E+02  0.51100000000E-03 0.  1.
         11   -1    0    0    0    0 -0.00000000000E+00 -0.00000000000E+00 -0.45593999997E+02  0.45594000000E+02  0.51100000000E-03 0. -1.
         23    2    1    2    0    0  0.00000000000E+00  0.35527136788E-14  0.00000000000E+00  0.91188000000E+02  0.91188000000E+02 0.  0.
    9900012    2    3    3    0    0  0.20896350329E+02  0.30006464258E+02 -0.43282558892E+01  0.54367093529E+02  0.40000021317E+02 0.  0.
         12    1    3    3    0    0 -0.20896350329E+02 -0.30006464258E+02  0.43282558892E+01  0.36820906471E+02  0.00000000000E+00 0. -1.
         11    1    4    4    0    0  0.78071729986E+01  0.82029069393E+00 -0.15349962948E+02  0.17240829151E+02  0.51100000000E-03 0. -1.
        -11    1    4    4    0    0  0.87444927865E+01  0.52214816851E+01  0.72003137647E+01  0.12472952483E+02  0.51100000000E-03 0.  1.
        -12    1    4    4    0    0  0.43446845435E+01  0.23964691879E+02  0.38213932941E+01  0.24653311894E+02  0.00000000000E+00 0.  1.
</event>
<event>
 8    1  0.2516265E-006  0.9118800E+02  0.7816164E-02  0.1184000E+00
        -11   -1    0    0    0    0  0.00000000000E+00  0.00000000000E+00  0.45593999997E+02  0.45594000000E+02  0.51100000000E-03 0. -1.
         11   -1    0    0    0    0 -0.00000000000E+00 -0.00000000000E+00 -0.45593999997E+02  0.45594000000E+02  0.51100000000E-03 0.  1.
         23    2    1    2    0    0 -0.35527136788E-14  0.35527136788E-14 -0.88817841970E-15  0.91188000000E+02  0.91188000000E+02 0.  0.
    9900012    2    3    3    0    0 -0.22173970995E+02  0.28929717523E+02  0.52120762322E+01  0.54367091751E+02  0.40000017264E+02 0.  0.
        -12    1    3    3    0    0  0.22173970995E+02 -0.28929717523E+02 -0.52120762322E+01  0.36820908249E+02  0.00000000000E+00 0.  1.
         11    1    4    4    0    0  0.35785324599E+01 -0.14902698939E+01  0.83980148625E+01  0.92495109501E+01  0.51100000000E-03 0. -1.
        -11    1    4    4    0    0 -0.33558034133E+01  0.32618689927E+01  0.70461876548E+01  0.84587213338E+01  0.51100000000E-03 0.  1.
        -12    1    4    4    0    0 -0.22396700042E+02  0.27158118424E+02 -0.10232126285E+02  0.36658859467E+02  0.00000000000E+00 0.  1.
</event>
<event>
 8    1  0.2516265E-006  0.9118800E+02  0.7816164E-02  0.1184000E+00
        -11   -1    0    0    0    0  0.00000000000E+00  0.00000000000E+00  0.45593999997E+02  0.45594000000E+02  0.51100000000E-03 0. -1.
         11   -1    0    0    0    0 -0.00000000000E+00 -0.00000000000E+00 -0.45593999997E+02  0.45594000000E+02  0.51100000000E-03 0.  1.
         23    2    1    2    0    0  0.00000000000E+00 -0.17763568394E-14  0.30531133177E-15  0.91188000000E+02  0.91188000000E+02 0.  0.
    9900012    2    3    3    0    0 -0.35412243141E+02 -0.10086653096E+02  0.11132111877E+00  0.54367083019E+02  0.39999997358E+02 0.  0.
        -12    1    3    3    0    0  0.35412243141E+02  0.10086653096E+02 -0.11132111877E+00  0.36820916981E+02  0.00000000000E+00 0.  1.
         11    1    4    4    0    0 -0.49253808758E+01  0.11104885572E+02 -0.84730619674E+00  0.12177675821E+02  0.51100000000E-03 0. -1.
        -11    1    4    4    0    0 -0.40224283567E+00 -0.64337180219E+01  0.53712445431E+01  0.83907565265E+01  0.51100000000E-03 0.  1.
         12    1    4    4    0    0 -0.30084619429E+02 -0.14757820646E+02 -0.44126172276E+01  0.33798650672E+02  0.00000000000E+00 0. -1.
</event>
<event>
 8    1  0.2516265E-006  0.9118800E+02  0.7816164E-02  0.1184000E+00
        -11   -1    0    0    0    0  0.00000000000E+00  0.00000000000E+00  0.45593999997E+02  0.45594000000E+02  0.51100000000E-03 0. -1.
         11   -1    0    0    0    0 -0.00000000000E+00 -0.00000000000E+00 -0.45593999997E+02  0.45594000000E+02  0.51100000000E-03 0.  1.
         23    2    1    2    0    0  0.00000000000E+00  0.00000000000E+00  0.00000000000E+00  0.91188000000E+02  0.91188000000E+02 0.  0.
    9900012    2    3    3    0    0 -0.23862453158E+02 -0.25633249755E+02  0.11370964577E+02  0.54367095623E+02  0.40000026092E+02 0.  0.
        -12    1    3    3    0    0  0.23862453158E+02  0.25633249755E+02 -0.11370964577E+02  0.36820904377E+02  0.00000000000E+00 0.  1.
         11    1    4    4    0    0 -0.10259144453E+02 -0.75127496448E+01  0.94586793576E+01  0.15847967301E+02  0.51100000000E-03 0. -1.
        -11    1    4    4    0    0 -0.12915958393E+02 -0.26759503557E+02  0.36485504809E+00  0.29715755607E+02  0.51100000000E-03 0.  1.
        -12    1    4    4    0    0 -0.68735031209E+00  0.86390034472E+01  0.15474301714E+01  0.88033727144E+01  0.00000000000E+00 0.  1.
</event>
<event>
 8    1  0.2516265E-006  0.9118800E+02  0.7816164E-02  0.1184000E+00
        -11   -1    0    0    0    0  0.00000000000E+00  0.00000000000E+00  0.45593999997E+02  0.45594000000E+02  0.51100000000E-03 0. -1.
         11   -1    0    0    0    0 -0.00000000000E+00 -0.00000000000E+00 -0.45593999997E+02  0.45594000000E+02  0.51100000000E-03 0.  1.
         23    2    1    2    0    0  0.00000000000E+00  0.00000000000E+00  0.88817841970E-15  0.91188000000E+02  0.91188000000E+02 0.  0.
    9900012    2    3    3    0    0 -0.76044677695E+01 -0.35674208108E+02  0.50301070717E+01  0.54367095186E+02  0.40000025096E+02 0.  0.
        -12    1    3    3    0    0  0.76044677695E+01  0.35674208108E+02 -0.50301070717E+01  0.36820904814E+02  0.00000000000E+00 0.  1.
         11    1    4    4    0    0 -0.20211155601E+02 -0.26167642501E+02  0.42879344594E+01  0.33341006388E+02  0.51100000000E-03 0. -1.
        -11    1    4    4    0    0  0.13492076056E+02 -0.83192071272E+01  0.49173741279E+01  0.16595960114E+02  0.51100000000E-03 0.  1.
        -12    1    4    4    0    0 -0.88538822403E+00 -0.11873584797E+01 -0.41752015155E+01  0.44301286846E+01  0.00000000000E+00 0.  1.
</event>
<event>
 8    1  0.2516265E-006  0.9118800E+02  0.7816164E-02  0.1184000E+00
        -11   -1    0    0    0    0  0.00000000000E+00  0.00000000000E+00  0.45593999997E+02  0.45594000000E+02  0.51100000000E-03 0.  1.
         11   -1    0    0    0    0 -0.00000000000E+00 -0.00000000000E+00 -0.45593999997E+02  0.45594000000E+02  0.51100000000E-03 0. -1.
         23    2    1    2    0    0  0.35527136788E-14 -0.35527136788E-14 -0.17763568394E-14  0.91188000000E+02  0.91188000000E+02 0.  0.
    9900012    2    3    3    0    0 -0.31137430852E+02  0.13233713513E+02  0.14529634124E+02  0.54367067894E+02  0.39999962877E+02 0.  0.
         12    1    3    3    0    0  0.31137430852E+02 -0.13233713513E+02 -0.14529634124E+02  0.36820932106E+02  0.00000000000E+00 0. -1.
         11    1    4    4    0    0 -0.20308038222E+02 -0.36307313094E+00  0.85971573440E+01  0.22055823566E+02  0.51100000000E-03 0.  1.
        -11    1    4    4    0    0 -0.12046248882E+02  0.20251822325E+02  0.85360684265E+01  0.25062180353E+02  0.51100000000E-03 0. -1.
         12    1    4    4    0    0  0.12168562514E+01 -0.66550356805E+01 -0.26035916468E+01  0.72490639746E+01  0.00000000000E+00 0. -1.
</event>
<event>
 8    1  0.2516265E-006  0.9118800E+02  0.7816164E-02  0.1184000E+00
        -11   -1    0    0    0    0  0.00000000000E+00  0.00000000000E+00  0.45593999997E+02  0.45594000000E+02  0.51100000000E-03 0.  1.
         11   -1    0    0    0    0 -0.00000000000E+00 -0.00000000000E+00 -0.45593999997E+02  0.45594000000E+02  0.51100000000E-03 0. -1.
         23    2    1    2    0    0 -0.11102230246E-14  0.00000000000E+00  0.35527136788E-14  0.91188000000E+02  0.91188000000E+02 0.  0.
    9900012    2    3    3    0    0 -0.15113182715E+01 -0.27465054482E+02 -0.24477817619E+02  0.54367124725E+02  0.40000092436E+02 0.  0.
        -12    1    3    3    0    0  0.15113182715E+01  0.27465054482E+02  0.24477817619E+02  0.36820875275E+02  0.00000000000E+00 0.  1.
         11    1    4    4    0    0 -0.95361182748E+01 -0.62470294970E+01 -0.53983025301E+00  0.11412902622E+02  0.51100000000E-03 0. -1.
        -11    1    4    4    0    0  0.55193712669E+01 -0.60376296599E+01 -0.26159708415E+02  0.27408881329E+02  0.51100000000E-03 0.  1.
        -12    1    4    4    0    0  0.25054287364E+01 -0.15180395325E+02  0.22217210494E+01  0.15545340775E+02  0.00000000000E+00 0.  1.
</event>
<event>
 8    1  0.2516265E-006  0.9118800E+02  0.7816164E-02  0.1184000E+00
        -11   -1    0    0    0    0  0.00000000000E+00  0.00000000000E+00  0.45593999997E+02  0.45594000000E+02  0.51100000000E-03 0. -1.
         11   -1    0    0    0    0 -0.00000000000E+00 -0.00000000000E+00 -0.45593999997E+02  0.45594000000E+02  0.51100000000E-03 0.  1.
         23    2    1    2    0    0  0.35527136788E-14  0.17763568394E-14  0.00000000000E+00  0.91188000000E+02  0.91188000000E+02 0.  0.
    9900012    2    3    3    0    0  0.20086631609E+02 -0.81179290293E+01 -0.29772572563E+02  0.54367087217E+02  0.40000006929E+02 0.  0.
         12    1    3    3    0    0 -0.20086631609E+02  0.81179290293E+01  0.29772572563E+02  0.36820912783E+02  0.00000000000E+00 0. -1.
         11    1    4    4    0    0  0.29624868101E+00  0.91686734151E+01  0.11381552286E+01  0.92437942999E+01  0.51100000000E-03 0. -1.
        -11    1    4    4    0    0 -0.30564003908E+01 -0.70080684392E+01 -0.92877605471E+01  0.12029842178E+02  0.51100000000E-03 0.  1.
         12    1    4    4    0    0  0.22846783319E+02 -0.10278534005E+02 -0.21622967245E+02  0.33093450739E+02  0.00000000000E+00 0. -1.
</event>
<event>
 8    1  0.2516265E-006  0.9118800E+02  0.7816164E-02  0.1184000E+00
        -11   -1    0    0    0    0  0.00000000000E+00  0.00000000000E+00  0.45593999997E+02  0.45594000000E+02  0.51100000000E-03 0. -1.
         11   -1    0    0    0    0 -0.00000000000E+00 -0.00000000000E+00 -0.45593999997E+02  0.45594000000E+02  0.51100000000E-03 0.  1.
         23    2    1    2    0    0  0.00000000000E+00  0.00000000000E+00  0.00000000000E+00  0.91188000000E+02  0.91188000000E+02 0.  0.
    9900012    2    3    3    0    0 -0.16444352337E+02 -0.11427957236E+02 -0.30899295320E+02  0.54367063271E+02  0.39999952339E+02 0.  0.
         12    1    3    3    0    0  0.16444352337E+02  0.11427957236E+02  0.30899295320E+02  0.36820936729E+02  0.00000000000E+00 0. -1.
         11    1    4    4    0    0  0.88190749269E+01  0.29958863684E+00  0.53666797320E+00  0.88404665427E+01  0.51100000000E-03 0. -1.
        -11    1    4    4    0    0 -0.13043898273E+01 -0.46459757488E+01 -0.14658283966E+02  0.15432168110E+02  0.51100000000E-03 0.  1.
         12    1    4    4    0    0 -0.23959037436E+02 -0.70815701237E+01 -0.16777679326E+02  0.30094428618E+02  0.00000000000E+00 0. -1.
</event>
<event>
 8    1  0.2516265E-006  0.9118800E+02  0.7816164E-02  0.1184000E+00
        -11   -1    0    0    0    0  0.00000000000E+00  0.00000000000E+00  0.45593999997E+02  0.45594000000E+02  0.51100000000E-03 0. -1.
         11   -1    0    0    0    0 -0.00000000000E+00 -0.00000000000E+00 -0.45593999997E+02  0.45594000000E+02  0.51100000000E-03 0.  1.
         23    2    1    2    0    0  0.44408920985E-15  0.17763568394E-14  0.00000000000E+00  0.91188000000E+02  0.91188000000E+02 0.  0.
    9900012    2    3    3    0    0  0.29051192755E+01 -0.15146936632E+02 -0.33435169912E+02  0.54367082108E+02  0.39999995281E+02 0.  0.
         12    1    3    3    0    0 -0.29051192755E+01  0.15146936632E+02  0.33435169912E+02  0.36820917892E+02  0.00000000000E+00 0. -1.
         11    1    4    4    0    0 -0.12302333357E+02  0.36885516631E+01 -0.33552904359E+01  0.13274441365E+02  0.51100000000E-03 0. -1.
        -11    1    4    4    0    0  0.71112918026E+01 -0.11290790968E+02 -0.26134238417E+02  0.29343667966E+02  0.51100000000E-03 0.  1.
         12    1    4    4    0    0  0.80961608297E+01 -0.75446973272E+01 -0.39456410598E+01  0.11748972777E+02  0.00000000000E+00 0. -1.
</event>
<event>
 8    1  0.2516265E-006  0.9118800E+02  0.7816164E-02  0.1184000E+00
        -11   -1    0    0    0    0  0.00000000000E+00  0.00000000000E+00  0.45593999997E+02  0.45594000000E+02  0.51100000000E-03 0.  1.
         11   -1    0    0    0    0 -0.00000000000E+00 -0.00000000000E+00 -0.45593999997E+02  0.45594000000E+02  0.51100000000E-03 0. -1.
         23    2    1    2    0    0  0.66613381478E-15  0.17763568394E-14  0.00000000000E+00  0.91188000000E+02  0.91188000000E+02 0.  0.
    9900012    2    3    3    0    0 -0.19470707800E+01  0.11515372765E+02  0.34919670727E+02  0.54367105141E+02  0.40000047789E+02 0.  0.
         12    1    3    3    0    0  0.19470707800E+01 -0.11515372765E+02 -0.34919670727E+02  0.36820894859E+02  0.00000000000E+00 0. -1.
         11    1    4    4    0    0  0.19498150572E+01  0.50652216886E+01  0.28913177577E+00  0.54352412050E+01  0.51100000000E-03 0. -1.
        -11    1    4    4    0    0 -0.90297032667E+01 -0.11881901936E+02  0.19830212347E+02  0.24818389486E+02  0.51100000000E-03 0.  1.
        -12    1    4    4    0    0  0.51328174295E+01  0.18332053013E+02  0.14800326605E+02  0.24113474450E+02  0.00000000000E+00 0.  1.
</event>
<event>
 8    1  0.2516265E-006  0.9118800E+02  0.7816164E-02  0.1184000E+00
        -11   -1    0    0    0    0  0.00000000000E+00  0.00000000000E+00  0.45593999997E+02  0.45594000000E+02  0.51100000000E-03 0. -1.
         11   -1    0    0    0    0 -0.00000000000E+00 -0.00000000000E+00 -0.45593999997E+02  0.45594000000E+02  0.51100000000E-03 0.  1.
         23    2    1    2    0    0  0.00000000000E+00  0.00000000000E+00 -0.71054273576E-14  0.91188000000E+02  0.91188000000E+02 0.  0.
    9900012    2    3    3    0    0  0.77294936623E+01  0.89967174462E+01  0.34858192732E+02  0.54367087496E+02  0.40000007564E+02 0.  0.
        -12    1    3    3    0    0 -0.77294936623E+01 -0.89967174462E+01 -0.34858192732E+02  0.36820912504E+02  0.00000000000E+00 0.  1.
         11    1    4    4    0    0  0.51518937582E+01  0.45209140983E+01  0.43153142551E+02  0.43694100126E+02  0.51100000000E-03 0. -1.
        -11    1    4    4    0    0 -0.61978649603E+00  0.17005146236E+01 -0.63000406453E+00  0.19164526262E+01  0.51100000000E-03 0.  1.
        -12    1    4    4    0    0  0.31973864001E+01  0.27752887243E+01 -0.76649457539E+01  0.87565347430E+01  0.00000000000E+00 0.  1.
</event>
<event>
 8    1  0.2516265E-006  0.9118800E+02  0.7816164E-02  0.1184000E+00
        -11   -1    0    0    0    0  0.00000000000E+00  0.00000000000E+00  0.45593999997E+02  0.45594000000E+02  0.51100000000E-03 0. -1.
         11   -1    0    0    0    0 -0.00000000000E+00 -0.00000000000E+00 -0.45593999997E+02  0.45594000000E+02  0.51100000000E-03 0.  1.
         23    2    1    2    0    0  0.35527136788E-14  0.35527136788E-14  0.00000000000E+00  0.91188000000E+02  0.91188000000E+02 0.  0.
    9900012    2    3    3    0    0 -0.27974284554E+02 -0.19632077527E+02 -0.13704062882E+02  0.54367076548E+02  0.39999982607E+02 0.  0.
         12    1    3    3    0    0  0.27974284554E+02  0.19632077527E+02  0.13704062882E+02  0.36820923452E+02  0.00000000000E+00 0. -1.
         11    1    4    4    0    0 -0.65528584185E+01 -0.57239267077E+01  0.89255018441E+01  0.12464665011E+02  0.51100000000E-03 0. -1.
        -11    1    4    4    0    0 -0.40160428838E+01 -0.11770879689E+02  0.99937403763E+00  0.12477217551E+02  0.51100000000E-03 0.  1.
         12    1    4    4    0    0 -0.17405383252E+02 -0.21372711310E+01 -0.23628938764E+02  0.29425193986E+02  0.00000000000E+00 0. -1.
</event>
<event>
 8    1  0.2516265E-006  0.9118800E+02  0.7816164E-02  0.1184000E+00
        -11   -1    0    0    0    0  0.00000000000E+00  0.00000000000E+00  0.45593999997E+02  0.45594000000E+02  0.51100000000E-03 0.  1.
         11   -1    0    0    0    0 -0.00000000000E+00 -0.00000000000E+00 -0.45593999997E+02  0.45594000000E+02  0.51100000000E-03 0. -1.
         23    2    1    2    0    0  0.35527136788E-14  0.71054273576E-14  0.00000000000E+00  0.91188000000E+02  0.91188000000E+02 0.  0.
    9900012    2    3    3    0    0  0.17269894090E+02  0.29596045738E+02 -0.13476069981E+02  0.54367087092E+02  0.40000006645E+02 0.  0.
         12    1    3    3    0    0 -0.17269894090E+02 -0.29596045738E+02  0.13476069981E+02  0.36820912908E+02  0.00000000000E+00 0. -1.
         11    1    4    4    0    0  0.76468213350E+00  0.36405478293E+01 -0.85947833348E+01  0.93652884684E+01  0.51100000000E-03 0. -1.
        -11    1    4    4    0    0 -0.88680489643E+01  0.10386993449E+02  0.34548334897E+01  0.14087860024E+02  0.51100000000E-03 0.  1.
        -12    1    4    4    0    0  0.25373260921E+02  0.15568504459E+02 -0.83361201359E+01  0.30913938600E+02  0.00000000000E+00 0.  1.
</event>
<event>
 8    1  0.2516265E-006  0.9118800E+02  0.7816164E-02  0.1184000E+00
        -11   -1    0    0    0    0  0.00000000000E+00  0.00000000000E+00  0.45593999997E+02  0.45594000000E+02  0.51100000000E-03 0.  1.
         11   -1    0    0    0    0 -0.00000000000E+00 -0.00000000000E+00 -0.45593999997E+02  0.45594000000E+02  0.51100000000E-03 0. -1.
         23    2    1    2    0    0  0.00000000000E+00  0.00000000000E+00 -0.17763568394E-14  0.91188000000E+02  0.91188000000E+02 0.  0.
    9900012    2    3    3    0    0  0.21138583255E+02  0.30020820157E+02 -0.27732338560E+01  0.54367079711E+02  0.39999989818E+02 0.  0.
        -12    1    3    3    0    0 -0.21138583255E+02 -0.30020820157E+02  0.27732338560E+01  0.36820920289E+02  0.00000000000E+00 0.  1.
         11    1    4    4    0    0  0.18281721301E+02  0.32720738348E+02  0.11278289851E+02  0.39141638622E+02  0.51100000000E-03 0. -1.
        -11    1    4    4    0    0  0.60996730726E+00 -0.33224239226E+01 -0.65469825917E+01  0.73670579036E+01  0.51100000000E-03 0.  1.
         12    1    4    4    0    0  0.22468946468E+01  0.62250573087E+00 -0.75045411156E+01  0.78583831858E+01  0.00000000000E+00 0. -1.
</event>
<event>
 8    1  0.2516265E-006  0.9118800E+02  0.7816164E-02  0.1184000E+00
        -11   -1    0    0    0    0  0.00000000000E+00  0.00000000000E+00  0.45593999997E+02  0.45594000000E+02  0.51100000000E-03 0. -1.
         11   -1    0    0    0    0 -0.00000000000E+00 -0.00000000000E+00 -0.45593999997E+02  0.45594000000E+02  0.51100000000E-03 0.  1.
         23    2    1    2    0    0 -0.17763568394E-14  0.00000000000E+00  0.00000000000E+00  0.91188000000E+02  0.91188000000E+02 0.  0.
    9900012    2    3    3    0    0  0.15612884195E+02 -0.16320167234E+02 -0.29080407749E+02  0.54367080318E+02  0.39999991200E+02 0.  0.
         12    1    3    3    0    0 -0.15612884195E+02  0.16320167234E+02  0.29080407749E+02  0.36820919682E+02  0.00000000000E+00 0. -1.
         11    1    4    4    0    0  0.68839637082E+01 -0.15365820077E+02 -0.74875328172E+00  0.16854020728E+02  0.51100000000E-03 0. -1.
        -11    1    4    4    0    0 -0.75188309562E+01 -0.14070038133E+01 -0.13462204851E+02  0.15483650680E+02  0.51100000000E-03 0.  1.
        -12    1    4    4    0    0  0.16247751443E+02  0.45265665666E+00 -0.14869449616E+02  0.22029408909E+02  0.00000000000E+00 0.  1.
</event>
<event>
 8    1  0.2516265E-006  0.9118800E+02  0.7816164E-02  0.1184000E+00
        -11   -1    0    0    0    0  0.00000000000E+00  0.00000000000E+00  0.45593999997E+02  0.45594000000E+02  0.51100000000E-03 0.  1.
         11   -1    0    0    0    0 -0.00000000000E+00 -0.00000000000E+00 -0.45593999997E+02  0.45594000000E+02  0.51100000000E-03 0. -1.
         23    2    1    2    0    0  0.00000000000E+00 -0.17763568394E-14  0.00000000000E+00  0.91188000000E+02  0.91188000000E+02 0.  0.
    9900012    2    3    3    0    0  0.33477773409E+02 -0.11341803211E+02  0.10314166971E+02  0.54367084031E+02  0.39999999665E+02 0.  0.
         12    1    3    3    0    0 -0.33477773409E+02  0.11341803211E+02 -0.10314166971E+02  0.36820915969E+02  0.00000000000E+00 0. -1.
         11    1    4    4    0    0  0.16129786871E+02 -0.38582659747E+01 -0.55734449688E+01  0.17496271886E+02  0.51100000000E-03 0. -1.
        -11    1    4    4    0    0 -0.35388949812E+01  0.63738361784E+01  0.74486392104E+01  0.10422657610E+02  0.51100000000E-03 0.  1.
        -12    1    4    4    0    0  0.20886881519E+02 -0.13857373415E+02  0.84389727290E+01  0.26448154534E+02  0.00000000000E+00 0.  1.
</event>
<event>
 8    1  0.2516265E-006  0.9118800E+02  0.7816164E-02  0.1184000E+00
        -11   -1    0    0    0    0  0.00000000000E+00  0.00000000000E+00  0.45593999997E+02  0.45594000000E+02  0.51100000000E-03 0.  1.
         11   -1    0    0    0    0 -0.00000000000E+00 -0.00000000000E+00 -0.45593999997E+02  0.45594000000E+02  0.51100000000E-03 0. -1.
         23    2    1    2    0    0  0.35527136788E-14  0.00000000000E+00  0.00000000000E+00  0.91188000000E+02  0.91188000000E+02 0.  0.
    9900012    2    3    3    0    0 -0.29737005670E+02  0.78803049734E+01 -0.20233395857E+02  0.54367095332E+02  0.40000025428E+02 0.  0.
        -12    1    3    3    0    0  0.29737005670E+02 -0.78803049734E+01  0.20233395857E+02  0.36820904668E+02  0.00000000000E+00 0.  1.
         11    1    4    4    0    0 -0.25567656071E+02  0.12159177620E+02 -0.22497623964E+02  0.36162048084E+02  0.51100000000E-03 0. -1.
        -11    1    4    4    0    0  0.48415533274E+01  0.23621518378E+01 -0.26220790239E+01  0.59913019116E+01  0.51100000000E-03 0.  1.
         12    1    4    4    0    0 -0.90109029262E+01 -0.66410244849E+01  0.48863071307E+01  0.12213745336E+02  0.00000000000E+00 0. -1.
</event>
<event>
 8    1  0.2516265E-006  0.9118800E+02  0.7816164E-02  0.1184000E+00
        -11   -1    0    0    0    0  0.00000000000E+00  0.00000000000E+00  0.45593999997E+02  0.45594000000E+02  0.51100000000E-03 0.  1.
         11   -1    0    0    0    0 -0.00000000000E+00 -0.00000000000E+00 -0.45593999997E+02  0.45594000000E+02  0.51100000000E-03 0. -1.
         23    2    1    2    0    0  0.00000000000E+00 -0.44408920985E-15  0.00000000000E+00  0.91188000000E+02  0.91188000000E+02 0.  0.
    9900012    2    3    3    0    0  0.30938730933E+02  0.31293784509E+01 -0.19717572021E+02  0.54367072152E+02  0.39999972584E+02 0.  0.
         12    1    3    3    0    0 -0.30938730933E+02 -0.31293784509E+01  0.19717572021E+02  0.36820927848E+02  0.00000000000E+00 0. -1.
         11    1    4    4    0    0  0.15273981167E+02  0.10207619726E+02 -0.19648239866E+02  0.26898760775E+02  0.51100000000E-03 0. -1.
        -11    1    4    4    0    0  0.20387935433E+02 -0.70330891219E+01  0.30879282816E+01  0.21786866575E+02  0.51100000000E-03 0.  1.
        -12    1    4    4    0    0 -0.47231856677E+01 -0.45152152967E-01 -0.31572604367E+01  0.56814448015E+01  0.00000000000E+00 0.  1.
</event>
<event>
 8    1  0.2516265E-006  0.9118800E+02  0.7816164E-02  0.1184000E+00
        -11   -1    0    0    0    0  0.00000000000E+00  0.00000000000E+00  0.45593999997E+02  0.45594000000E+02  0.51100000000E-03 0.  1.
         11   -1    0    0    0    0 -0.00000000000E+00 -0.00000000000E+00 -0.45593999997E+02  0.45594000000E+02  0.51100000000E-03 0. -1.
         23    2    1    2    0    0  0.00000000000E+00  0.00000000000E+00  0.00000000000E+00  0.91188000000E+02  0.91188000000E+02 0.  0.
    9900012    2    3    3    0    0 -0.22616441990E+02  0.27862859200E+02 -0.82424497250E+01  0.54367077299E+02  0.39999984319E+02 0.  0.
        -12    1    3    3    0    0  0.22616441990E+02 -0.27862859200E+02  0.82424497250E+01  0.36820922701E+02  0.00000000000E+00 0.  1.
         11    1    4    4    0    0 -0.11756509359E+02  0.96758884117E+01 -0.71838549042E+01  0.16835857579E+02  0.51100000000E-03 0. -1.
        -11    1    4    4    0    0 -0.12523389048E+02 -0.44578310599E+01  0.47120448649E+01  0.14103577492E+02  0.51100000000E-03 0.  1.
         12    1    4    4    0    0  0.16634564179E+01  0.22644801848E+02 -0.57706396857E+01  0.23427642228E+02  0.00000000000E+00 0. -1.
</event>
<event>
 8    1  0.2516265E-006  0.9118800E+02  0.7816164E-02  0.1184000E+00
        -11   -1    0    0    0    0  0.00000000000E+00  0.00000000000E+00  0.45593999997E+02  0.45594000000E+02  0.51100000000E-03 0.  1.
         11   -1    0    0    0    0 -0.00000000000E+00 -0.00000000000E+00 -0.45593999997E+02  0.45594000000E+02  0.51100000000E-03 0. -1.
         23    2    1    2    0    0 -0.71054273576E-14  0.00000000000E+00  0.17763568394E-14  0.91188000000E+02  0.91188000000E+02 0.  0.
    9900012    2    3    3    0    0 -0.32347966448E+02  0.12558647110E+02 -0.12315500879E+02  0.54367053347E+02  0.39999929715E+02 0.  0.
        -12    1    3    3    0    0  0.32347966448E+02 -0.12558647110E+02  0.12315500879E+02  0.36820946653E+02  0.00000000000E+00 0.  1.
         11    1    4    4    0    0  0.45328203669E+01  0.68099162916E+01 -0.87366888784E+00  0.82270722596E+01  0.51100000000E-03 0.  1.
        -11    1    4    4    0    0 -0.15498254054E+02 -0.96932768765E+01 -0.56847735419E+01  0.19143462221E+02  0.51100000000E-03 0. -1.
         12    1    4    4    0    0 -0.21382532760E+02  0.15442007695E+02 -0.57570584495E+01  0.26996518866E+02  0.00000000000E+00 0. -1.
</event>
<event>
 8    1  0.2516265E-006  0.9118800E+02  0.7816164E-02  0.1184000E+00
        -11   -1    0    0    0    0  0.00000000000E+00  0.00000000000E+00  0.45593999997E+02  0.45594000000E+02  0.51100000000E-03 0.  1.
         11   -1    0    0    0    0 -0.00000000000E+00 -0.00000000000E+00 -0.45593999997E+02  0.45594000000E+02  0.51100000000E-03 0. -1.
         23    2    1    2    0    0  0.35527136788E-14  0.17763568394E-14  0.00000000000E+00  0.91188000000E+02  0.91188000000E+02 0.  0.
    9900012    2    3    3    0    0 -0.21644249365E+02 -0.89205676713E+01 -0.28420558334E+02  0.54367106554E+02  0.40000051011E+02 0.  0.
        -12    1    3    3    0    0  0.21644249365E+02  0.89205676713E+01  0.28420558334E+02  0.36820893446E+02  0.00000000000E+00 0.  1.
         11    1    4    4    0    0 -0.26798587621E+02 -0.17164643585E+02 -0.98910444715E+01  0.33325996593E+02  0.51100000000E-03 0. -1.
        -11    1    4    4    0    0  0.12314781465E+01  0.38735207072E+01 -0.84151563945E+01  0.93453495654E+01  0.51100000000E-03 0.  1.
         12    1    4    4    0    0  0.39228601097E+01  0.43705552068E+01 -0.10114357468E+02  0.11695760396E+02  0.00000000000E+00 0. -1.
</event>
<event>
 8    1  0.2516265E-006  0.9118800E+02  0.7816164E-02  0.1184000E+00
        -11   -1    0    0    0    0  0.00000000000E+00  0.00000000000E+00  0.45593999997E+02  0.45594000000E+02  0.51100000000E-03 0.  1.
         11   -1    0    0    0    0 -0.00000000000E+00 -0.00000000000E+00 -0.45593999997E+02  0.45594000000E+02  0.51100000000E-03 0. -1.
         23    2    1    2    0    0  0.88817841970E-15  0.17763568394E-14  0.00000000000E+00  0.91188000000E+02  0.91188000000E+02 0.  0.
    9900012    2    3    3    0    0  0.47218226399E+01  0.11905471856E+02 -0.34521626609E+02  0.54367101411E+02  0.40000039287E+02 0.  0.
        -12    1    3    3    0    0 -0.47218226399E+01 -0.11905471856E+02  0.34521626609E+02  0.36820898589E+02  0.00000000000E+00 0.  1.
         11    1    4    4    0    0  0.87811543930E+01  0.11483484355E+02 -0.17494271972E+02  0.22694242386E+02  0.51100000000E-03 0. -1.
        -11    1    4    4    0    0  0.61491126852E+00  0.98092215288E+01  0.19226853316E+01  0.10014772190E+02  0.51100000000E-03 0.  1.
         12    1    4    4    0    0 -0.46742430216E+01 -0.93872340280E+01 -0.18950039969E+02  0.21658086835E+02  0.00000000000E+00 0. -1.
</event>
<event>
 8    1  0.2516265E-006  0.9118800E+02  0.7816164E-02  0.1184000E+00
        -11   -1    0    0    0    0  0.00000000000E+00  0.00000000000E+00  0.45593999997E+02  0.45594000000E+02  0.51100000000E-03 0.  1.
         11   -1    0    0    0    0 -0.00000000000E+00 -0.00000000000E+00 -0.45593999997E+02  0.45594000000E+02  0.51100000000E-03 0. -1.
         23    2    1    2    0    0  0.00000000000E+00 -0.13322676296E-14 -0.35527136788E-14  0.91188000000E+02  0.91188000000E+02 0.  0.
    9900012    2    3    3    0    0  0.19049874667E+02 -0.33628460864E+01  0.31330082484E+02  0.54367074875E+02  0.39999978792E+02 0.  0.
         12    1    3    3    0    0 -0.19049874667E+02  0.33628460864E+01 -0.31330082484E+02  0.36820925125E+02  0.00000000000E+00 0. -1.
         11    1    4    4    0    0 -0.11142093972E+01  0.82242308258E+00  0.16976412571E+02  0.17032804418E+02  0.51100000000E-03 0. -1.
        -11    1    4    4    0    0  0.19994742293E+02 -0.14152184314E+02  0.10198116936E+02  0.26534423482E+02  0.51100000000E-03 0.  1.
        -12    1    4    4    0    0  0.16934177131E+00  0.99669151447E+01  0.41555529769E+01  0.10799846975E+02  0.00000000000E+00 0.  1.
</event>
<event>
 8    1  0.2516265E-006  0.9118800E+02  0.7816164E-02  0.1184000E+00
        -11   -1    0    0    0    0  0.00000000000E+00  0.00000000000E+00  0.45593999997E+02  0.45594000000E+02  0.51100000000E-03 0.  1.
         11   -1    0    0    0    0 -0.00000000000E+00 -0.00000000000E+00 -0.45593999997E+02  0.45594000000E+02  0.51100000000E-03 0. -1.
         23    2    1    2    0    0  0.88817841970E-15  0.00000000000E+00  0.17763568394E-14  0.91188000000E+02  0.91188000000E+02 0.  0.
    9900012    2    3    3    0    0 -0.22405749533E+01  0.35292116575E+02  0.10257915839E+02  0.54367102322E+02  0.40000041364E+02 0.  0.
        -12    1    3    3    0    0  0.22405749533E+01 -0.35292116575E+02 -0.10257915839E+02  0.36820897678E+02  0.00000000000E+00 0.  1.
         11    1    4    4    0    0  0.25002430521E+01  0.22313269572E+02  0.74965847399E+01  0.23671332817E+02  0.51100000000E-03 0. -1.
        -11    1    4    4    0    0  0.41196957021E+01  0.17056598256E+02 -0.49835756781E+01  0.18241037897E+02  0.51100000000E-03 0.  1.
        -12    1    4    4    0    0 -0.88605137075E+01 -0.40777512535E+01  0.77449067773E+01  0.12454731608E+02  0.00000000000E+00 0.  1.
</event>
<event>
 8    1  0.2516265E-006  0.9118800E+02  0.7816164E-02  0.1184000E+00
        -11   -1    0    0    0    0  0.00000000000E+00  0.00000000000E+00  0.45593999997E+02  0.45594000000E+02  0.51100000000E-03 0.  1.
         11   -1    0    0    0    0 -0.00000000000E+00 -0.00000000000E+00 -0.45593999997E+02  0.45594000000E+02  0.51100000000E-03 0. -1.
         23    2    1    2    0    0  0.00000000000E+00  0.00000000000E+00  0.00000000000E+00  0.91188000000E+02  0.91188000000E+02 0.  0.
    9900012    2    3    3    0    0  0.18902154396E+02  0.35645954288E+01  0.31397156149E+02  0.54367092955E+02  0.40000020010E+02 0.  0.
         12    1    3    3    0    0 -0.18902154396E+02 -0.35645954288E+01 -0.31397156149E+02  0.36820907045E+02  0.00000000000E+00 0. -1.
         11    1    4    4    0    0 -0.75798852843E+01  0.50444234671E+01  0.20862211294E+00  0.91073812089E+01  0.51100000000E-03 0. -1.
        -11    1    4    4    0    0  0.21866911434E+02  0.17304526270E+00  0.10988264005E+02  0.24473122122E+02  0.51100000000E-03 0.  1.
         12    1    4    4    0    0  0.46151282468E+01 -0.16528733010E+01  0.20200270030E+02  0.20786589624E+02  0.00000000000E+00 0. -1.
</event>
<event>
 8    1  0.2516265E-006  0.9118800E+02  0.7816164E-02  0.1184000E+00
        -11   -1    0    0    0    0  0.00000000000E+00  0.00000000000E+00  0.45593999997E+02  0.45594000000E+02  0.51100000000E-03 0. -1.
         11   -1    0    0    0    0 -0.00000000000E+00 -0.00000000000E+00 -0.45593999997E+02  0.45594000000E+02  0.51100000000E-03 0.  1.
         23    2    1    2    0    0 -0.71054273576E-14  0.00000000000E+00 -0.35527136788E-14  0.91188000000E+02  0.91188000000E+02 0.  0.
    9900012    2    3    3    0    0 -0.29132809963E+02 -0.37357515408E+01  0.22205950468E+02  0.54367072634E+02  0.39999973684E+02 0.  0.
        -12    1    3    3    0    0  0.29132809963E+02  0.37357515408E+01 -0.22205950468E+02  0.36820927366E+02  0.00000000000E+00 0.  1.
         11    1    4    4    0    0 -0.32981715329E+02 -0.70235871325E+01  0.14089409374E+02  0.36546351104E+02  0.51100000000E-03 0. -1.
        -11    1    4    4    0    0  0.52708173153E+01  0.80623242009E+01  0.84697306596E+01  0.12826493067E+02  0.51100000000E-03 0.  1.
        -12    1    4    4    0    0 -0.14219119493E+01 -0.47744886092E+01 -0.35318956614E+00  0.49942284630E+01  0.00000000000E+00 0.  1.
</event>
<event>
 8    1  0.2516265E-006  0.9118800E+02  0.7816164E-02  0.1184000E+00
        -11   -1    0    0    0    0  0.00000000000E+00  0.00000000000E+00  0.45593999997E+02  0.45594000000E+02  0.51100000000E-03 0.  1.
         11   -1    0    0    0    0 -0.00000000000E+00 -0.00000000000E+00 -0.45593999997E+02  0.45594000000E+02  0.51100000000E-03 0. -1.
         23    2    1    2    0    0  0.00000000000E+00  0.53290705182E-14  0.00000000000E+00  0.91188000000E+02  0.91188000000E+02 0.  0.
    9900012    2    3    3    0    0  0.21502420682E+02 -0.92307836347E+01  0.28429164923E+02  0.54367097242E+02  0.40000029782E+02 0.  0.
         12    1    3    3    0    0 -0.21502420682E+02  0.92307836347E+01 -0.28429164923E+02  0.36820902758E+02  0.00000000000E+00 0. -1.
         11    1    4    4    0    0  0.13914149434E+02 -0.92728593875E+01 -0.22480162792E+01  0.16871367851E+02  0.51100000000E-03 0. -1.
        -11    1    4    4    0    0  0.47228484977E+01  0.98904308478E+01  0.19161191931E+02  0.22074356090E+02  0.51100000000E-03 0.  1.
        -12    1    4    4    0    0  0.28654227505E+01 -0.98483550950E+01  0.11515989271E+02  0.15421373302E+02  0.00000000000E+00 0.  1.
</event>
<event>
 8    1  0.2516265E-006  0.9118800E+02  0.7816164E-02  0.1184000E+00
        -11   -1    0    0    0    0  0.00000000000E+00  0.00000000000E+00  0.45593999997E+02  0.45594000000E+02  0.51100000000E-03 0. -1.
         11   -1    0    0    0    0 -0.00000000000E+00 -0.00000000000E+00 -0.45593999997E+02  0.45594000000E+02  0.51100000000E-03 0.  1.
         23    2    1    2    0    0  0.00000000000E+00  0.71054273576E-14  0.17763568394E-14  0.91188000000E+02  0.91188000000E+02 0.  0.
    9900012    2    3    3    0    0  0.89862584621E+01  0.32094881339E+02  0.15650713550E+02  0.54367094471E+02  0.40000023466E+02 0.  0.
        -12    1    3    3    0    0 -0.89862584621E+01 -0.32094881339E+02 -0.15650713550E+02  0.36820905529E+02  0.00000000000E+00 0.  1.
         11    1    4    4    0    0  0.56526937274E+01  0.29266216676E+02  0.17901489231E+02  0.34769637644E+02  0.51100000000E-03 0. -1.
        -11    1    4    4    0    0 -0.39513472236E+01  0.22462505456E+01  0.66662136834E+01  0.80682830595E+01  0.51100000000E-03 0.  1.
         12    1    4    4    0    0  0.72849119583E+01  0.58241411710E+00 -0.89169893643E+01  0.11529173768E+02  0.00000000000E+00 0. -1.
</event>
<event>
 8    1  0.2516265E-006  0.9118800E+02  0.7816164E-02  0.1184000E+00
        -11   -1    0    0    0    0  0.00000000000E+00  0.00000000000E+00  0.45593999997E+02  0.45594000000E+02  0.51100000000E-03 0. -1.
         11   -1    0    0    0    0 -0.00000000000E+00 -0.00000000000E+00 -0.45593999997E+02  0.45594000000E+02  0.51100000000E-03 0.  1.
         23    2    1    2    0    0 -0.35527136788E-14 -0.35527136788E-14 -0.35527136788E-14  0.91188000000E+02  0.91188000000E+02 0.  0.
    9900012    2    3    3    0    0 -0.10743160672E+02 -0.24374068355E+02 -0.25421817567E+02  0.54367088579E+02  0.40000010034E+02 0.  0.
         12    1    3    3    0    0  0.10743160672E+02  0.24374068355E+02  0.25421817567E+02  0.36820911421E+02  0.00000000000E+00 0. -1.
         11    1    4    4    0    0 -0.47773297739E+01 -0.16000930162E+02  0.76592056800E+01  0.18371610646E+02  0.51100000000E-03 0. -1.
        -11    1    4    4    0    0 -0.38078997149E+00 -0.23055646127E+01 -0.50357275644E+00  0.23904424209E+01  0.51100000000E-03 0.  1.
        -12    1    4    4    0    0 -0.55850409264E+01 -0.60675735810E+01 -0.32577450491E+02  0.33605035513E+02  0.00000000000E+00 0.  1.
</event>
<event>
 8    1  0.2516265E-006  0.9118800E+02  0.7816164E-02  0.1184000E+00
        -11   -1    0    0    0    0  0.00000000000E+00  0.00000000000E+00  0.45593999997E+02  0.45594000000E+02  0.51100000000E-03 0.  1.
         11   -1    0    0    0    0 -0.00000000000E+00 -0.00000000000E+00 -0.45593999997E+02  0.45594000000E+02  0.51100000000E-03 0. -1.
         23    2    1    2    0    0  0.00000000000E+00  0.00000000000E+00  0.44408920985E-15  0.91188000000E+02  0.91188000000E+02 0.  0.
    9900012    2    3    3    0    0  0.35267561375E+02 -0.10497360505E+02  0.13360255418E+01  0.54367076232E+02  0.39999981885E+02 0.  0.
         12    1    3    3    0    0 -0.35267561375E+02  0.10497360505E+02 -0.13360255418E+01  0.36820923768E+02  0.00000000000E+00 0. -1.
         11    1    4    4    0    0  0.33387813038E+02  0.39812098815E+01 -0.52395903195E+00  0.33628419899E+02  0.51100000000E-03 0. -1.
        -11    1    4    4    0    0 -0.31103130744E+01 -0.12609482148E+02  0.56871742584E+01  0.14178047777E+02  0.51100000000E-03 0.  1.
         12    1    4    4    0    0  0.49900614112E+01 -0.18690882384E+01 -0.38271896846E+01  0.65606085550E+01  0.00000000000E+00 0. -1.
</event>
<event>
 8    1  0.2516265E-006  0.9118800E+02  0.7816164E-02  0.1184000E+00
        -11   -1    0    0    0    0  0.00000000000E+00  0.00000000000E+00  0.45593999997E+02  0.45594000000E+02  0.51100000000E-03 0. -1.
         11   -1    0    0    0    0 -0.00000000000E+00 -0.00000000000E+00 -0.45593999997E+02  0.45594000000E+02  0.51100000000E-03 0.  1.
         23    2    1    2    0    0 -0.88817841970E-15  0.00000000000E+00  0.35527136788E-14  0.91188000000E+02  0.91188000000E+02 0.  0.
    9900012    2    3    3    0    0 -0.37248486089E+01 -0.32936571990E+02 -0.16033877451E+02  0.54367116011E+02  0.40000072570E+02 0.  0.
         12    1    3    3    0    0  0.37248486089E+01  0.32936571990E+02  0.16033877451E+02  0.36820883989E+02  0.00000000000E+00 0. -1.
         11    1    4    4    0    0 -0.78349851972E+01 -0.24822001521E+02 -0.12210058742E+02  0.28750726726E+02  0.51100000000E-03 0. -1.
        -11    1    4    4    0    0  0.10275788394E+02 -0.68380863664E+01  0.61740235863E+01  0.13801080385E+02  0.51100000000E-03 0.  1.
        -12    1    4    4    0    0 -0.61656518058E+01 -0.12764841031E+01 -0.99978422954E+01  0.11815308901E+02  0.00000000000E+00 0.  1.
</event>
<event>
 8    1  0.2516265E-006  0.9118800E+02  0.7816164E-02  0.1184000E+00
        -11   -1    0    0    0    0  0.00000000000E+00  0.00000000000E+00  0.45593999997E+02  0.45594000000E+02  0.51100000000E-03 0. -1.
         11   -1    0    0    0    0 -0.00000000000E+00 -0.00000000000E+00 -0.45593999997E+02  0.45594000000E+02  0.51100000000E-03 0.  1.
         23    2    1    2    0    0  0.00000000000E+00  0.35527136788E-14  0.35527136788E-14  0.91188000000E+02  0.91188000000E+02 0.  0.
    9900012    2    3    3    0    0 -0.28097915253E+02 -0.15931632031E+02 -0.17676858876E+02  0.54367067360E+02  0.39999961661E+02 0.  0.
        -12    1    3    3    0    0  0.28097915253E+02  0.15931632031E+02  0.17676858876E+02  0.36820932640E+02  0.00000000000E+00 0.  1.
         11    1    4    4    0    0 -0.39234873844E+01 -0.12835543264E+01  0.11660069102E+01  0.42896197197E+01  0.51100000000E-03 0. -1.
        -11    1    4    4    0    0 -0.74242933535E+01  0.83412775863E+01  0.56738205775E+01  0.12525545249E+02  0.51100000000E-03 0.  1.
        -12    1    4    4    0    0 -0.16750134515E+02 -0.22989355291E+02 -0.24516686364E+02  0.37551902392E+02  0.00000000000E+00 0.  1.
</event>
<event>
 8    1  0.2516265E-006  0.9118800E+02  0.7816164E-02  0.1184000E+00
        -11   -1    0    0    0    0  0.00000000000E+00  0.00000000000E+00  0.45593999997E+02  0.45594000000E+02  0.51100000000E-03 0. -1.
         11   -1    0    0    0    0 -0.00000000000E+00 -0.00000000000E+00 -0.45593999997E+02  0.45594000000E+02  0.51100000000E-03 0.  1.
         23    2    1    2    0    0  0.00000000000E+00 -0.88817841970E-15  0.00000000000E+00  0.91188000000E+02  0.91188000000E+02 0.  0.
    9900012    2    3    3    0    0 -0.35771047820E+02 -0.25472522824E+01  0.83500443676E+01  0.54367087501E+02  0.40000007576E+02 0.  0.
        -12    1    3    3    0    0  0.35771047820E+02  0.25472522824E+01 -0.83500443676E+01  0.36820912499E+02  0.00000000000E+00 0.  1.
         11    1    4    4    0    0 -0.27198560123E+02  0.19457726709E+01  0.16343257640E+02  0.31790718372E+02  0.51100000000E-03 0. -1.
        -11    1    4    4    0    0 -0.11000355496E+02  0.37834444206E+01 -0.13937433905E+01  0.11716005873E+02  0.51100000000E-03 0.  1.
         12    1    4    4    0    0  0.24278677984E+01 -0.82764693739E+01 -0.65994698822E+01  0.10860363257E+02  0.00000000000E+00 0. -1.
</event>
<event>
 8    1  0.2516265E-006  0.9118800E+02  0.7816164E-02  0.1184000E+00
        -11   -1    0    0    0    0  0.00000000000E+00  0.00000000000E+00  0.45593999997E+02  0.45594000000E+02  0.51100000000E-03 0.  1.
         11   -1    0    0    0    0 -0.00000000000E+00 -0.00000000000E+00 -0.45593999997E+02  0.45594000000E+02  0.51100000000E-03 0. -1.
         23    2    1    2    0    0  0.00000000000E+00  0.00000000000E+00  0.00000000000E+00  0.91188000000E+02  0.91188000000E+02 0.  0.
    9900012    2    3    3    0    0  0.21478396854E+02  0.19809298757E+02 -0.22406492156E+02  0.54367071992E+02  0.39999972220E+02 0.  0.
         12    1    3    3    0    0 -0.21478396854E+02 -0.19809298757E+02  0.22406492156E+02  0.36820928008E+02  0.00000000000E+00 0. -1.
         11    1    4    4    0    0 -0.57821699748E+00  0.22433083025E+00 -0.17520041120E+01  0.18585418713E+01  0.51100000000E-03 0. -1.
        -11    1    4    4    0    0  0.30121421673E+02  0.24488908948E+02 -0.16062144972E+02  0.42011893630E+02  0.51100000000E-03 0.  1.
        -12    1    4    4    0    0 -0.80648078207E+01 -0.49039410211E+01 -0.45923430720E+01  0.10496636491E+02  0.00000000000E+00 0.  1.
</event>
<event>
 8    1  0.2516265E-006  0.9118800E+02  0.7816164E-02  0.1184000E+00
        -11   -1    0    0    0    0  0.00000000000E+00  0.00000000000E+00  0.45593999997E+02  0.45594000000E+02  0.51100000000E-03 0.  1.
         11   -1    0    0    0    0 -0.00000000000E+00 -0.00000000000E+00 -0.45593999997E+02  0.45594000000E+02  0.51100000000E-03 0. -1.
         23    2    1    2    0    0  0.00000000000E+00  0.00000000000E+00  0.00000000000E+00  0.91188000000E+02  0.91188000000E+02 0.  0.
    9900012    2    3    3    0    0 -0.14539167841E+01  0.35955085732E+02  0.78035392698E+01  0.54367118844E+02  0.40000079028E+02 0.  0.
         12    1    3    3    0    0  0.14539167841E+01 -0.35955085732E+02 -0.78035392698E+01  0.36820881156E+02  0.00000000000E+00 0. -1.
         11    1    4    4    0    0 -0.59913787668E+01  0.22253930551E+01  0.15126285701E+02  0.16421130082E+02  0.51100000000E-03 0. -1.
        -11    1    4    4    0    0 -0.43721129045E+01  0.16920896983E+02 -0.72526619142E+01  0.18921766066E+02  0.51100000000E-03 0.  1.
        -12    1    4    4    0    0  0.89095748871E+01  0.16808795694E+02 -0.70084517261E-01  0.19024222696E+02  0.00000000000E+00 0.  1.
</event>
<event>
 8    1  0.2516265E-006  0.9118800E+02  0.7816164E-02  0.1184000E+00
        -11   -1    0    0    0    0  0.00000000000E+00  0.00000000000E+00  0.45593999997E+02  0.45594000000E+02  0.51100000000E-03 0.  1.
         11   -1    0    0    0    0 -0.00000000000E+00 -0.00000000000E+00 -0.45593999997E+02  0.45594000000E+02  0.51100000000E-03 0. -1.
         23    2    1    2    0    0  0.00000000000E+00  0.00000000000E+00  0.00000000000E+00  0.91188000000E+02  0.91188000000E+02 0.  0.
    9900012    2    3    3    0    0 -0.89004012860E+01  0.35432717089E+02 -0.45918420828E+01  0.54367087504E+02  0.40000007582E+02 0.  0.
        -12    1    3    3    0    0  0.89004012860E+01 -0.35432717089E+02  0.45918420828E+01  0.36820912496E+02  0.00000000000E+00 0.  1.
         11    1    4    4    0    0  0.38660344584E+01 -0.28358201861E+01 -0.13239091530E+01  0.49740159095E+01  0.51100000000E-03 0. -1.
        -11    1    4    4    0    0  0.79260848016E+01  0.37925297408E+01 -0.26557080364E+01  0.91792639984E+01  0.51100000000E-03 0.  1.
         12    1    4    4    0    0 -0.20692520546E+02  0.34476007534E+02 -0.61222489347E+00  0.40213807596E+02  0.00000000000E+00 0. -1.
</event>
<event>
 8    1  0.2516265E-006  0.9118800E+02  0.7816164E-02  0.1184000E+00
        -11   -1    0    0    0    0  0.00000000000E+00  0.00000000000E+00  0.45593999997E+02  0.45594000000E+02  0.51100000000E-03 0.  1.
         11   -1    0    0    0    0 -0.00000000000E+00 -0.00000000000E+00 -0.45593999997E+02  0.45594000000E+02  0.51100000000E-03 0. -1.
         23    2    1    2    0    0  0.35527136788E-14  0.35527136788E-14  0.17763568394E-14  0.91188000000E+02  0.91188000000E+02 0.  0.
    9900012    2    3    3    0    0 -0.23361020684E+02 -0.25440089832E+02  0.12761062155E+02  0.54367079786E+02  0.39999989988E+02 0.  0.
         12    1    3    3    0    0  0.23361020684E+02  0.25440089832E+02 -0.12761062155E+02  0.36820920214E+02  0.00000000000E+00 0. -1.
         11    1    4    4    0    0 -0.33893468444E+01  0.65555008890E+01  0.71700868904E+00  0.74146048889E+01  0.51100000000E-03 0. -1.
        -11    1    4    4    0    0 -0.16821186361E+02 -0.24640139569E+02  0.19801528378E+02  0.35807671174E+02  0.51100000000E-03 0.  1.
         12    1    4    4    0    0 -0.31504874788E+01 -0.73554511527E+01 -0.77574749116E+01  0.11144803723E+02  0.00000000000E+00 0. -1.
</event>
<event>
 8    1  0.2516265E-006  0.9118800E+02  0.7816164E-02  0.1184000E+00
        -11   -1    0    0    0    0  0.00000000000E+00  0.00000000000E+00  0.45593999997E+02  0.45594000000E+02  0.51100000000E-03 0. -1.
         11   -1    0    0    0    0 -0.00000000000E+00 -0.00000000000E+00 -0.45593999997E+02  0.45594000000E+02  0.51100000000E-03 0.  1.
         23    2    1    2    0    0  0.88817841970E-15  0.00000000000E+00  0.00000000000E+00  0.91188000000E+02  0.91188000000E+02 0.  0.
    9900012    2    3    3    0    0 -0.63484895994E+01  0.11692597118E+02  0.34333052170E+02  0.54367100787E+02  0.40000037864E+02 0.  0.
        -12    1    3    3    0    0  0.63484895994E+01 -0.11692597118E+02 -0.34333052170E+02  0.36820899213E+02  0.00000000000E+00 0.  1.
         11    1    4    4    0    0 -0.34371693269E+01  0.35401205631E+01 -0.19024460429E+01  0.52882783389E+01  0.51100000000E-03 0. -1.
        -11    1    4    4    0    0 -0.17165023635E+02  0.18561405172E+01  0.16000597073E+02  0.23539379791E+02  0.51100000000E-03 0.  1.
         12    1    4    4    0    0  0.14253703363E+02  0.62963360380E+01  0.20234901140E+02  0.25539442657E+02  0.00000000000E+00 0. -1.
</event>
<event>
 8    1  0.2516265E-006  0.9118800E+02  0.7816164E-02  0.1184000E+00
        -11   -1    0    0    0    0  0.00000000000E+00  0.00000000000E+00  0.45593999997E+02  0.45594000000E+02  0.51100000000E-03 0. -1.
         11   -1    0    0    0    0 -0.00000000000E+00 -0.00000000000E+00 -0.45593999997E+02  0.45594000000E+02  0.51100000000E-03 0.  1.
         23    2    1    2    0    0  0.00000000000E+00 -0.35527136788E-14  0.00000000000E+00  0.91188000000E+02  0.91188000000E+02 0.  0.
    9900012    2    3    3    0    0  0.22749138365E+02  0.21499623541E+02 -0.19391313754E+02  0.54367079888E+02  0.39999990221E+02 0.  0.
         12    1    3    3    0    0 -0.22749138365E+02 -0.21499623541E+02  0.19391313754E+02  0.36820920112E+02  0.00000000000E+00 0. -1.
         11    1    4    4    0    0  0.91648176761E+01  0.17485559740E+01  0.10625611856E+02  0.14140543080E+02  0.51100000000E-03 0. -1.
        -11    1    4    4    0    0  0.14810238182E+02  0.15585426583E+02 -0.20237195666E+02  0.29526136988E+02  0.51100000000E-03 0.  1.
         12    1    4    4    0    0 -0.12259174926E+01  0.41656409844E+01 -0.97797299447E+01  0.10700399820E+02  0.00000000000E+00 0. -1.
</event>
<event>
 8    1  0.2516265E-006  0.9118800E+02  0.7816164E-02  0.1184000E+00
        -11   -1    0    0    0    0  0.00000000000E+00  0.00000000000E+00  0.45593999997E+02  0.45594000000E+02  0.51100000000E-03 0. -1.
         11   -1    0    0    0    0 -0.00000000000E+00 -0.00000000000E+00 -0.45593999997E+02  0.45594000000E+02  0.51100000000E-03 0.  1.
         23    2    1    2    0    0 -0.35527136788E-14  0.17763568394E-14 -0.35527136788E-14  0.91188000000E+02  0.91188000000E+02 0.  0.
    9900012    2    3    3    0    0 -0.28968100124E+02  0.15742055129E+02 -0.16395587077E+02  0.54367103758E+02  0.40000044637E+02 0.  0.
         12    1    3    3    0    0  0.28968100124E+02 -0.15742055129E+02  0.16395587077E+02  0.36820896242E+02  0.00000000000E+00 0. -1.
         11    1    4    4    0    0 -0.52659487872E+01 -0.56841136716E+01  0.47575539885E+01  0.90925070842E+01  0.51100000000E-03 0. -1.
        -11    1    4    4    0    0 -0.11890867722E+02 -0.35311940933E+01 -0.60084987582E+01  0.13782747349E+02  0.51100000000E-03 0.  1.
         12    1    4    4    0    0 -0.11811283615E+02  0.24957362894E+02 -0.15144642307E+02  0.31491849325E+02  0.00000000000E+00 0. -1.
</event>
<event>
 8    1  0.2516265E-006  0.9118800E+02  0.7816164E-02  0.1184000E+00
        -11   -1    0    0    0    0  0.00000000000E+00  0.00000000000E+00  0.45593999997E+02  0.45594000000E+02  0.51100000000E-03 0.  1.
         11   -1    0    0    0    0 -0.00000000000E+00 -0.00000000000E+00 -0.45593999997E+02  0.45594000000E+02  0.51100000000E-03 0. -1.
         23    2    1    2    0    0  0.00000000000E+00  0.88817841970E-15  0.00000000000E+00  0.91188000000E+02  0.91188000000E+02 0.  0.
    9900012    2    3    3    0    0  0.33567334683E+02 -0.46150539663E+01  0.14412428197E+02  0.54367044454E+02  0.39999909441E+02 0.  0.
        -12    1    3    3    0    0 -0.33567334683E+02  0.46150539663E+01 -0.14412428197E+02  0.36820955546E+02  0.00000000000E+00 0.  1.
         11    1    4    4    0    0 -0.65165043356E+00  0.88850983024E+01 -0.49622187424E+01  0.10197707352E+02  0.51100000000E-03 0. -1.
        -11    1    4    4    0    0  0.30191873531E+02 -0.16277757753E+02  0.14425319147E+02  0.37210273548E+02  0.51100000000E-03 0.  1.
        -12    1    4    4    0    0  0.40271115850E+01  0.27776054840E+01  0.49493277925E+01  0.69590635534E+01  0.00000000000E+00 0.  1.
</event>
<event>
 8    1  0.2516265E-006  0.9118800E+02  0.7816164E-02  0.1184000E+00
        -11   -1    0    0    0    0  0.00000000000E+00  0.00000000000E+00  0.45593999997E+02  0.45594000000E+02  0.51100000000E-03 0.  1.
         11   -1    0    0    0    0 -0.00000000000E+00 -0.00000000000E+00 -0.45593999997E+02  0.45594000000E+02  0.51100000000E-03 0. -1.
         23    2    1    2    0    0  0.35527136788E-14  0.35527136788E-14  0.00000000000E+00  0.91188000000E+02  0.91188000000E+02 0.  0.
    9900012    2    3    3    0    0  0.21315128612E+02  0.27017973036E+02  0.13094811869E+02  0.54367086478E+02  0.40000005243E+02 0.  0.
        -12    1    3    3    0    0 -0.21315128612E+02 -0.27017973036E+02 -0.13094811869E+02  0.36820913522E+02  0.00000000000E+00 0.  1.
         11    1    4    4    0    0  0.29648887228E+01  0.25784194485E+01  0.10146849930E+02  0.10881055820E+02  0.51100000000E-03 0. -1.
        -11    1    4    4    0    0  0.39879085263E+01  0.64819147567E+01  0.15515255866E+02  0.17281255689E+02  0.51100000000E-03 0.  1.
         12    1    4    4    0    0  0.14362331363E+02  0.17957638831E+02 -0.12567293927E+02  0.26204774970E+02  0.00000000000E+00 0. -1.
</event>
<event>
 8    1  0.2516265E-006  0.9118800E+02  0.7816164E-02  0.1184000E+00
        -11   -1    0    0    0    0  0.00000000000E+00  0.00000000000E+00  0.45593999997E+02  0.45594000000E+02  0.51100000000E-03 0.  1.
         11   -1    0    0    0    0 -0.00000000000E+00 -0.00000000000E+00 -0.45593999997E+02  0.45594000000E+02  0.51100000000E-03 0. -1.
         23    2    1    2    0    0  0.35527136788E-14  0.00000000000E+00 -0.71054273576E-14  0.91188000000E+02  0.91188000000E+02 0.  0.
    9900012    2    3    3    0    0 -0.24546328006E+02 -0.47862720189E+01  0.27024977584E+02  0.54367081600E+02  0.39999994124E+02 0.  0.
         12    1    3    3    0    0  0.24546328006E+02  0.47862720189E+01 -0.27024977584E+02  0.36820918400E+02  0.00000000000E+00 0. -1.
         11    1    4    4    0    0  0.35207930472E+01 -0.45157818899E+01  0.39912041036E+01  0.69798266608E+01  0.51100000000E-03 0. -1.
        -11    1    4    4    0    0 -0.84385363802E+01 -0.12987972941E+01  0.26129891803E+02  0.27489398257E+02  0.51100000000E-03 0.  1.
         12    1    4    4    0    0 -0.19628584673E+02  0.10283071651E+01 -0.30961183223E+01  0.19897856682E+02  0.00000000000E+00 0. -1.
</event>
<event>
 8    1  0.2516265E-006  0.9118800E+02  0.7816164E-02  0.1184000E+00
        -11   -1    0    0    0    0  0.00000000000E+00  0.00000000000E+00  0.45593999997E+02  0.45594000000E+02  0.51100000000E-03 0. -1.
         11   -1    0    0    0    0 -0.00000000000E+00 -0.00000000000E+00 -0.45593999997E+02  0.45594000000E+02  0.51100000000E-03 0.  1.
         23    2    1    2    0    0  0.35527136788E-14  0.00000000000E+00  0.35527136788E-14  0.91188000000E+02  0.91188000000E+02 0.  0.
    9900012    2    3    3    0    0 -0.22269732829E+02  0.12703053819E+02 -0.26428593196E+02  0.54367094051E+02  0.40000022508E+02 0.  0.
        -12    1    3    3    0    0  0.22269732829E+02 -0.12703053819E+02  0.26428593196E+02  0.36820905949E+02  0.00000000000E+00 0.  1.
         11    1    4    4    0    0 -0.31894299325E+02  0.11500294032E+02 -0.25992002202E+02  0.42721040144E+02  0.51100000000E-03 0. -1.
        -11    1    4    4    0    0  0.72996976103E+01  0.14084568934E+01  0.25465453003E+01  0.78583859188E+01  0.51100000000E-03 0.  1.
         12    1    4    4    0    0  0.23248688859E+01 -0.20569710660E+00 -0.29831362943E+01  0.37876679879E+01  0.00000000000E+00 0. -1.
</event>
<event>
 8    1  0.2516265E-006  0.9118800E+02  0.7816164E-02  0.1184000E+00
        -11   -1    0    0    0    0  0.00000000000E+00  0.00000000000E+00  0.45593999997E+02  0.45594000000E+02  0.51100000000E-03 0. -1.
         11   -1    0    0    0    0 -0.00000000000E+00 -0.00000000000E+00 -0.45593999997E+02  0.45594000000E+02  0.51100000000E-03 0.  1.
         23    2    1    2    0    0  0.00000000000E+00  0.17763568394E-14 -0.35527136788E-14  0.91188000000E+02  0.91188000000E+02 0.  0.
    9900012    2    3    3    0    0  0.18432323912E+02  0.14051383485E+02 -0.28610972300E+02  0.54367086396E+02  0.40000005058E+02 0.  0.
         12    1    3    3    0    0 -0.18432323912E+02 -0.14051383485E+02  0.28610972300E+02  0.36820913604E+02  0.00000000000E+00 0. -1.
         11    1    4    4    0    0  0.29960164959E+01 -0.49135397549E+01 -0.11355497105E+02  0.12730526404E+02  0.51100000000E-03 0. -1.
        -11    1    4    4    0    0  0.14359392968E+02 -0.32095170448E+01 -0.11574531888E+02  0.18720655831E+02  0.51100000000E-03 0.  1.
        -12    1    4    4    0    0  0.10769144485E+01  0.22174440285E+02 -0.56809433078E+01  0.22915904162E+02  0.00000000000E+00 0.  1.
</event>
<event>
 8    1  0.2516265E-006  0.9118800E+02  0.7816164E-02  0.1184000E+00
        -11   -1    0    0    0    0  0.00000000000E+00  0.00000000000E+00  0.45593999997E+02  0.45594000000E+02  0.51100000000E-03 0.  1.
         11   -1    0    0    0    0 -0.00000000000E+00 -0.00000000000E+00 -0.45593999997E+02  0.45594000000E+02  0.51100000000E-03 0. -1.
         23    2    1    2    0    0  0.00000000000E+00 -0.35527136788E-14  0.00000000000E+00  0.91188000000E+02  0.91188000000E+02 0.  0.
    9900012    2    3    3    0    0  0.17695226522E+02 -0.23852311967E+02 -0.21765213463E+02  0.54367104506E+02  0.40000046343E+02 0.  0.
        -12    1    3    3    0    0 -0.17695226522E+02  0.23852311967E+02  0.21765213463E+02  0.36820895494E+02  0.00000000000E+00 0.  1.
         11    1    4    4    0    0  0.57560407666E+01 -0.77560478335E+01 -0.13954234505E+02  0.16970826267E+02  0.51100000000E-03 0. -1.
        -11    1    4    4    0    0 -0.27831843571E+01 -0.20216541368E+02 -0.41079296886E+00  0.20411354957E+02  0.51100000000E-03 0.  1.
        -12    1    4    4    0    0  0.14722370113E+02  0.41202772345E+01 -0.74001859889E+01  0.16984923282E+02  0.00000000000E+00 0.  1.
</event>
<event>
 8    1  0.2516265E-006  0.9118800E+02  0.7816164E-02  0.1184000E+00
        -11   -1    0    0    0    0  0.00000000000E+00  0.00000000000E+00  0.45593999997E+02  0.45594000000E+02  0.51100000000E-03 0.  1.
         11   -1    0    0    0    0 -0.00000000000E+00 -0.00000000000E+00 -0.45593999997E+02  0.45594000000E+02  0.51100000000E-03 0. -1.
         23    2    1    2    0    0  0.22204460493E-15 -0.35527136788E-14  0.35527136788E-14  0.91188000000E+02  0.91188000000E+02 0.  0.
    9900012    2    3    3    0    0 -0.96142608544E+00 -0.26188322074E+02  0.25865689845E+02  0.54366994251E+02  0.39999794994E+02 0.  0.
         12    1    3    3    0    0  0.96142608544E+00  0.26188322074E+02 -0.25865689845E+02  0.36821005749E+02  0.00000000000E+00 0. -1.
         11    1    4    4    0    0 -0.29238507092E+01 -0.71811938964E+01  0.36481906717E+01  0.85689990188E+01  0.51100000000E-03 0. -1.
        -11    1    4    4    0    0  0.81630777660E+01 -0.20434217406E+02  0.29062150840E+02  0.36452732288E+02  0.51100000000E-03 0.  1.
         12    1    4    4    0    0 -0.62006531423E+01  0.14270892275E+01 -0.68446516665E+01  0.93452629438E+01  0.00000000000E+00 0. -1.
</event>
<event>
 8    1  0.2516265E-006  0.9118800E+02  0.7816164E-02  0.1184000E+00
        -11   -1    0    0    0    0  0.00000000000E+00  0.00000000000E+00  0.45593999997E+02  0.45594000000E+02  0.51100000000E-03 0.  1.
         11   -1    0    0    0    0 -0.00000000000E+00 -0.00000000000E+00 -0.45593999997E+02  0.45594000000E+02  0.51100000000E-03 0. -1.
         23    2    1    2    0    0  0.00000000000E+00  0.88817841970E-15  0.00000000000E+00  0.91188000000E+02  0.91188000000E+02 0.  0.
    9900012    2    3    3    0    0  0.17772586411E+02  0.79296559443E+01  0.31257599136E+02  0.54367057930E+02  0.39999940164E+02 0.  0.
         12    1    3    3    0    0 -0.17772586411E+02 -0.79296559443E+01 -0.31257599136E+02  0.36820942070E+02  0.00000000000E+00 0. -1.
         11    1    4    4    0    0 -0.92616018815E+01  0.90899400375E+01  0.22930646543E+01  0.13178104001E+02  0.51100000000E-03 0. -1.
        -11    1    4    4    0    0  0.18144408613E+02  0.28278960429E+01  0.13048220226E+02  0.22527152756E+02  0.51100000000E-03 0.  1.
        -12    1    4    4    0    0  0.88897796793E+01 -0.39881801361E+01  0.15916314256E+02  0.18661801173E+02  0.00000000000E+00 0.  1.
</event>
<event>
 8    1  0.2516265E-006  0.9118800E+02  0.7816164E-02  0.1184000E+00
        -11   -1    0    0    0    0  0.00000000000E+00  0.00000000000E+00  0.45593999997E+02  0.45594000000E+02  0.51100000000E-03 0.  1.
         11   -1    0    0    0    0 -0.00000000000E+00 -0.00000000000E+00 -0.45593999997E+02  0.45594000000E+02  0.51100000000E-03 0. -1.
         23    2    1    2    0    0 -0.17763568394E-14 -0.22204460493E-14  0.00000000000E+00  0.91188000000E+02  0.91188000000E+02 0.  0.
    9900012    2    3    3    0    0  0.12232813983E+02 -0.33459329401E+01  0.34567964311E+02  0.54367066256E+02  0.39999959144E+02 0.  0.
         12    1    3    3    0    0 -0.12232813983E+02  0.33459329401E+01 -0.34567964311E+02  0.36820933744E+02  0.00000000000E+00 0. -1.
         11    1    4    4    0    0  0.60694325159E+01 -0.10695198630E+02 -0.23733206283E+01  0.12524293827E+02  0.51100000000E-03 0. -1.
        -11    1    4    4    0    0 -0.97002648721E+00  0.11399420867E+02  0.22075420374E+02  0.24863868010E+02  0.51100000000E-03 0.  1.
        -12    1    4    4    0    0  0.71334079543E+01 -0.40501551773E+01  0.14865864565E+02  0.16978904419E+02  0.00000000000E+00 0.  1.
</event>
<event>
 8    1  0.2516265E-006  0.9118800E+02  0.7816164E-02  0.1184000E+00
        -11   -1    0    0    0    0  0.00000000000E+00  0.00000000000E+00  0.45593999997E+02  0.45594000000E+02  0.51100000000E-03 0.  1.
         11   -1    0    0    0    0 -0.00000000000E+00 -0.00000000000E+00 -0.45593999997E+02  0.45594000000E+02  0.51100000000E-03 0. -1.
         23    2    1    2    0    0 -0.35527136788E-14 -0.35527136788E-14 -0.66613381478E-15  0.91188000000E+02  0.91188000000E+02 0.  0.
    9900012    2    3    3    0    0 -0.22385876218E+02 -0.29172103122E+02 -0.19082642405E+01  0.54367074875E+02  0.39999978793E+02 0.  0.
         12    1    3    3    0    0  0.22385876218E+02  0.29172103122E+02  0.19082642405E+01  0.36820925125E+02  0.00000000000E+00 0. -1.
         11    1    4    4    0    0 -0.94180308182E+01 -0.13820752169E+02 -0.60586782564E+01  0.17788200513E+02  0.51100000000E-03 0. -1.
        -11    1    4    4    0    0  0.76805332950E+01 -0.12799104273E+01  0.81521370622E+01  0.11273247152E+02  0.51100000000E-03 0.  1.
        -12    1    4    4    0    0 -0.20648378695E+02 -0.14071440526E+02 -0.40017230463E+01  0.25305627211E+02  0.00000000000E+00 0.  1.
</event>
<event>
 8    1  0.2516265E-006  0.9118800E+02  0.7816164E-02  0.1184000E+00
        -11   -1    0    0    0    0  0.00000000000E+00  0.00000000000E+00  0.45593999997E+02  0.45594000000E+02  0.51100000000E-03 0.  1.
         11   -1    0    0    0    0 -0.00000000000E+00 -0.00000000000E+00 -0.45593999997E+02  0.45594000000E+02  0.51100000000E-03 0. -1.
         23    2    1    2    0    0  0.00000000000E+00 -0.22204460493E-15  0.00000000000E+00  0.91188000000E+02  0.91188000000E+02 0.  0.
    9900012    2    3    3    0    0 -0.36493471140E+02  0.81185981042E+00  0.48318628444E+01  0.54367089490E+02  0.40000012111E+02 0.  0.
         12    1    3    3    0    0  0.36493471140E+02 -0.81185981042E+00 -0.48318628444E+01  0.36820910510E+02  0.00000000000E+00 0. -1.
         11    1    4    4    0    0 -0.15882137912E+02 -0.15108454923E+02 -0.56968484321E-01  0.21920560223E+02  0.51100000000E-03 0. -1.
        -11    1    4    4    0    0  0.32718960208E+01  0.63560262741E+00  0.21337712418E+01  0.39575591271E+01  0.51100000000E-03 0.  1.
        -12    1    4    4    0    0 -0.23883229250E+02  0.15284712106E+02  0.27550600870E+01  0.28488970140E+02  0.00000000000E+00 0.  1.
</event>
<event>
 8    1  0.2516265E-006  0.9118800E+02  0.7816164E-02  0.1184000E+00
        -11   -1    0    0    0    0  0.00000000000E+00  0.00000000000E+00  0.45593999997E+02  0.45594000000E+02  0.51100000000E-03 0.  1.
         11   -1    0    0    0    0 -0.00000000000E+00 -0.00000000000E+00 -0.45593999997E+02  0.45594000000E+02  0.51100000000E-03 0. -1.
         23    2    1    2    0    0 -0.35527136788E-14 -0.35527136788E-14  0.00000000000E+00  0.91188000000E+02  0.91188000000E+02 0.  0.
    9900012    2    3    3    0    0 -0.14511531669E+02  0.26078856062E+02  0.21565909094E+02  0.54367085835E+02  0.40000003777E+02 0.  0.
         12    1    3    3    0    0  0.14511531669E+02 -0.26078856062E+02 -0.21565909094E+02  0.36820914165E+02  0.00000000000E+00 0. -1.
         11    1    4    4    0    0  0.69357002604E+01  0.84954489586E+01  0.15171841716E+02  0.18720613570E+02  0.51100000000E-03 0. -1.
        -11    1    4    4    0    0 -0.76096950686E+01  0.19265022912E+02  0.64912424192E+01  0.21706791455E+02  0.51100000000E-03 0.  1.
         12    1    4    4    0    0 -0.13837536861E+02 -0.16816158085E+01 -0.97175040964E-01  0.13939680810E+02  0.00000000000E+00 0. -1.
</event>
<event>
 8    1  0.2516265E-006  0.9118800E+02  0.7816164E-02  0.1184000E+00
        -11   -1    0    0    0    0  0.00000000000E+00  0.00000000000E+00  0.45593999997E+02  0.45594000000E+02  0.51100000000E-03 0. -1.
         11   -1    0    0    0    0 -0.00000000000E+00 -0.00000000000E+00 -0.45593999997E+02  0.45594000000E+02  0.51100000000E-03 0.  1.
         23    2    1    2    0    0 -0.35527136788E-14  0.00000000000E+00  0.00000000000E+00  0.91188000000E+02  0.91188000000E+02 0.  0.
    9900012    2    3    3    0    0  0.30797634189E+02  0.16875803698E+02  0.11067628041E+02  0.54367090009E+02  0.40000013294E+02 0.  0.
         12    1    3    3    0    0 -0.30797634189E+02 -0.16875803698E+02 -0.11067628041E+02  0.36820909991E+02  0.00000000000E+00 0. -1.
         11    1    4    4    0    0  0.31064506359E+02  0.62929626566E+01  0.32856591926E+01  0.31865349377E+02  0.51100000000E-03 0. -1.
        -11    1    4    4    0    0  0.70703493084E+01 -0.26937967818E+00 -0.34821564789E+00  0.70840425714E+01  0.51100000000E-03 0.  1.
         12    1    4    4    0    0 -0.73372214780E+01  0.10852220719E+02  0.81301844962E+01  0.15417698061E+02  0.00000000000E+00 0. -1.
</event>
<event>
 8    1  0.2516265E-006  0.9118800E+02  0.7816164E-02  0.1184000E+00
        -11   -1    0    0    0    0  0.00000000000E+00  0.00000000000E+00  0.45593999997E+02  0.45594000000E+02  0.51100000000E-03 0. -1.
         11   -1    0    0    0    0 -0.00000000000E+00 -0.00000000000E+00 -0.45593999997E+02  0.45594000000E+02  0.51100000000E-03 0.  1.
         23    2    1    2    0    0  0.13322676296E-14  0.35527136788E-14  0.35527136788E-14  0.91188000000E+02  0.91188000000E+02 0.  0.
    9900012    2    3    3    0    0 -0.32957801513E+01  0.21383718473E+02 -0.29793517881E+02  0.54367091670E+02  0.40000017079E+02 0.  0.
         12    1    3    3    0    0  0.32957801513E+01 -0.21383718473E+02  0.29793517881E+02  0.36820908330E+02  0.00000000000E+00 0. -1.
         11    1    4    4    0    0  0.71168360664E+01  0.18881368944E+02 -0.19471060510E+02  0.28040642761E+02  0.51100000000E-03 0. -1.
        -11    1    4    4    0    0 -0.76488740014E+01  0.56732390858E+01 -0.16382697405E+02  0.18949503681E+02  0.51100000000E-03 0.  1.
         12    1    4    4    0    0 -0.27637422163E+01 -0.31708895561E+01  0.60602400349E+01  0.73769452279E+01  0.00000000000E+00 0. -1.
</event>
<event>
 8    1  0.2516265E-006  0.9118800E+02  0.7816164E-02  0.1184000E+00
        -11   -1    0    0    0    0  0.00000000000E+00  0.00000000000E+00  0.45593999997E+02  0.45594000000E+02  0.51100000000E-03 0. -1.
         11   -1    0    0    0    0 -0.00000000000E+00 -0.00000000000E+00 -0.45593999997E+02  0.45594000000E+02  0.51100000000E-03 0.  1.
         23    2    1    2    0    0  0.88817841970E-15  0.00000000000E+00 -0.35527136788E-14  0.91188000000E+02  0.91188000000E+02 0.  0.
    9900012    2    3    3    0    0  0.59147991816E+01 -0.25212919909E+02 -0.26174473189E+02  0.54367092537E+02  0.40000019056E+02 0.  0.
         12    1    3    3    0    0 -0.59147991816E+01  0.25212919909E+02  0.26174473189E+02  0.36820907463E+02  0.00000000000E+00 0. -1.
         11    1    4    4    0    0 -0.12805843807E+02 -0.90849430998E+01 -0.31706629267E+01  0.16018081358E+02  0.51100000000E-03 0. -1.
        -11    1    4    4    0    0  0.12305702945E+02 -0.13642833007E+02 -0.25146757219E+02  0.31143484332E+02  0.51100000000E-03 0.  1.
        -12    1    4    4    0    0  0.64149400433E+01 -0.24851438031E+01  0.21429469569E+01  0.72055268469E+01  0.00000000000E+00 0.  1.
</event>
<event>
 8    1  0.2516265E-006  0.9118800E+02  0.7816164E-02  0.1184000E+00
        -11   -1    0    0    0    0  0.00000000000E+00  0.00000000000E+00  0.45593999997E+02  0.45594000000E+02  0.51100000000E-03 0.  1.
         11   -1    0    0    0    0 -0.00000000000E+00 -0.00000000000E+00 -0.45593999997E+02  0.45594000000E+02  0.51100000000E-03 0. -1.
         23    2    1    2    0    0  0.00000000000E+00 -0.35527136788E-14  0.00000000000E+00  0.91188000000E+02  0.91188000000E+02 0.  0.
    9900012    2    3    3    0    0  0.27228724875E+02  0.17592799871E+02 -0.17460529954E+02  0.54367079698E+02  0.39999989787E+02 0.  0.
        -12    1    3    3    0    0 -0.27228724875E+02 -0.17592799871E+02  0.17460529954E+02  0.36820920302E+02  0.00000000000E+00 0.  1.
         11    1    4    4    0    0  0.65286145489E+01  0.17253130485E+02 -0.34032485765E+01  0.18758342693E+02  0.51100000000E-03 0. -1.
        -11    1    4    4    0    0  0.19387276911E+02  0.26843288261E+00  0.20051905543E+01  0.19492546053E+02  0.51100000000E-03 0.  1.
         12    1    4    4    0    0  0.13128334154E+01  0.71236503978E-01 -0.16062471932E+02  0.16116190951E+02  0.00000000000E+00 0. -1.
</event>
<event>
 8    1  0.2516265E-006  0.9118800E+02  0.7816164E-02  0.1184000E+00
        -11   -1    0    0    0    0  0.00000000000E+00  0.00000000000E+00  0.45593999997E+02  0.45594000000E+02  0.51100000000E-03 0.  1.
         11   -1    0    0    0    0 -0.00000000000E+00 -0.00000000000E+00 -0.45593999997E+02  0.45594000000E+02  0.51100000000E-03 0. -1.
         23    2    1    2    0    0  0.00000000000E+00 -0.17763568394E-14 -0.17763568394E-14  0.91188000000E+02  0.91188000000E+02 0.  0.
    9900012    2    3    3    0    0 -0.34603503282E+02 -0.12096856225E+01 -0.12526605087E+02  0.54367060119E+02  0.39999945153E+02 0.  0.
         12    1    3    3    0    0  0.34603503282E+02  0.12096856225E+01  0.12526605087E+02  0.36820939881E+02  0.00000000000E+00 0. -1.
         11    1    4    4    0    0 -0.26247989330E+02 -0.19205103865E+02 -0.66491173032E+01  0.33196441368E+02  0.51100000000E-03 0. -1.
        -11    1    4    4    0    0 -0.45732816928E+01  0.12201567634E+02 -0.57696258800E+01  0.14250675114E+02  0.51100000000E-03 0.  1.
         12    1    4    4    0    0 -0.37822322594E+01  0.57938506090E+01 -0.10786190383E+00  0.69199436366E+01  0.00000000000E+00 0. -1.
</event>
<event>
 8    1  0.2516265E-006  0.9118800E+02  0.7816164E-02  0.1184000E+00
        -11   -1    0    0    0    0  0.00000000000E+00  0.00000000000E+00  0.45593999997E+02  0.45594000000E+02  0.51100000000E-03 0.  1.
         11   -1    0    0    0    0 -0.00000000000E+00 -0.00000000000E+00 -0.45593999997E+02  0.45594000000E+02  0.51100000000E-03 0. -1.
         23    2    1    2    0    0  0.88817841970E-15  0.35527136788E-14  0.00000000000E+00  0.91188000000E+02  0.91188000000E+02 0.  0.
    9900012    2    3    3    0    0  0.67470277821E+01  0.25393522955E+02 -0.25795849415E+02  0.54367092366E+02  0.40000018668E+02 0.  0.
        -12    1    3    3    0    0 -0.67470277821E+01 -0.25393522955E+02  0.25795849415E+02  0.36820907634E+02  0.00000000000E+00 0.  1.
         11    1    4    4    0    0  0.16148906830E+02  0.64154848720E+00 -0.39277832961E+01  0.16632085201E+02  0.51100000000E-03 0. -1.
        -11    1    4    4    0    0  0.30316816716E+01  0.75428211882E-01 -0.13570415387E+01  0.33224005134E+01  0.51100000000E-03 0.  1.
        -12    1    4    4    0    0 -0.12433560719E+02  0.24676546256E+02 -0.20511024580E+02  0.34412606652E+02  0.00000000000E+00 0.  1.
</event>
<event>
 8    1  0.2516265E-006  0.9118800E+02  0.7816164E-02  0.1184000E+00
        -11   -1    0    0    0    0  0.00000000000E+00  0.00000000000E+00  0.45593999997E+02  0.45594000000E+02  0.51100000000E-03 0. -1.
         11   -1    0    0    0    0 -0.00000000000E+00 -0.00000000000E+00 -0.45593999997E+02  0.45594000000E+02  0.51100000000E-03 0.  1.
         23    2    1    2    0    0  0.00000000000E+00 -0.35527136788E-14 -0.35527136788E-14  0.91188000000E+02  0.91188000000E+02 0.  0.
    9900012    2    3    3    0    0 -0.65199340704E+01 -0.28993322943E+02 -0.21740686998E+02  0.54367084928E+02  0.40000001711E+02 0.  0.
         12    1    3    3    0    0  0.65199340704E+01  0.28993322943E+02  0.21740686998E+02  0.36820915072E+02  0.00000000000E+00 0. -1.
         11    1    4    4    0    0 -0.76490411448E+01 -0.10027452861E+02 -0.21744582430E+02  0.25137313035E+02  0.51100000000E-03 0. -1.
        -11    1    4    4    0    0 -0.10303946382E+02 -0.61683129950E+01  0.92181829170E+00  0.12044465346E+02  0.51100000000E-03 0.  1.
         12    1    4    4    0    0  0.11433053457E+02 -0.12797557087E+02 -0.91792286026E+00  0.17185306547E+02  0.00000000000E+00 0. -1.
</event>
<event>
 8    1  0.2516265E-006  0.9118800E+02  0.7816164E-02  0.1184000E+00
        -11   -1    0    0    0    0  0.00000000000E+00  0.00000000000E+00  0.45593999997E+02  0.45594000000E+02  0.51100000000E-03 0.  1.
         11   -1    0    0    0    0 -0.00000000000E+00 -0.00000000000E+00 -0.45593999997E+02  0.45594000000E+02  0.51100000000E-03 0. -1.
         23    2    1    2    0    0 -0.44408920985E-15  0.00000000000E+00  0.00000000000E+00  0.91188000000E+02  0.91188000000E+02 0.  0.
    9900012    2    3    3    0    0  0.22405036445E+01  0.28565624096E+02  0.23124994653E+02  0.54367080480E+02  0.39999991570E+02 0.  0.
         12    1    3    3    0    0 -0.22405036445E+01 -0.28565624096E+02 -0.23124994653E+02  0.36820919520E+02  0.00000000000E+00 0. -1.
         11    1    4    4    0    0 -0.44664832771E+00  0.49644981991E+01 -0.59168028640E+01  0.77365556607E+01  0.51100000000E-03 0. -1.
        -11    1    4    4    0    0  0.10224309206E+02  0.70172441407E+01  0.61906237648E-01  0.12400888948E+02  0.51100000000E-03 0.  1.
         12    1    4    4    0    0 -0.75371572335E+01  0.16583881756E+02  0.28979891280E+02  0.34229635871E+02  0.00000000000E+00 0. -1.
</event>
<event>
 8    1  0.2516265E-006  0.9118800E+02  0.7816164E-02  0.1184000E+00
        -11   -1    0    0    0    0  0.00000000000E+00  0.00000000000E+00  0.45593999997E+02  0.45594000000E+02  0.51100000000E-03 0.  1.
         11   -1    0    0    0    0 -0.00000000000E+00 -0.00000000000E+00 -0.45593999997E+02  0.45594000000E+02  0.51100000000E-03 0. -1.
         23    2    1    2    0    0  0.00000000000E+00  0.00000000000E+00 -0.71054273576E-14  0.91188000000E+02  0.91188000000E+02 0.  0.
    9900012    2    3    3    0    0  0.92740927095E+01  0.53183517294E+01  0.35234721270E+02  0.54367092302E+02  0.40000018522E+02 0.  0.
         12    1    3    3    0    0 -0.92740927095E+01 -0.53183517294E+01 -0.35234721270E+02  0.36820907698E+02  0.00000000000E+00 0. -1.
         11    1    4    4    0    0  0.12421389442E+02  0.96913216699E+01  0.98698552532E+01  0.18591037474E+02  0.51100000000E-03 0. -1.
        -11    1    4    4    0    0 -0.98776218084E+01  0.30939915080E-01  0.77939598339E+00  0.99083716234E+01  0.51100000000E-03 0.  1.
         12    1    4    4    0    0  0.67303250763E+01 -0.44039098556E+01  0.24585470033E+02  0.25867683205E+02  0.00000000000E+00 0. -1.
</event>
<event>
 8    1  0.2516265E-006  0.9118800E+02  0.7816164E-02  0.1184000E+00
        -11   -1    0    0    0    0  0.00000000000E+00  0.00000000000E+00  0.45593999997E+02  0.45594000000E+02  0.51100000000E-03 0.  1.
         11   -1    0    0    0    0 -0.00000000000E+00 -0.00000000000E+00 -0.45593999997E+02  0.45594000000E+02  0.51100000000E-03 0. -1.
         23    2    1    2    0    0 -0.17763568394E-14  0.00000000000E+00  0.00000000000E+00  0.91188000000E+02  0.91188000000E+02 0.  0.
    9900012    2    3    3    0    0  0.11458078905E+02  0.31851157255E+02 -0.14491262222E+02  0.54367075630E+02  0.39999980513E+02 0.  0.
        -12    1    3    3    0    0 -0.11458078905E+02 -0.31851157255E+02  0.14491262222E+02  0.36820924370E+02  0.00000000000E+00 0.  1.
         11    1    4    4    0    0 -0.10451287178E+02  0.46102120910E+01 -0.81334358445E+01  0.14022704379E+02  0.51100000000E-03 0. -1.
        -11    1    4    4    0    0  0.44986958713E+01  0.20241367733E+02 -0.70827948190E+00  0.20747358684E+02  0.51100000000E-03 0.  1.
        -12    1    4    4    0    0  0.17410670212E+02  0.69995774307E+01 -0.56495468957E+01  0.19597012567E+02  0.00000000000E+00 0.  1.
</event>
<event>
 8    1  0.2516265E-006  0.9118800E+02  0.7816164E-02  0.1184000E+00
        -11   -1    0    0    0    0  0.00000000000E+00  0.00000000000E+00  0.45593999997E+02  0.45594000000E+02  0.51100000000E-03 0. -1.
         11   -1    0    0    0    0 -0.00000000000E+00 -0.00000000000E+00 -0.45593999997E+02  0.45594000000E+02  0.51100000000E-03 0.  1.
         23    2    1    2    0    0  0.35527136788E-14  0.00000000000E+00 -0.44408920985E-15  0.91188000000E+02  0.91188000000E+02 0.  0.
    9900012    2    3    3    0    0 -0.22824114055E+02  0.28886391093E+02  0.64545508450E+00  0.54367076804E+02  0.39999983189E+02 0.  0.
         12    1    3    3    0    0  0.22824114055E+02 -0.28886391093E+02 -0.64545508450E+00  0.36820923196E+02  0.00000000000E+00 0. -1.
         11    1    4    4    0    0  0.43917216866E+01  0.15872823808E+02  0.45354123835E+01  0.17082263338E+02  0.51100000000E-03 0. -1.
        -11    1    4    4    0    0 -0.17570479074E+02  0.16915875848E+02  0.33358720255E+01  0.24616998864E+02  0.51100000000E-03 0.  1.
        -12    1    4    4    0    0 -0.96453566671E+01 -0.39023085630E+01 -0.72258293245E+01  0.12667814602E+02  0.00000000000E+00 0.  1.
</event>
<event>
 8    1  0.2516265E-006  0.9118800E+02  0.7816164E-02  0.1184000E+00
        -11   -1    0    0    0    0  0.00000000000E+00  0.00000000000E+00  0.45593999997E+02  0.45594000000E+02  0.51100000000E-03 0. -1.
         11   -1    0    0    0    0 -0.00000000000E+00 -0.00000000000E+00 -0.45593999997E+02  0.45594000000E+02  0.51100000000E-03 0.  1.
         23    2    1    2    0    0  0.00000000000E+00 -0.17763568394E-14  0.00000000000E+00  0.91188000000E+02  0.91188000000E+02 0.  0.
    9900012    2    3    3    0    0 -0.33738134680E+02 -0.11856773294E+02  0.87712552491E+01  0.54367085790E+02  0.40000003676E+02 0.  0.
        -12    1    3    3    0    0  0.33738134680E+02  0.11856773294E+02 -0.87712552491E+01  0.36820914210E+02  0.00000000000E+00 0.  1.
         11    1    4    4    0    0 -0.49096920864E+01  0.48602039285E+01  0.63208862371E+01  0.93637739023E+01  0.51100000000E-03 0. -1.
        -11    1    4    4    0    0 -0.32694736505E+02 -0.57209860541E+01  0.30546108615E+01  0.33331758495E+02  0.51100000000E-03 0.  1.
        -12    1    4    4    0    0  0.38662939123E+01 -0.10995991168E+02 -0.60424184939E+00  0.11671553393E+02  0.00000000000E+00 0.  1.
</event>
<event>
 8    1  0.2516265E-006  0.9118800E+02  0.7816164E-02  0.1184000E+00
        -11   -1    0    0    0    0  0.00000000000E+00  0.00000000000E+00  0.45593999997E+02  0.45594000000E+02  0.51100000000E-03 0.  1.
         11   -1    0    0    0    0 -0.00000000000E+00 -0.00000000000E+00 -0.45593999997E+02  0.45594000000E+02  0.51100000000E-03 0. -1.
         23    2    1    2    0    0  0.00000000000E+00  0.88817841970E-15  0.00000000000E+00  0.91188000000E+02  0.91188000000E+02 0.  0.
    9900012    2    3    3    0    0  0.10678086073E+02 -0.40380067096E+01 -0.35006470553E+02  0.54367082019E+02  0.39999995079E+02 0.  0.
        -12    1    3    3    0    0 -0.10678086073E+02  0.40380067096E+01  0.35006470553E+02  0.36820917981E+02  0.00000000000E+00 0.  1.
         11    1    4    4    0    0  0.86016081296E+01  0.82347574093E+01 -0.33409127287E+02  0.35467854155E+02  0.51100000000E-03 0. -1.
        -11    1    4    4    0    0  0.66268258635E+01 -0.47544284430E+01 -0.48957508728E+01  0.95125069100E+01  0.51100000000E-03 0.  1.
         12    1    4    4    0    0 -0.45503479196E+01 -0.75183356759E+01  0.32984076074E+01  0.93867209541E+01  0.00000000000E+00 0. -1.
</event>
<event>
 8    1  0.2516265E-006  0.9118800E+02  0.7816164E-02  0.1184000E+00
        -11   -1    0    0    0    0  0.00000000000E+00  0.00000000000E+00  0.45593999997E+02  0.45594000000E+02  0.51100000000E-03 0.  1.
         11   -1    0    0    0    0 -0.00000000000E+00 -0.00000000000E+00 -0.45593999997E+02  0.45594000000E+02  0.51100000000E-03 0. -1.
         23    2    1    2    0    0  0.00000000000E+00  0.00000000000E+00 -0.35527136788E-14  0.91188000000E+02  0.91188000000E+02 0.  0.
    9900012    2    3    3    0    0  0.22119052055E+02  0.15414531513E+02 -0.25078401075E+02  0.54366994499E+02  0.39999795559E+02 0.  0.
        -12    1    3    3    0    0 -0.22119052055E+02 -0.15414531513E+02  0.25078401075E+02  0.36821005501E+02  0.00000000000E+00 0.  1.
         11    1    4    4    0    0  0.15438701377E+02  0.18270181228E+02 -0.43350460974E+01  0.24309373650E+02  0.51100000000E-03 0. -1.
        -11    1    4    4    0    0 -0.41585272163E+01  0.38599457978E+01  0.40793279442E-01  0.56739928202E+01  0.51100000000E-03 0.  1.
         12    1    4    4    0    0  0.10838877894E+02 -0.67155955124E+01 -0.20784148257E+02  0.24383628029E+02  0.00000000000E+00 0. -1.
</event>
<event>
 8    1  0.2516265E-006  0.9118800E+02  0.7816164E-02  0.1184000E+00
        -11   -1    0    0    0    0  0.00000000000E+00  0.00000000000E+00  0.45593999997E+02  0.45594000000E+02  0.51100000000E-03 0.  1.
         11   -1    0    0    0    0 -0.00000000000E+00 -0.00000000000E+00 -0.45593999997E+02  0.45594000000E+02  0.51100000000E-03 0. -1.
         23    2    1    2    0    0  0.00000000000E+00  0.72164496601E-15  0.00000000000E+00  0.91188000000E+02  0.91188000000E+02 0.  0.
    9900012    2    3    3    0    0 -0.28932924805E+02 -0.32763134076E-01  0.22774237179E+02  0.54367067227E+02  0.39999961357E+02 0.  0.
         12    1    3    3    0    0  0.28932924805E+02  0.32763134076E-01 -0.22774237179E+02  0.36820932773E+02  0.00000000000E+00 0. -1.
         11    1    4    4    0    0 -0.97663574610E+01 -0.52081085741E+01  0.18628116587E+02  0.21668245448E+02  0.51100000000E-03 0.  1.
        -11    1    4    4    0    0  0.35382092055E+01 -0.19789853092E+01  0.76298160572E+01  0.86399884585E+01  0.51100000000E-03 0. -1.
         12    1    4    4    0    0 -0.22704776550E+02  0.71543307492E+01 -0.34836954650E+01  0.24058833320E+02  0.00000000000E+00 0. -1.
</event>
<event>
 8    1  0.2516265E-006  0.9118800E+02  0.7816164E-02  0.1184000E+00
        -11   -1    0    0    0    0  0.00000000000E+00  0.00000000000E+00  0.45593999997E+02  0.45594000000E+02  0.51100000000E-03 0.  1.
         11   -1    0    0    0    0 -0.00000000000E+00 -0.00000000000E+00 -0.45593999997E+02  0.45594000000E+02  0.51100000000E-03 0. -1.
         23    2    1    2    0    0  0.22204460493E-15  0.35527136788E-14 -0.35527136788E-14  0.91188000000E+02  0.91188000000E+02 0.  0.
    9900012    2    3    3    0    0  0.13025110782E+01  0.24613533631E+02 -0.27354296920E+02  0.54367080227E+02  0.39999990993E+02 0.  0.
        -12    1    3    3    0    0 -0.13025110782E+01 -0.24613533631E+02  0.27354296920E+02  0.36820919773E+02  0.00000000000E+00 0.  1.
         11    1    4    4    0    0 -0.58182919010E+01  0.11122670865E+01 -0.76625568072E+01  0.96852690103E+01  0.51100000000E-03 0. -1.
        -11    1    4    4    0    0  0.21648161849E+00  0.25461525961E+02 -0.19425717022E+01  0.25536439721E+02  0.51100000000E-03 0.  1.
        -12    1    4    4    0    0  0.69043213608E+01 -0.19602594159E+01 -0.17749168411E+02  0.19145371496E+02  0.00000000000E+00 0.  1.
</event>
<event>
 8    1  0.2516265E-006  0.9118800E+02  0.7816164E-02  0.1184000E+00
        -11   -1    0    0    0    0  0.00000000000E+00  0.00000000000E+00  0.45593999997E+02  0.45594000000E+02  0.51100000000E-03 0. -1.
         11   -1    0    0    0    0 -0.00000000000E+00 -0.00000000000E+00 -0.45593999997E+02  0.45594000000E+02  0.51100000000E-03 0.  1.
         23    2    1    2    0    0  0.00000000000E+00 -0.88817841970E-15 -0.88817841970E-15  0.91188000000E+02  0.91188000000E+02 0.  0.
    9900012    2    3    3    0    0 -0.36024181453E+02  0.50415402321E+01  0.57115788446E+01  0.54367069673E+02  0.39999966933E+02 0.  0.
        -12    1    3    3    0    0  0.36024181453E+02 -0.50415402321E+01 -0.57115788446E+01  0.36820930327E+02  0.00000000000E+00 0.  1.
         11    1    4    4    0    0 -0.18147228045E+02  0.12509181237E+02  0.52252665540E+01  0.22651819171E+02  0.51100000000E-03 0. -1.
        -11    1    4    4    0    0  0.60308205626E+01  0.14075311571E+01  0.50287196787E+00  0.62132778059E+01  0.51100000000E-03 0.  1.
        -12    1    4    4    0    0 -0.23907773970E+02 -0.88751721620E+01 -0.16559677274E-01  0.25501972695E+02  0.00000000000E+00 0.  1.
</event>
<event>
 8    1  0.2516265E-006  0.9118800E+02  0.7816164E-02  0.1184000E+00
        -11   -1    0    0    0    0  0.00000000000E+00  0.00000000000E+00  0.45593999997E+02  0.45594000000E+02  0.51100000000E-03 0. -1.
         11   -1    0    0    0    0 -0.00000000000E+00 -0.00000000000E+00 -0.45593999997E+02  0.45594000000E+02  0.51100000000E-03 0.  1.
         23    2    1    2    0    0  0.00000000000E+00  0.00000000000E+00  0.00000000000E+00  0.91188000000E+02  0.91188000000E+02 0.  0.
    9900012    2    3    3    0    0  0.24891758996E+02  0.17533803990E+02  0.20706168774E+02  0.54367090539E+02  0.40000014501E+02 0.  0.
        -12    1    3    3    0    0 -0.24891758996E+02 -0.17533803990E+02 -0.20706168774E+02  0.36820909461E+02  0.00000000000E+00 0.  1.
         11    1    4    4    0    0  0.12029064979E+02  0.25837254862E+01  0.14908531094E+02  0.19329726881E+02  0.51100000000E-03 0. -1.
        -11    1    4    4    0    0  0.20716848103E+02  0.13556881011E+02 -0.67091984878E+00  0.24767457516E+02  0.51100000000E-03 0.  1.
        -12    1    4    4    0    0 -0.78541540865E+01  0.13931974925E+01  0.64685575290E+01  0.10269906142E+02  0.00000000000E+00 0.  1.
</event>
<event>
 8    1  0.2516265E-006  0.9118800E+02  0.7816164E-02  0.1184000E+00
        -11   -1    0    0    0    0  0.00000000000E+00  0.00000000000E+00  0.45593999997E+02  0.45594000000E+02  0.51100000000E-03 0. -1.
         11   -1    0    0    0    0 -0.00000000000E+00 -0.00000000000E+00 -0.45593999997E+02  0.45594000000E+02  0.51100000000E-03 0.  1.
         23    2    1    2    0    0  0.00000000000E+00  0.00000000000E+00  0.00000000000E+00  0.91188000000E+02  0.91188000000E+02 0.  0.
    9900012    2    3    3    0    0 -0.21088454118E+02  0.24195663196E+02 -0.18045131772E+02  0.54367084812E+02  0.40000001447E+02 0.  0.
         12    1    3    3    0    0  0.21088454118E+02 -0.24195663196E+02  0.18045131772E+02  0.36820915188E+02  0.00000000000E+00 0. -1.
         11    1    4    4    0    0  0.55044462754E+01  0.45164224280E+01  0.10215542786E+00  0.71209154145E+01  0.51100000000E-03 0. -1.
        -11    1    4    4    0    0 -0.84635756742E+01 -0.10003130435E+01  0.61815069162E+01  0.10528236671E+02  0.51100000000E-03 0.  1.
        -12    1    4    4    0    0 -0.18129324719E+02  0.20679553811E+02 -0.24328794116E+02  0.36717932727E+02  0.00000000000E+00 0.  1.
</event>
<event>
 8    1  0.2516265E-006  0.9118800E+02  0.7816164E-02  0.1184000E+00
        -11   -1    0    0    0    0  0.00000000000E+00  0.00000000000E+00  0.45593999997E+02  0.45594000000E+02  0.51100000000E-03 0. -1.
         11   -1    0    0    0    0 -0.00000000000E+00 -0.00000000000E+00 -0.45593999997E+02  0.45594000000E+02  0.51100000000E-03 0.  1.
         23    2    1    2    0    0 -0.35527136788E-14  0.17763568394E-14 -0.35527136788E-14  0.91188000000E+02  0.91188000000E+02 0.  0.
    9900012    2    3    3    0    0  0.27025772755E+02  0.13360611454E+02 -0.21139574540E+02  0.54367082804E+02  0.39999996868E+02 0.  0.
         12    1    3    3    0    0 -0.27025772755E+02 -0.13360611454E+02  0.21139574540E+02  0.36820917196E+02  0.00000000000E+00 0. -1.
         11    1    4    4    0    0  0.14497205467E+02  0.96274810430E+01 -0.26166934521E+01  0.17598421591E+02  0.51100000000E-03 0. -1.
        -11    1    4    4    0    0  0.15078012751E+02  0.47711533050E+01 -0.25084123426E+02  0.29653391386E+02  0.51100000000E-03 0.  1.
         12    1    4    4    0    0 -0.25494454634E+01 -0.10380228944E+01  0.65612423378E+01  0.71152698273E+01  0.00000000000E+00 0. -1.
</event>
<event>
 8    1  0.2516265E-006  0.9118800E+02  0.7816164E-02  0.1184000E+00
        -11   -1    0    0    0    0  0.00000000000E+00  0.00000000000E+00  0.45593999997E+02  0.45594000000E+02  0.51100000000E-03 0.  1.
         11   -1    0    0    0    0 -0.00000000000E+00 -0.00000000000E+00 -0.45593999997E+02  0.45594000000E+02  0.51100000000E-03 0. -1.
         23    2    1    2    0    0  0.71054273576E-14  0.00000000000E+00  0.17763568394E-14  0.91188000000E+02  0.91188000000E+02 0.  0.
    9900012    2    3    3    0    0  0.32496059765E+02  0.17076343893E+02 -0.28607814894E+01  0.54367088934E+02  0.40000010842E+02 0.  0.
        -12    1    3    3    0    0 -0.32496059765E+02 -0.17076343893E+02  0.28607814894E+01  0.36820911066E+02  0.00000000000E+00 0.  1.
         11    1    4    4    0    0  0.16293045117E+02  0.92726689734E+01 -0.21181236248E+02  0.28285870648E+02  0.51100000000E-03 0. -1.
        -11    1    4    4    0    0  0.13095449331E+02  0.80523577075E+01  0.14318902163E+02  0.21008622450E+02  0.51100000000E-03 0.  1.
         12    1    4    4    0    0  0.31075653175E+01 -0.24868278753E+00  0.40015525954E+01  0.50725958350E+01  0.00000000000E+00 0. -1.
</event>
<event>
 8    1  0.2516265E-006  0.9118800E+02  0.7816164E-02  0.1184000E+00
        -11   -1    0    0    0    0  0.00000000000E+00  0.00000000000E+00  0.45593999997E+02  0.45594000000E+02  0.51100000000E-03 0.  1.
         11   -1    0    0    0    0 -0.00000000000E+00 -0.00000000000E+00 -0.45593999997E+02  0.45594000000E+02  0.51100000000E-03 0. -1.
         23    2    1    2    0    0  0.00000000000E+00 -0.17763568394E-14  0.00000000000E+00  0.91188000000E+02  0.91188000000E+02 0.  0.
    9900012    2    3    3    0    0 -0.34572646502E+02  0.76819464609E+01 -0.10074685009E+02  0.54367089288E+02  0.40000011650E+02 0.  0.
        -12    1    3    3    0    0  0.34572646502E+02 -0.76819464609E+01  0.10074685009E+02  0.36820910712E+02  0.00000000000E+00 0.  1.
         11    1    4    4    0    0 -0.35276918251E+01 -0.51635019041E+01 -0.33865236832E+01  0.71116035073E+01  0.51100000000E-03 0. -1.
        -11    1    4    4    0    0 -0.12384100524E+02  0.16369570000E+02 -0.16074831528E+02  0.26071612468E+02  0.51100000000E-03 0.  1.
        -12    1    4    4    0    0 -0.18660854153E+02 -0.35241216350E+01  0.93866702025E+01  0.21183873313E+02  0.00000000000E+00 0.  1.
</event>
<event>
 8    1  0.2516265E-006  0.9118800E+02  0.7816164E-02  0.1184000E+00
        -11   -1    0    0    0    0  0.00000000000E+00  0.00000000000E+00  0.45593999997E+02  0.45594000000E+02  0.51100000000E-03 0.  1.
         11   -1    0    0    0    0 -0.00000000000E+00 -0.00000000000E+00 -0.45593999997E+02  0.45594000000E+02  0.51100000000E-03 0. -1.
         23    2    1    2    0    0  0.44408920985E-15  0.00000000000E+00  0.00000000000E+00  0.91188000000E+02  0.91188000000E+02 0.  0.
    9900012    2    3    3    0    0  0.26190022557E+01 -0.20192329687E+02  0.30678865033E+02  0.54367053370E+02  0.39999929768E+02 0.  0.
         12    1    3    3    0    0 -0.26190022557E+01  0.20192329687E+02 -0.30678865033E+02  0.36820946630E+02  0.00000000000E+00 0. -1.
         11    1    4    4    0    0 -0.63583402482E+01 -0.10315343216E+02  0.18970064975E+02  0.22509956947E+02  0.51100000000E-03 0. -1.
        -11    1    4    4    0    0  0.10976943807E+02 -0.17372415631E+02  0.12510195330E+02  0.24058244069E+02  0.51100000000E-03 0.  1.
        -12    1    4    4    0    0 -0.19996013036E+01  0.74954291596E+01 -0.80139527190E+00  0.77988523541E+01  0.00000000000E+00 0.  1.
</event>
<event>
 8    1  0.2516265E-006  0.9118800E+02  0.7816164E-02  0.1184000E+00
        -11   -1    0    0    0    0  0.00000000000E+00  0.00000000000E+00  0.45593999997E+02  0.45594000000E+02  0.51100000000E-03 0. -1.
         11   -1    0    0    0    0 -0.00000000000E+00 -0.00000000000E+00 -0.45593999997E+02  0.45594000000E+02  0.51100000000E-03 0.  1.
         23    2    1    2    0    0  0.00000000000E+00  0.71054273576E-14 -0.22204460493E-14  0.91188000000E+02  0.91188000000E+02 0.  0.
    9900012    2    3    3    0    0  0.15732954380E+02  0.33239022930E+02 -0.18494699980E+01  0.54367095094E+02  0.40000024886E+02 0.  0.
         12    1    3    3    0    0 -0.15732954380E+02 -0.33239022930E+02  0.18494699980E+01  0.36820904906E+02  0.00000000000E+00 0. -1.
         11    1    4    4    0    0  0.14096474693E+01  0.49382405359E+01  0.10439572781E+02  0.11634345950E+02  0.51100000000E-03 0. -1.
        -11    1    4    4    0    0  0.46387929878E+01  0.30498907046E+02 -0.10829347247E+02  0.32695205971E+02  0.51100000000E-03 0.  1.
         12    1    4    4    0    0  0.96845139224E+01 -0.21981246528E+01 -0.14596955321E+01  0.10037543173E+02  0.00000000000E+00 0. -1.
</event>
<event>
 8    1  0.2516265E-006  0.9118800E+02  0.7816164E-02  0.1184000E+00
        -11   -1    0    0    0    0  0.00000000000E+00  0.00000000000E+00  0.45593999997E+02  0.45594000000E+02  0.51100000000E-03 0. -1.
         11   -1    0    0    0    0 -0.00000000000E+00 -0.00000000000E+00 -0.45593999997E+02  0.45594000000E+02  0.51100000000E-03 0.  1.
         23    2    1    2    0    0  0.35527136788E-14 -0.88817841970E-15 -0.35527136788E-14  0.91188000000E+02  0.91188000000E+02 0.  0.
    9900012    2    3    3    0    0 -0.30843078619E+02  0.67086887514E+01  0.18959912720E+02  0.54367078042E+02  0.39999986013E+02 0.  0.
        -12    1    3    3    0    0  0.30843078619E+02 -0.67086887514E+01 -0.18959912720E+02  0.36820921958E+02  0.00000000000E+00 0.  1.
         11    1    4    4    0    0 -0.36734755873E+02  0.85851151780E+01  0.10304984846E+02  0.39106766737E+02  0.51100000000E-03 0. -1.
        -11    1    4    4    0    0  0.26908369590E+01  0.34582707971E+01  0.78460036426E+01  0.89866575470E+01  0.51100000000E-03 0.  1.
        -12    1    4    4    0    0  0.32008402953E+01 -0.53346972238E+01  0.80892423131E+00  0.62736537582E+01  0.00000000000E+00 0.  1.
</event>
<event>
 8    1  0.2516265E-006  0.9118800E+02  0.7816164E-02  0.1184000E+00
        -11   -1    0    0    0    0  0.00000000000E+00  0.00000000000E+00  0.45593999997E+02  0.45594000000E+02  0.51100000000E-03 0.  1.
         11   -1    0    0    0    0 -0.00000000000E+00 -0.00000000000E+00 -0.45593999997E+02  0.45594000000E+02  0.51100000000E-03 0. -1.
         23    2    1    2    0    0  0.00000000000E+00 -0.17763568394E-14  0.00000000000E+00  0.91188000000E+02  0.91188000000E+02 0.  0.
    9900012    2    3    3    0    0  0.15277223734E+02  0.98222142915E+01  0.32029836727E+02  0.54367083399E+02  0.39999998224E+02 0.  0.
         12    1    3    3    0    0 -0.15277223734E+02 -0.98222142915E+01 -0.32029836727E+02  0.36820916601E+02  0.00000000000E+00 0. -1.
         11    1    4    4    0    0 -0.40666349844E+01 -0.34283053823E+01 -0.46646610965E+01  0.70745926594E+01  0.51100000000E-03 0. -1.
        -11    1    4    4    0    0  0.18987014147E+02  0.17277061393E+02  0.30128592877E+02  0.39582011894E+02  0.51100000000E-03 0.  1.
        -12    1    4    4    0    0  0.35684457168E+00 -0.40265417188E+01  0.65659049458E+01  0.77104788450E+01  0.00000000000E+00 0.  1.
</event>
<event>
 8    1  0.2516265E-006  0.9118800E+02  0.7816164E-02  0.1184000E+00
        -11   -1    0    0    0    0  0.00000000000E+00  0.00000000000E+00  0.45593999997E+02  0.45594000000E+02  0.51100000000E-03 0. -1.
         11   -1    0    0    0    0 -0.00000000000E+00 -0.00000000000E+00 -0.45593999997E+02  0.45594000000E+02  0.51100000000E-03 0.  1.
         23    2    1    2    0    0  0.00000000000E+00 -0.35527136788E-14  0.35527136788E-14  0.91188000000E+02  0.91188000000E+02 0.  0.
    9900012    2    3    3    0    0 -0.10314731170E+02  0.18163564121E+02 -0.30322777647E+02  0.54367087668E+02  0.40000007958E+02 0.  0.
         12    1    3    3    0    0  0.10314731170E+02 -0.18163564121E+02  0.30322777647E+02  0.36820912332E+02  0.00000000000E+00 0. -1.
         11    1    4    4    0    0 -0.81502436214E+01 -0.11365808067E+01 -0.85586135927E+00  0.82734990147E+01  0.51100000000E-03 0. -1.
        -11    1    4    4    0    0 -0.13750613866E+02  0.21242136113E+01 -0.71546583836E+01  0.15645472252E+02  0.51100000000E-03 0.  1.
        -12    1    4    4    0    0  0.11586126317E+02  0.17175931316E+02 -0.22312257904E+02  0.30448116401E+02  0.00000000000E+00 0.  1.
</event>
<event>
 8    1  0.2516265E-006  0.9118800E+02  0.7816164E-02  0.1184000E+00
        -11   -1    0    0    0    0  0.00000000000E+00  0.00000000000E+00  0.45593999997E+02  0.45594000000E+02  0.51100000000E-03 0.  1.
         11   -1    0    0    0    0 -0.00000000000E+00 -0.00000000000E+00 -0.45593999997E+02  0.45594000000E+02  0.51100000000E-03 0. -1.
         23    2    1    2    0    0  0.00000000000E+00  0.00000000000E+00  0.00000000000E+00  0.91188000000E+02  0.91188000000E+02 0.  0.
    9900012    2    3    3    0    0 -0.65085204224E+01  0.28925342394E+02  0.21834469355E+02  0.54367077650E+02  0.39999985118E+02 0.  0.
         12    1    3    3    0    0  0.65085204224E+01 -0.28925342394E+02 -0.21834469355E+02  0.36820922350E+02  0.00000000000E+00 0. -1.
         11    1    4    4    0    0 -0.31084264243E+01 -0.34452298767E+01  0.10630956311E+02  0.11599532580E+02  0.51100000000E-03 0. -1.
        -11    1    4    4    0    0 -0.13109736221E+02  0.10176537094E+02  0.14727248759E+01  0.16661212736E+02  0.51100000000E-03 0.  1.
         12    1    4    4    0    0  0.97096422232E+01  0.22194035176E+02  0.97307881684E+01  0.26106332333E+02  0.00000000000E+00 0. -1.
</event>
<event>
 8    1  0.2516265E-006  0.9118800E+02  0.7816164E-02  0.1184000E+00
        -11   -1    0    0    0    0  0.00000000000E+00  0.00000000000E+00  0.45593999997E+02  0.45594000000E+02  0.51100000000E-03 0.  1.
         11   -1    0    0    0    0 -0.00000000000E+00 -0.00000000000E+00 -0.45593999997E+02  0.45594000000E+02  0.51100000000E-03 0. -1.
         23    2    1    2    0    0  0.88817841970E-15  0.00000000000E+00  0.00000000000E+00  0.91188000000E+02  0.91188000000E+02 0.  0.
    9900012    2    3    3    0    0  0.24127395740E+01 -0.16671931819E+02  0.32741498342E+02  0.54367077463E+02  0.39999984692E+02 0.  0.
         12    1    3    3    0    0 -0.24127395740E+01  0.16671931819E+02 -0.32741498342E+02  0.36820922537E+02  0.00000000000E+00 0. -1.
         11    1    4    4    0    0 -0.14746092114E+02 -0.15779024766E+02  0.24580632805E+02  0.32720519014E+02  0.51100000000E-03 0.  1.
        -11    1    4    4    0    0 -0.53864040237E-01 -0.15994007424E+01 -0.12370347559E+01  0.20226812201E+01  0.51100000000E-03 0. -1.
        -12    1    4    4    0    0  0.17212695729E+02  0.70649368943E+00  0.93979002931E+01  0.19623877229E+02  0.00000000000E+00 0.  1.
</event>
<event>
 8    1  0.2516265E-006  0.9118800E+02  0.7816164E-02  0.1184000E+00
        -11   -1    0    0    0    0  0.00000000000E+00  0.00000000000E+00  0.45593999997E+02  0.45594000000E+02  0.51100000000E-03 0.  1.
         11   -1    0    0    0    0 -0.00000000000E+00 -0.00000000000E+00 -0.45593999997E+02  0.45594000000E+02  0.51100000000E-03 0. -1.
         23    2    1    2    0    0  0.17763568394E-14 -0.35527136788E-14 -0.35527136788E-14  0.91188000000E+02  0.91188000000E+02 0.  0.
    9900012    2    3    3    0    0  0.13088097114E+02 -0.28430731980E+02  0.19395213163E+02  0.54367094245E+02  0.40000022951E+02 0.  0.
         12    1    3    3    0    0 -0.13088097114E+02  0.28430731980E+02 -0.19395213163E+02  0.36820905755E+02  0.00000000000E+00 0. -1.
         11    1    4    4    0    0  0.30443477387E+01 -0.62686486984E+01 -0.91135323809E+01  0.11472597020E+02  0.51100000000E-03 0. -1.
        -11    1    4    4    0    0 -0.46623655533E+01 -0.12417819882E+02  0.18003206509E+02  0.22361917361E+02  0.51100000000E-03 0.  1.
         12    1    4    4    0    0  0.14706114929E+02 -0.97442633989E+01  0.10505539034E+02  0.20532579865E+02  0.00000000000E+00 0. -1.
</event>
<event>
 8    1  0.2516265E-006  0.9118800E+02  0.7816164E-02  0.1184000E+00
        -11   -1    0    0    0    0  0.00000000000E+00  0.00000000000E+00  0.45593999997E+02  0.45594000000E+02  0.51100000000E-03 0. -1.
         11   -1    0    0    0    0 -0.00000000000E+00 -0.00000000000E+00 -0.45593999997E+02  0.45594000000E+02  0.51100000000E-03 0.  1.
         23    2    1    2    0    0  0.00000000000E+00  0.00000000000E+00  0.00000000000E+00  0.91188000000E+02  0.91188000000E+02 0.  0.
    9900012    2    3    3    0    0 -0.27773722908E+02 -0.19279320542E+02 -0.14584521097E+02  0.54367080126E+02  0.39999990763E+02 0.  0.
         12    1    3    3    0    0  0.27773722908E+02  0.19279320542E+02  0.14584521097E+02  0.36820919874E+02  0.00000000000E+00 0. -1.
         11    1    4    4    0    0  0.17237994494E+01 -0.17021068858E+02 -0.11698468029E+02  0.20725405282E+02  0.51100000000E-03 0. -1.
        -11    1    4    4    0    0 -0.25655453074E+02 -0.67276470233E+01 -0.56719912085E+01  0.27122591902E+02  0.51100000000E-03 0.  1.
         12    1    4    4    0    0 -0.38420692832E+01  0.44693953393E+01  0.27859381409E+01  0.65190829417E+01  0.00000000000E+00 0. -1.
</event>
<event>
 8    1  0.2516265E-006  0.9118800E+02  0.7816164E-02  0.1184000E+00
        -11   -1    0    0    0    0  0.00000000000E+00  0.00000000000E+00  0.45593999997E+02  0.45594000000E+02  0.51100000000E-03 0. -1.
         11   -1    0    0    0    0 -0.00000000000E+00 -0.00000000000E+00 -0.45593999997E+02  0.45594000000E+02  0.51100000000E-03 0.  1.
         23    2    1    2    0    0  0.00000000000E+00  0.17763568394E-14 -0.35527136788E-14  0.91188000000E+02  0.91188000000E+02 0.  0.
    9900012    2    3    3    0    0  0.25533006222E+02  0.13134532853E+02 -0.23050674203E+02  0.54367028514E+02  0.39999873102E+02 0.  0.
         12    1    3    3    0    0 -0.25533006222E+02 -0.13134532853E+02  0.23050674203E+02  0.36820971486E+02  0.00000000000E+00 0. -1.
         11    1    4    4    0    0  0.15671488917E+02  0.48722573697E+01 -0.23090580635E+02  0.28328596349E+02  0.51100000000E-03 0.  1.
        -11    1    4    4    0    0  0.16483281083E+02  0.98847930944E+01 -0.58718865447E-01  0.19220071226E+02  0.51100000000E-03 0. -1.
         12    1    4    4    0    0 -0.66217637784E+01 -0.16225176107E+01  0.98625297901E-01  0.68183609382E+01  0.00000000000E+00 0. -1.
</event>
<event>
 8    1  0.2516265E-006  0.9118800E+02  0.7816164E-02  0.1184000E+00
        -11   -1    0    0    0    0  0.00000000000E+00  0.00000000000E+00  0.45593999997E+02  0.45594000000E+02  0.51100000000E-03 0. -1.
         11   -1    0    0    0    0 -0.00000000000E+00 -0.00000000000E+00 -0.45593999997E+02  0.45594000000E+02  0.51100000000E-03 0.  1.
         23    2    1    2    0    0  0.00000000000E+00  0.00000000000E+00 -0.17763568394E-14  0.91188000000E+02  0.91188000000E+02 0.  0.
    9900012    2    3    3    0    0  0.26544141464E+02  0.22414098950E+02  0.12198190158E+02  0.54367093969E+02  0.40000022320E+02 0.  0.
        -12    1    3    3    0    0 -0.26544141464E+02 -0.22414098950E+02 -0.12198190158E+02  0.36820906031E+02  0.00000000000E+00 0.  1.
         11    1    4    4    0    0  0.11231105923E+02 -0.44257062967E+01  0.15455960334E+02  0.19611510054E+02  0.51100000000E-03 0.  1.
        -11    1    4    4    0    0  0.55686246927E+00  0.39950370061E+01  0.49147508184E+01  0.63580808706E+01  0.51100000000E-03 0. -1.
        -12    1    4    4    0    0  0.14756173072E+02  0.22844768241E+02 -0.81725209949E+01  0.28397503044E+02  0.00000000000E+00 0.  1.
</event>
<event>
 8    1  0.2516265E-006  0.9118800E+02  0.7816164E-02  0.1184000E+00
        -11   -1    0    0    0    0  0.00000000000E+00  0.00000000000E+00  0.45593999997E+02  0.45594000000E+02  0.51100000000E-03 0.  1.
         11   -1    0    0    0    0 -0.00000000000E+00 -0.00000000000E+00 -0.45593999997E+02  0.45594000000E+02  0.51100000000E-03 0. -1.
         23    2    1    2    0    0  0.00000000000E+00  0.00000000000E+00  0.00000000000E+00  0.91188000000E+02  0.91188000000E+02 0.  0.
    9900012    2    3    3    0    0  0.87515515815E+01 -0.31592544985E+02  0.16766060365E+02  0.54367091077E+02  0.40000015729E+02 0.  0.
        -12    1    3    3    0    0 -0.87515515815E+01  0.31592544985E+02 -0.16766060365E+02  0.36820908923E+02  0.00000000000E+00 0.  1.
         11    1    4    4    0    0  0.41014124759E+01 -0.20463486448E+02  0.96362097751E+01  0.22987657579E+02  0.51100000000E-03 0. -1.
        -11    1    4    4    0    0 -0.36811687352E+01 -0.17034038279E+02 -0.21772221615E+01  0.17562737826E+02  0.51100000000E-03 0.  1.
        -12    1    4    4    0    0  0.83313078408E+01  0.59049797415E+01  0.93070727519E+01  0.13816695672E+02  0.00000000000E+00 0.  1.
</event>
<event>
 8    1  0.2516265E-006  0.9118800E+02  0.7816164E-02  0.1184000E+00
        -11   -1    0    0    0    0  0.00000000000E+00  0.00000000000E+00  0.45593999997E+02  0.45594000000E+02  0.51100000000E-03 0.  1.
         11   -1    0    0    0    0 -0.00000000000E+00 -0.00000000000E+00 -0.45593999997E+02  0.45594000000E+02  0.51100000000E-03 0. -1.
         23    2    1    2    0    0 -0.22204460493E-15 -0.88817841970E-15  0.00000000000E+00  0.91188000000E+02  0.91188000000E+02 0.  0.
    9900012    2    3    3    0    0  0.18810733234E+01  0.49566845623E+01 -0.36437258059E+02  0.54367069355E+02  0.39999966209E+02 0.  0.
        -12    1    3    3    0    0 -0.18810733234E+01 -0.49566845623E+01  0.36437258059E+02  0.36820930645E+02  0.00000000000E+00 0.  1.
         11    1    4    4    0    0  0.31429049104E+00  0.68232074300E+01 -0.23237825326E+01  0.72149084308E+01  0.51100000000E-03 0. -1.
        -11    1    4    4    0    0 -0.44600256270E+00 -0.10426889687E+01  0.64406642739E+01  0.65397457994E+01  0.51100000000E-03 0.  1.
         12    1    4    4    0    0  0.20127853951E+01 -0.82383389900E+00 -0.40554139800E+02  0.40612415125E+02  0.00000000000E+00 0. -1.
</event>
<event>
 8    1  0.2516265E-006  0.9118800E+02  0.7816164E-02  0.1184000E+00
        -11   -1    0    0    0    0  0.00000000000E+00  0.00000000000E+00  0.45593999997E+02  0.45594000000E+02  0.51100000000E-03 0.  1.
         11   -1    0    0    0    0 -0.00000000000E+00 -0.00000000000E+00 -0.45593999997E+02  0.45594000000E+02  0.51100000000E-03 0. -1.
         23    2    1    2    0    0 -0.88817841970E-15  0.00000000000E+00 -0.17763568394E-14  0.91188000000E+02  0.91188000000E+02 0.  0.
    9900012    2    3    3    0    0  0.40321936482E+01  0.36422408665E+02 -0.35957118686E+01  0.54367087703E+02  0.40000008036E+02 0.  0.
        -12    1    3    3    0    0 -0.40321936482E+01 -0.36422408665E+02  0.35957118686E+01  0.36820912297E+02  0.00000000000E+00 0.  1.
         11    1    4    4    0    0  0.70808801521E+01  0.20672640051E+02  0.47421493640E+01  0.22360341930E+02  0.51100000000E-03 0. -1.
        -11    1    4    4    0    0  0.30553955454E+00  0.95198964787E+01  0.91092487968E+01  0.13179537066E+02  0.51100000000E-03 0.  1.
         12    1    4    4    0    0 -0.33542260584E+01  0.62298721357E+01 -0.17447110029E+02  0.18827208706E+02  0.00000000000E+00 0. -1.
</event>
<event>
 8    1  0.2516265E-006  0.9118800E+02  0.7816164E-02  0.1184000E+00
        -11   -1    0    0    0    0  0.00000000000E+00  0.00000000000E+00  0.45593999997E+02  0.45594000000E+02  0.51100000000E-03 0.  1.
         11   -1    0    0    0    0 -0.00000000000E+00 -0.00000000000E+00 -0.45593999997E+02  0.45594000000E+02  0.51100000000E-03 0. -1.
         23    2    1    2    0    0  0.35527136788E-14  0.00000000000E+00  0.00000000000E+00  0.91188000000E+02  0.91188000000E+02 0.  0.
    9900012    2    3    3    0    0 -0.27409881858E+02 -0.14757135098E+02 -0.19664823833E+02  0.54367082627E+02  0.39999996466E+02 0.  0.
        -12    1    3    3    0    0  0.27409881858E+02  0.14757135098E+02  0.19664823833E+02  0.36820917373E+02  0.00000000000E+00 0.  1.
         11    1    4    4    0    0 -0.14176986847E+02 -0.94538117931E+01 -0.14894124115E+02  0.22631757486E+02  0.51100000000E-03 0. -1.
        -11    1    4    4    0    0 -0.11404388770E+01 -0.10609052144E+02 -0.12499633157E+02  0.16434519085E+02  0.51100000000E-03 0.  1.
        -12    1    4    4    0    0 -0.12092456134E+02  0.53057288391E+01  0.77289334396E+01  0.15300806056E+02  0.00000000000E+00 0.  1.
</event>
<event>
 8    1  0.2516265E-006  0.9118800E+02  0.7816164E-02  0.1184000E+00
        -11   -1    0    0    0    0  0.00000000000E+00  0.00000000000E+00  0.45593999997E+02  0.45594000000E+02  0.51100000000E-03 0.  1.
         11   -1    0    0    0    0 -0.00000000000E+00 -0.00000000000E+00 -0.45593999997E+02  0.45594000000E+02  0.51100000000E-03 0. -1.
         23    2    1    2    0    0  0.35527136788E-14  0.35527136788E-14  0.00000000000E+00  0.91188000000E+02  0.91188000000E+02 0.  0.
    9900012    2    3    3    0    0  0.22941322511E+02  0.23706623512E+02 -0.16354540329E+02  0.54367091996E+02  0.40000017823E+02 0.  0.
        -12    1    3    3    0    0 -0.22941322511E+02 -0.23706623512E+02  0.16354540329E+02  0.36820908004E+02  0.00000000000E+00 0.  1.
         11    1    4    4    0    0  0.95927086815E+01 -0.52852461913E+01 -0.65448287470E+01  0.12758866358E+02  0.51100000000E-03 0. -1.
        -11    1    4    4    0    0  0.10568425305E+02  0.20859786212E+01 -0.97940635564E+01  0.14559072822E+02  0.51100000000E-03 0.  1.
         12    1    4    4    0    0  0.27801885238E+01  0.26905891083E+02 -0.15648025341E-01  0.27049152815E+02  0.00000000000E+00 0. -1.
</event>
<event>
 8    1  0.2516265E-006  0.9118800E+02  0.7816164E-02  0.1184000E+00
        -11   -1    0    0    0    0  0.00000000000E+00  0.00000000000E+00  0.45593999997E+02  0.45594000000E+02  0.51100000000E-03 0.  1.
         11   -1    0    0    0    0 -0.00000000000E+00 -0.00000000000E+00 -0.45593999997E+02  0.45594000000E+02  0.51100000000E-03 0. -1.
         23    2    1    2    0    0  0.00000000000E+00 -0.44408920985E-15  0.71054273576E-14  0.91188000000E+02  0.91188000000E+02 0.  0.
    9900012    2    3    3    0    0 -0.20515086483E+01  0.33369298729E+01 -0.36611954246E+02  0.54367095850E+02  0.40000026609E+02 0.  0.
        -12    1    3    3    0    0  0.20515086483E+01 -0.33369298729E+01  0.36611954246E+02  0.36820904150E+02  0.00000000000E+00 0.  1.
         11    1    4    4    0    0 -0.73880409717E+01 -0.38025066456E+01 -0.41243894555E+02  0.42072568789E+02  0.51100000000E-03 0. -1.
        -11    1    4    4    0    0 -0.82914410660E+00  0.44114586537E+01  0.86474945117E+00  0.45712404528E+01  0.51100000000E-03 0.  1.
         12    1    4    4    0    0  0.61656764300E+01  0.27279778648E+01  0.37671908574E+01  0.77232866078E+01  0.00000000000E+00 0. -1.
</event>
<event>
 8    1  0.2516265E-006  0.9118800E+02  0.7816164E-02  0.1184000E+00
        -11   -1    0    0    0    0  0.00000000000E+00  0.00000000000E+00  0.45593999997E+02  0.45594000000E+02  0.51100000000E-03 0.  1.
         11   -1    0    0    0    0 -0.00000000000E+00 -0.00000000000E+00 -0.45593999997E+02  0.45594000000E+02  0.51100000000E-03 0. -1.
         23    2    1    2    0    0  0.35527136788E-14  0.00000000000E+00  0.00000000000E+00  0.91188000000E+02  0.91188000000E+02 0.  0.
    9900012    2    3    3    0    0  0.13659037150E+02 -0.16626010353E+02 -0.29879563406E+02  0.54367057244E+02  0.39999938600E+02 0.  0.
        -12    1    3    3    0    0 -0.13659037150E+02  0.16626010353E+02  0.29879563406E+02  0.36820942756E+02  0.00000000000E+00 0.  1.
         11    1    4    4    0    0 -0.41360014033E+01  0.36567042092E+01 -0.10194082179E+02  0.11592985164E+02  0.51100000000E-03 0. -1.
        -11    1    4    4    0    0  0.17842842882E+02 -0.11432766907E+02 -0.76351160988E-03  0.21191394529E+02  0.51100000000E-03 0.  1.
         12    1    4    4    0    0 -0.47804328903E-01 -0.88499476557E+01 -0.19684717714E+02  0.21582677551E+02  0.00000000000E+00 0. -1.
</event>
<event>
 8    1  0.2516265E-006  0.9118800E+02  0.7816164E-02  0.1184000E+00
        -11   -1    0    0    0    0  0.00000000000E+00  0.00000000000E+00  0.45593999997E+02  0.45594000000E+02  0.51100000000E-03 0.  1.
         11   -1    0    0    0    0 -0.00000000000E+00 -0.00000000000E+00 -0.45593999997E+02  0.45594000000E+02  0.51100000000E-03 0. -1.
         23    2    1    2    0    0 -0.71054273576E-14 -0.88817841970E-15  0.00000000000E+00  0.91188000000E+02  0.91188000000E+02 0.  0.
    9900012    2    3    3    0    0  0.35531260235E+02  0.77593899838E+01 -0.57534114237E+01  0.54367077553E+02  0.39999984897E+02 0.  0.
         12    1    3    3    0    0 -0.35531260235E+02 -0.77593899838E+01  0.57534114237E+01  0.36820922447E+02  0.00000000000E+00 0. -1.
         11    1    4    4    0    0 -0.61155926703E+00  0.22342945992E+01  0.21210525776E+01  0.31408504248E+01  0.51100000000E-03 0. -1.
        -11    1    4    4    0    0  0.44267410469E+01 -0.13056586811E+02 -0.33720171279E+01  0.14192991060E+02  0.51100000000E-03 0.  1.
         12    1    4    4    0    0  0.31716078456E+02  0.18581682196E+02 -0.45024468734E+01  0.37033236068E+02  0.00000000000E+00 0. -1.
</event>
<event>
 8    1  0.2516265E-006  0.9118800E+02  0.7816164E-02  0.1184000E+00
        -11   -1    0    0    0    0  0.00000000000E+00  0.00000000000E+00  0.45593999997E+02  0.45594000000E+02  0.51100000000E-03 0.  1.
         11   -1    0    0    0    0 -0.00000000000E+00 -0.00000000000E+00 -0.45593999997E+02  0.45594000000E+02  0.51100000000E-03 0. -1.
         23    2    1    2    0    0  0.00000000000E+00  0.00000000000E+00  0.00000000000E+00  0.91188000000E+02  0.91188000000E+02 0.  0.
    9900012    2    3    3    0    0  0.33513284374E+02 -0.14179161073E+02  0.56205922547E+01  0.54367083451E+02  0.39999998343E+02 0.  0.
        -12    1    3    3    0    0 -0.33513284374E+02  0.14179161073E+02 -0.56205922547E+01  0.36820916549E+02  0.00000000000E+00 0.  1.
         11    1    4    4    0    0  0.31142694679E+02 -0.20896224113E+02  0.68890649216E+01  0.38131074334E+02  0.51100000000E-03 0. -1.
        -11    1    4    4    0    0 -0.20804039216E+01 -0.32995235498E+01  0.25141565867E+01  0.46406809561E+01  0.51100000000E-03 0.  1.
        -12    1    4    4    0    0  0.44509936159E+01  0.10016586590E+02 -0.37826292537E+01  0.11595328161E+02  0.00000000000E+00 0.  1.
</event>
<event>
 8    1  0.2516265E-006  0.9118800E+02  0.7816164E-02  0.1184000E+00
        -11   -1    0    0    0    0  0.00000000000E+00  0.00000000000E+00  0.45593999997E+02  0.45594000000E+02  0.51100000000E-03 0.  1.
         11   -1    0    0    0    0 -0.00000000000E+00 -0.00000000000E+00 -0.45593999997E+02  0.45594000000E+02  0.51100000000E-03 0. -1.
         23    2    1    2    0    0  0.00000000000E+00  0.00000000000E+00  0.00000000000E+00  0.91188000000E+02  0.91188000000E+02 0.  0.
    9900012    2    3    3    0    0  0.28534302944E+02  0.17530763368E+02  0.15305073688E+02  0.54367090324E+02  0.40000014012E+02 0.  0.
         12    1    3    3    0    0 -0.28534302944E+02 -0.17530763368E+02 -0.15305073688E+02  0.36820909676E+02  0.00000000000E+00 0. -1.
         11    1    4    4    0    0 -0.63976596223E+01  0.12789754503E+02  0.11895215458E+02  0.18601183294E+02  0.51100000000E-03 0. -1.
        -11    1    4    4    0    0  0.15996434454E+02  0.37569566747E+01 -0.35101660701E+00  0.16435444978E+02  0.51100000000E-03 0.  1.
         12    1    4    4    0    0  0.18935528113E+02  0.98405219058E+00  0.37608748367E+01  0.19330462052E+02  0.00000000000E+00 0. -1.
</event>
<event>
 8    1  0.2516265E-006  0.9118800E+02  0.7816164E-02  0.1184000E+00
        -11   -1    0    0    0    0  0.00000000000E+00  0.00000000000E+00  0.45593999997E+02  0.45594000000E+02  0.51100000000E-03 0. -1.
         11   -1    0    0    0    0 -0.00000000000E+00 -0.00000000000E+00 -0.45593999997E+02  0.45594000000E+02  0.51100000000E-03 0.  1.
         23    2    1    2    0    0  0.00000000000E+00  0.00000000000E+00  0.00000000000E+00  0.91188000000E+02  0.91188000000E+02 0.  0.
    9900012    2    3    3    0    0  0.17691894248E+02  0.62273147470E+01 -0.31685916877E+02  0.54367083399E+02  0.39999998224E+02 0.  0.
         12    1    3    3    0    0 -0.17691894248E+02 -0.62273147470E+01  0.31685916877E+02  0.36820916601E+02  0.00000000000E+00 0. -1.
         11    1    4    4    0    0  0.16505965325E+02  0.80756020137E+01 -0.37044771003E+01  0.18745276473E+02  0.51100000000E-03 0. -1.
        -11    1    4    4    0    0  0.11260716483E+02 -0.32774070524E+01 -0.16973868600E+02  0.20631465004E+02  0.51100000000E-03 0.  1.
        -12    1    4    4    0    0 -0.10074787560E+02  0.14291197857E+01 -0.11007571177E+02  0.14990341922E+02  0.00000000000E+00 0.  1.
</event>
<event>
 8    1  0.2516265E-006  0.9118800E+02  0.7816164E-02  0.1184000E+00
        -11   -1    0    0    0    0  0.00000000000E+00  0.00000000000E+00  0.45593999997E+02  0.45594000000E+02  0.51100000000E-03 0. -1.
         11   -1    0    0    0    0 -0.00000000000E+00 -0.00000000000E+00 -0.45593999997E+02  0.45594000000E+02  0.51100000000E-03 0.  1.
         23    2    1    2    0    0  0.00000000000E+00 -0.44408920985E-15 -0.17763568394E-14  0.91188000000E+02  0.91188000000E+02 0.  0.
    9900012    2    3    3    0    0  0.33820891795E+02  0.25752273637E+01 -0.14328134219E+02  0.54367082738E+02  0.39999996718E+02 0.  0.
         12    1    3    3    0    0 -0.33820891795E+02 -0.25752273637E+01  0.14328134219E+02  0.36820917262E+02  0.00000000000E+00 0. -1.
         11    1    4    4    0    0  0.17646740981E+02 -0.23811192296E+01 -0.18966965540E+02  0.26015821688E+02  0.51100000000E-03 0. -1.
        -11    1    4    4    0    0  0.14333145478E+02 -0.41484416235E+01 -0.42288167106E+01  0.15509078575E+02  0.51100000000E-03 0.  1.
         12    1    4    4    0    0  0.18410053361E+01  0.91047882168E+01  0.88676480314E+01  0.12842182475E+02  0.00000000000E+00 0. -1.
</event>
<event>
 8    1  0.2516265E-006  0.9118800E+02  0.7816164E-02  0.1184000E+00
        -11   -1    0    0    0    0  0.00000000000E+00  0.00000000000E+00  0.45593999997E+02  0.45594000000E+02  0.51100000000E-03 0. -1.
         11   -1    0    0    0    0 -0.00000000000E+00 -0.00000000000E+00 -0.45593999997E+02  0.45594000000E+02  0.51100000000E-03 0.  1.
         23    2    1    2    0    0  0.00000000000E+00  0.17763568394E-14  0.00000000000E+00  0.91188000000E+02  0.91188000000E+02 0.  0.
    9900012    2    3    3    0    0  0.22422523302E+02 -0.89083732014E+01  0.27814583354E+02  0.54367085950E+02  0.40000004040E+02 0.  0.
        -12    1    3    3    0    0 -0.22422523302E+02  0.89083732014E+01 -0.27814583354E+02  0.36820914050E+02  0.00000000000E+00 0.  1.
         11    1    4    4    0    0 -0.34702079701E+01  0.34283035218E+01  0.10904578032E+02  0.11945937833E+02  0.51100000000E-03 0. -1.
        -11    1    4    4    0    0  0.16302815560E+02 -0.17401315907E+02  0.19240009397E+01  0.23922570313E+02  0.51100000000E-03 0.  1.
        -12    1    4    4    0    0  0.95899157124E+01  0.50646391841E+01  0.14986004382E+02  0.18498577804E+02  0.00000000000E+00 0.  1.
</event>
<event>
 8    1  0.2516265E-006  0.9118800E+02  0.7816164E-02  0.1184000E+00
        -11   -1    0    0    0    0  0.00000000000E+00  0.00000000000E+00  0.45593999997E+02  0.45594000000E+02  0.51100000000E-03 0. -1.
         11   -1    0    0    0    0 -0.00000000000E+00 -0.00000000000E+00 -0.45593999997E+02  0.45594000000E+02  0.51100000000E-03 0.  1.
         23    2    1    2    0    0 -0.35527136788E-14 -0.35527136788E-14  0.17763568394E-14  0.91188000000E+02  0.91188000000E+02 0.  0.
    9900012    2    3    3    0    0  0.28887394969E+02  0.18380561891E+02 -0.13544513983E+02  0.54367075208E+02  0.39999979551E+02 0.  0.
         12    1    3    3    0    0 -0.28887394969E+02 -0.18380561891E+02  0.13544513983E+02  0.36820924792E+02  0.00000000000E+00 0. -1.
         11    1    4    4    0    0  0.88800703295E+01  0.10897623865E+02 -0.18907684351E+02  0.23560865492E+02  0.51100000000E-03 0. -1.
        -11    1    4    4    0    0  0.91833009085E+01  0.70943435095E+01 -0.76319985835E+01  0.13889209050E+02  0.51100000000E-03 0.  1.
         12    1    4    4    0    0  0.10824023731E+02  0.38859451629E+00  0.12995168952E+02  0.16917000665E+02  0.00000000000E+00 0. -1.
</event>
<event>
 8    1  0.2516265E-006  0.9118800E+02  0.7816164E-02  0.1184000E+00
        -11   -1    0    0    0    0  0.00000000000E+00  0.00000000000E+00  0.45593999997E+02  0.45594000000E+02  0.51100000000E-03 0. -1.
         11   -1    0    0    0    0 -0.00000000000E+00 -0.00000000000E+00 -0.45593999997E+02  0.45594000000E+02  0.51100000000E-03 0.  1.
         23    2    1    2    0    0 -0.35527136788E-14  0.00000000000E+00  0.00000000000E+00  0.91188000000E+02  0.91188000000E+02 0.  0.
    9900012    2    3    3    0    0 -0.17529926310E+02 -0.32059167005E+02  0.45487906633E+01  0.54367082005E+02  0.39999995047E+02 0.  0.
         12    1    3    3    0    0  0.17529926310E+02  0.32059167005E+02 -0.45487906633E+01  0.36820917995E+02  0.00000000000E+00 0. -1.
         11    1    4    4    0    0  0.41747822017E+01  0.69799425563E-01 -0.83529938226E+01  0.93384251591E+01  0.51100000000E-03 0. -1.
        -11    1    4    4    0    0 -0.15798065324E+02 -0.28097955912E+02  0.24007275286E+01  0.32323946036E+02  0.51100000000E-03 0.  1.
         12    1    4    4    0    0 -0.59066431879E+01 -0.40310105188E+01  0.10501056957E+02  0.12704710810E+02  0.00000000000E+00 0. -1.
</event>
<event>
 8    1  0.2516265E-006  0.9118800E+02  0.7816164E-02  0.1184000E+00
        -11   -1    0    0    0    0  0.00000000000E+00  0.00000000000E+00  0.45593999997E+02  0.45594000000E+02  0.51100000000E-03 0. -1.
         11   -1    0    0    0    0 -0.00000000000E+00 -0.00000000000E+00 -0.45593999997E+02  0.45594000000E+02  0.51100000000E-03 0.  1.
         23    2    1    2    0    0  0.00000000000E+00 -0.35527136788E-14 -0.44408920985E-15  0.91188000000E+02  0.91188000000E+02 0.  0.
    9900012    2    3    3    0    0 -0.21470772740E+02 -0.29827524058E+02  0.22591777815E+01  0.54367093470E+02  0.40000021183E+02 0.  0.
         12    1    3    3    0    0  0.21470772740E+02  0.29827524058E+02 -0.22591777815E+01  0.36820906530E+02  0.00000000000E+00 0. -1.
         11    1    4    4    0    0 -0.83638510819E+01 -0.81599418778E+00 -0.14423285506E+02  0.16692843272E+02  0.51100000000E-03 0. -1.
        -11    1    4    4    0    0 -0.65723747449E+01 -0.21588122346E+02  0.65098877904E+01  0.23486629718E+02  0.51100000000E-03 0.  1.
        -12    1    4    4    0    0 -0.65345469128E+01 -0.74234075245E+01  0.10172575498E+02  0.14187620480E+02  0.00000000000E+00 0.  1.
</event>
<event>
 8    1  0.2516265E-006  0.9118800E+02  0.7816164E-02  0.1184000E+00
        -11   -1    0    0    0    0  0.00000000000E+00  0.00000000000E+00  0.45593999997E+02  0.45594000000E+02  0.51100000000E-03 0. -1.
         11   -1    0    0    0    0 -0.00000000000E+00 -0.00000000000E+00 -0.45593999997E+02  0.45594000000E+02  0.51100000000E-03 0.  1.
         23    2    1    2    0    0 -0.71054273576E-14  0.00000000000E+00  0.00000000000E+00  0.91188000000E+02  0.91188000000E+02 0.  0.
    9900012    2    3    3    0    0 -0.34056107121E+02  0.11910945619E+02  0.73546789424E+01  0.54367077142E+02  0.39999983961E+02 0.  0.
         12    1    3    3    0    0  0.34056107121E+02 -0.11910945619E+02 -0.73546789424E+01  0.36820922858E+02  0.00000000000E+00 0. -1.
         11    1    4    4    0    0 -0.16228636173E+01  0.14742289454E+02 -0.26228021596E+00  0.14833663602E+02  0.51100000000E-03 0.  1.
        -11    1    4    4    0    0 -0.47705617433E+01 -0.89607194759E-01  0.10552045000E+02  0.11580671084E+02  0.51100000000E-03 0. -1.
        -12    1    4    4    0    0 -0.27662681760E+02 -0.27417366404E+01 -0.29350858420E+01  0.27952742457E+02  0.00000000000E+00 0.  1.
</event>
<event>
 8    1  0.2516265E-006  0.9118800E+02  0.7816164E-02  0.1184000E+00
        -11   -1    0    0    0    0  0.00000000000E+00  0.00000000000E+00  0.45593999997E+02  0.45594000000E+02  0.51100000000E-03 0.  1.
         11   -1    0    0    0    0 -0.00000000000E+00 -0.00000000000E+00 -0.45593999997E+02  0.45594000000E+02  0.51100000000E-03 0. -1.
         23    2    1    2    0    0  0.17763568394E-14 -0.22204460493E-15  0.71054273576E-14  0.91188000000E+02  0.91188000000E+02 0.  0.
    9900012    2    3    3    0    0  0.63115495910E+01  0.16281420976E+01  0.36239377662E+02  0.54367095635E+02  0.40000026118E+02 0.  0.
         12    1    3    3    0    0 -0.63115495910E+01 -0.16281420976E+01 -0.36239377662E+02  0.36820904365E+02  0.00000000000E+00 0. -1.
         11    1    4    4    0    0  0.39873181211E+01 -0.26166930717E+01  0.25923314555E+02  0.26358376775E+02  0.51100000000E-03 0. -1.
        -11    1    4    4    0    0 -0.80189701416E+01  0.18330889854E+01  0.14437493942E+02  0.16616417452E+02  0.51100000000E-03 0.  1.
         12    1    4    4    0    0  0.10343201612E+02  0.24117461839E+01 -0.41214308348E+01  0.11392301407E+02  0.00000000000E+00 0. -1.
</event>
<event>
 8    1  0.2516265E-006  0.9118800E+02  0.7816164E-02  0.1184000E+00
        -11   -1    0    0    0    0  0.00000000000E+00  0.00000000000E+00  0.45593999997E+02  0.45594000000E+02  0.51100000000E-03 0. -1.
         11   -1    0    0    0    0 -0.00000000000E+00 -0.00000000000E+00 -0.45593999997E+02  0.45594000000E+02  0.51100000000E-03 0.  1.
         23    2    1    2    0    0 -0.71054273576E-14 -0.88817841970E-15 -0.35527136788E-14  0.91188000000E+02  0.91188000000E+02 0.  0.
    9900012    2    3    3    0    0 -0.27153447268E+02 -0.48352005258E+01 -0.24394552238E+02  0.54367040730E+02  0.39999900951E+02 0.  0.
         12    1    3    3    0    0  0.27153447268E+02  0.48352005258E+01  0.24394552238E+02  0.36820959270E+02  0.00000000000E+00 0. -1.
         11    1    4    4    0    0 -0.80448186307E+01 -0.14111990536E+01 -0.19281235073E+01  0.83921540792E+01  0.51100000000E-03 0. -1.
        -11    1    4    4    0    0 -0.49455152063E+01 -0.18389503250E+02 -0.14284410603E+02  0.23804964545E+02  0.51100000000E-03 0.  1.
         12    1    4    4    0    0 -0.14163113431E+02  0.14965501778E+02 -0.81820181275E+01  0.22169922106E+02  0.00000000000E+00 0. -1.
</event>
<event>
 8    1  0.2516265E-006  0.9118800E+02  0.7816164E-02  0.1184000E+00
        -11   -1    0    0    0    0  0.00000000000E+00  0.00000000000E+00  0.45593999997E+02  0.45594000000E+02  0.51100000000E-03 0. -1.
         11   -1    0    0    0    0 -0.00000000000E+00 -0.00000000000E+00 -0.45593999997E+02  0.45594000000E+02  0.51100000000E-03 0.  1.
         23    2    1    2    0    0  0.00000000000E+00  0.35527136788E-14  0.00000000000E+00  0.91188000000E+02  0.91188000000E+02 0.  0.
    9900012    2    3    3    0    0  0.32681334711E+02 -0.16071435366E+02  0.54239761639E+01  0.54367079443E+02  0.39999989206E+02 0.  0.
        -12    1    3    3    0    0 -0.32681334711E+02  0.16071435366E+02 -0.54239761639E+01  0.36820920557E+02  0.00000000000E+00 0.  1.
         11    1    4    4    0    0 -0.58705261733E+01 -0.50479267896E+01  0.93414181749E+01  0.12132878315E+02  0.51100000000E-03 0. -1.
        -11    1    4    4    0    0  0.12589365924E+02  0.11209384505E+01 -0.48977440853E+01  0.13554945030E+02  0.51100000000E-03 0.  1.
         12    1    4    4    0    0  0.25962494960E+02 -0.12144447027E+02  0.98030207431E+00  0.28679256098E+02  0.00000000000E+00 0. -1.
</event>
<event>
 8    1  0.2516265E-006  0.9118800E+02  0.7816164E-02  0.1184000E+00
        -11   -1    0    0    0    0  0.00000000000E+00  0.00000000000E+00  0.45593999997E+02  0.45594000000E+02  0.51100000000E-03 0. -1.
         11   -1    0    0    0    0 -0.00000000000E+00 -0.00000000000E+00 -0.45593999997E+02  0.45594000000E+02  0.51100000000E-03 0.  1.
         23    2    1    2    0    0  0.00000000000E+00  0.00000000000E+00  0.00000000000E+00  0.91188000000E+02  0.91188000000E+02 0.  0.
    9900012    2    3    3    0    0  0.31059845961E+02 -0.11999374370E+02  0.15718778088E+02  0.54367095598E+02  0.40000026034E+02 0.  0.
        -12    1    3    3    0    0 -0.31059845961E+02  0.11999374370E+02 -0.15718778088E+02  0.36820904402E+02  0.00000000000E+00 0.  1.
         11    1    4    4    0    0 -0.22835683801E+01 -0.55448777362E+01 -0.11887659714E+01  0.61133884591E+01  0.51100000000E-03 0. -1.
        -11    1    4    4    0    0  0.52940750030E+01 -0.69774713463E+01  0.18170317193E+02  0.20171087320E+02  0.51100000000E-03 0.  1.
         12    1    4    4    0    0  0.28049339339E+02  0.52297471230E+00 -0.12627731337E+01  0.28082619818E+02  0.00000000000E+00 0. -1.
</event>
<event>
 8    1  0.2516265E-006  0.9118800E+02  0.7816164E-02  0.1184000E+00
        -11   -1    0    0    0    0  0.00000000000E+00  0.00000000000E+00  0.45593999997E+02  0.45594000000E+02  0.51100000000E-03 0.  1.
         11   -1    0    0    0    0 -0.00000000000E+00 -0.00000000000E+00 -0.45593999997E+02  0.45594000000E+02  0.51100000000E-03 0. -1.
         23    2    1    2    0    0 -0.35527136788E-14  0.00000000000E+00  0.00000000000E+00  0.91188000000E+02  0.91188000000E+02 0.  0.
    9900012    2    3    3    0    0 -0.30252869954E+02 -0.10846622882E+02 -0.17969285008E+02  0.54367074263E+02  0.39999977398E+02 0.  0.
        -12    1    3    3    0    0  0.30252869954E+02  0.10846622882E+02  0.17969285008E+02  0.36820925737E+02  0.00000000000E+00 0.  1.
         11    1    4    4    0    0 -0.70050229888E+01 -0.65314114096E+01  0.26391015544E+01  0.99345125371E+01  0.51100000000E-03 0. -1.
        -11    1    4    4    0    0  0.76922660865E+01  0.13966779338E+01 -0.52828942915E+01  0.94356048642E+01  0.51100000000E-03 0.  1.
         12    1    4    4    0    0 -0.30940113052E+02 -0.57118894066E+01 -0.15325492271E+02  0.34996956862E+02  0.00000000000E+00 0. -1.
</event>
<event>
 8    1  0.2516265E-006  0.9118800E+02  0.7816164E-02  0.1184000E+00
        -11   -1    0    0    0    0  0.00000000000E+00  0.00000000000E+00  0.45593999997E+02  0.45594000000E+02  0.51100000000E-03 0.  1.
         11   -1    0    0    0    0 -0.00000000000E+00 -0.00000000000E+00 -0.45593999997E+02  0.45594000000E+02  0.51100000000E-03 0. -1.
         23    2    1    2    0    0  0.13322676296E-14  0.00000000000E+00  0.00000000000E+00  0.91188000000E+02  0.91188000000E+02 0.  0.
    9900012    2    3    3    0    0 -0.15839543337E+01  0.19689779235E+02 -0.31073882966E+02  0.54367047809E+02  0.39999917090E+02 0.  0.
        -12    1    3    3    0    0  0.15839543337E+01 -0.19689779235E+02  0.31073882966E+02  0.36820952191E+02  0.00000000000E+00 0.  1.
         11    1    4    4    0    0 -0.72486606025E+01  0.66062813333E+01 -0.31159661118E+02  0.32666657540E+02  0.51100000000E-03 0. -1.
        -11    1    4    4    0    0 -0.36214970354E+01  0.94600194277E+01  0.41353178915E+01  0.10941117981E+02  0.51100000000E-03 0.  1.
        -12    1    4    4    0    0  0.92862033043E+01  0.36234784736E+01 -0.40495397398E+01  0.10759272288E+02  0.00000000000E+00 0.  1.
</event>
<event>
 8    1  0.2516265E-006  0.9118800E+02  0.7816164E-02  0.1184000E+00
        -11   -1    0    0    0    0  0.00000000000E+00  0.00000000000E+00  0.45593999997E+02  0.45594000000E+02  0.51100000000E-03 0. -1.
         11   -1    0    0    0    0 -0.00000000000E+00 -0.00000000000E+00 -0.45593999997E+02  0.45594000000E+02  0.51100000000E-03 0.  1.
         23    2    1    2    0    0  0.17763568394E-14  0.00000000000E+00 -0.35527136788E-14  0.91188000000E+02  0.91188000000E+02 0.  0.
    9900012    2    3    3    0    0 -0.13595666859E+02  0.26794953003E+02  0.21283025224E+02  0.54367097968E+02  0.40000031437E+02 0.  0.
        -12    1    3    3    0    0  0.13595666859E+02 -0.26794953003E+02 -0.21283025224E+02  0.36820902032E+02  0.00000000000E+00 0.  1.
         11    1    4    4    0    0 -0.46815329422E+01  0.41858722090E+00  0.78046582658E+01  0.91106891538E+01  0.51100000000E-03 0. -1.
        -11    1    4    4    0    0 -0.15443664794E+02  0.30668407832E+02  0.68591801367E+01  0.35015801771E+02  0.51100000000E-03 0.  1.
        -12    1    4    4    0    0  0.65295308775E+01 -0.42920420501E+01  0.66191868216E+01  0.10240607043E+02  0.00000000000E+00 0.  1.
</event>
<event>
 8    1  0.2516265E-006  0.9118800E+02  0.7816164E-02  0.1184000E+00
        -11   -1    0    0    0    0  0.00000000000E+00  0.00000000000E+00  0.45593999997E+02  0.45594000000E+02  0.51100000000E-03 0. -1.
         11   -1    0    0    0    0 -0.00000000000E+00 -0.00000000000E+00 -0.45593999997E+02  0.45594000000E+02  0.51100000000E-03 0.  1.
         23    2    1    2    0    0 -0.35527136788E-14 -0.35527136788E-14  0.00000000000E+00  0.91188000000E+02  0.91188000000E+02 0.  0.
    9900012    2    3    3    0    0  0.25087919737E+02  0.16245341211E+02 -0.21504976204E+02  0.54367097929E+02  0.40000031348E+02 0.  0.
         12    1    3    3    0    0 -0.25087919737E+02 -0.16245341211E+02  0.21504976204E+02  0.36820902071E+02  0.00000000000E+00 0. -1.
         11    1    4    4    0    0  0.22424071387E+02  0.99973239964E+01 -0.17266298465E+02  0.30015171624E+02  0.51100000000E-03 0. -1.
        -11    1    4    4    0    0  0.40716411121E+01  0.13469782382E+02 -0.78956712674E+01  0.16135517463E+02  0.51100000000E-03 0.  1.
         12    1    4    4    0    0 -0.14077927620E+01 -0.72217651672E+01  0.36569935289E+01  0.82164088421E+01  0.00000000000E+00 0. -1.
</event>
<event>
 8    1  0.2516265E-006  0.9118800E+02  0.7816164E-02  0.1184000E+00
        -11   -1    0    0    0    0  0.00000000000E+00  0.00000000000E+00  0.45593999997E+02  0.45594000000E+02  0.51100000000E-03 0. -1.
         11   -1    0    0    0    0 -0.00000000000E+00 -0.00000000000E+00 -0.45593999997E+02  0.45594000000E+02  0.51100000000E-03 0.  1.
         23    2    1    2    0    0  0.35527136788E-14  0.17763568394E-14  0.00000000000E+00  0.91188000000E+02  0.91188000000E+02 0.  0.
    9900012    2    3    3    0    0 -0.26341698227E+02 -0.15819143245E+02  0.20289141962E+02  0.54367086920E+02  0.40000006252E+02 0.  0.
        -12    1    3    3    0    0  0.26341698227E+02  0.15819143245E+02 -0.20289141962E+02  0.36820913080E+02  0.00000000000E+00 0.  1.
         11    1    4    4    0    0 -0.29401894854E+02 -0.14047419973E+02  0.60104981542E+01  0.33134989320E+02  0.51100000000E-03 0. -1.
        -11    1    4    4    0    0  0.17450457809E+01  0.64454372480E+01  0.32787578532E+01  0.74390254346E+01  0.51100000000E-03 0.  1.
        -12    1    4    4    0    0  0.13151508463E+01 -0.82171605191E+01  0.10999885955E+02  0.13793072166E+02  0.00000000000E+00 0.  1.
</event>
<event>
 8    1  0.2516265E-006  0.9118800E+02  0.7816164E-02  0.1184000E+00
        -11   -1    0    0    0    0  0.00000000000E+00  0.00000000000E+00  0.45593999997E+02  0.45594000000E+02  0.51100000000E-03 0.  1.
         11   -1    0    0    0    0 -0.00000000000E+00 -0.00000000000E+00 -0.45593999997E+02  0.45594000000E+02  0.51100000000E-03 0. -1.
         23    2    1    2    0    0 -0.35527136788E-14 -0.17763568394E-14  0.00000000000E+00  0.91188000000E+02  0.91188000000E+02 0.  0.
    9900012    2    3    3    0    0 -0.22721939687E+02 -0.15348838945E+02  0.24574492836E+02  0.54367094277E+02  0.40000023024E+02 0.  0.
         12    1    3    3    0    0  0.22721939687E+02  0.15348838945E+02 -0.24574492836E+02  0.36820905723E+02  0.00000000000E+00 0. -1.
         11    1    4    4    0    0 -0.71179501957E+01  0.56770860146E+01  0.33313451560E+00  0.91107353968E+01  0.51100000000E-03 0. -1.
        -11    1    4    4    0    0 -0.35455006455E+00 -0.21527936228E+02  0.20080376586E+02  0.29441454924E+02  0.51100000000E-03 0.  1.
         12    1    4    4    0    0 -0.15249439427E+02  0.50201126884E+00  0.41609817351E+01  0.15814903956E+02  0.00000000000E+00 0. -1.
</event>
<event>
 8    1  0.2516265E-006  0.9118800E+02  0.7816164E-02  0.1184000E+00
        -11   -1    0    0    0    0  0.00000000000E+00  0.00000000000E+00  0.45593999997E+02  0.45594000000E+02  0.51100000000E-03 0.  1.
         11   -1    0    0    0    0 -0.00000000000E+00 -0.00000000000E+00 -0.45593999997E+02  0.45594000000E+02  0.51100000000E-03 0. -1.
         23    2    1    2    0    0 -0.35527136788E-14 -0.35527136788E-14  0.00000000000E+00  0.91188000000E+02  0.91188000000E+02 0.  0.
    9900012    2    3    3    0    0  0.24437453941E+02 -0.24893602512E+02  0.11785477346E+02  0.54367108140E+02  0.40000054626E+02 0.  0.
         12    1    3    3    0    0 -0.24437453941E+02  0.24893602512E+02 -0.11785477346E+02  0.36820891860E+02  0.00000000000E+00 0. -1.
         11    1    4    4    0    0  0.18249471805E+02 -0.83077218957E+00  0.24962339240E+01  0.18438128637E+02  0.51100000000E-03 0. -1.
        -11    1    4    4    0    0 -0.29222655618E-01  0.33593271011E+01 -0.36637442431E+01  0.49708102635E+01  0.51100000000E-03 0.  1.
        -12    1    4    4    0    0  0.62172047921E+01 -0.27422157423E+02  0.12952987665E+02  0.30958169239E+02  0.00000000000E+00 0.  1.
</event>
<event>
 8    1  0.2516265E-006  0.9118800E+02  0.7816164E-02  0.1184000E+00
        -11   -1    0    0    0    0  0.00000000000E+00  0.00000000000E+00  0.45593999997E+02  0.45594000000E+02  0.51100000000E-03 0.  1.
         11   -1    0    0    0    0 -0.00000000000E+00 -0.00000000000E+00 -0.45593999997E+02  0.45594000000E+02  0.51100000000E-03 0. -1.
         23    2    1    2    0    0  0.00000000000E+00 -0.44408920985E-15 -0.35527136788E-14  0.91188000000E+02  0.91188000000E+02 0.  0.
    9900012    2    3    3    0    0 -0.25796856306E+02  0.21005205152E+01  0.26189355028E+02  0.54367186613E+02  0.40000233521E+02 0.  0.
         12    1    3    3    0    0  0.25796856306E+02 -0.21005205152E+01 -0.26189355028E+02  0.36820813387E+02  0.00000000000E+00 0. -1.
         11    1    4    4    0    0 -0.14716510177E+02 -0.16920071005E+01  0.18568362578E+02  0.23753371317E+02  0.51100000000E-03 0. -1.
        -11    1    4    4    0    0 -0.90023727201E+01  0.94900627821E+00  0.17730921284E+02  0.19908010883E+02  0.51100000000E-03 0.  1.
         12    1    4    4    0    0 -0.20779734089E+01  0.28435213375E+01 -0.10109928834E+02  0.10705804412E+02  0.00000000000E+00 0. -1.
</event>
<event>
 8    1  0.2516265E-006  0.9118800E+02  0.7816164E-02  0.1184000E+00
        -11   -1    0    0    0    0  0.00000000000E+00  0.00000000000E+00  0.45593999997E+02  0.45594000000E+02  0.51100000000E-03 0. -1.
         11   -1    0    0    0    0 -0.00000000000E+00 -0.00000000000E+00 -0.45593999997E+02  0.45594000000E+02  0.51100000000E-03 0.  1.
         23    2    1    2    0    0  0.00000000000E+00  0.00000000000E+00  0.10269562978E-14  0.91188000000E+02  0.91188000000E+02 0.  0.
    9900012    2    3    3    0    0  0.88158095220E+01  0.35749583802E+02  0.16821670089E+00  0.54367088327E+02  0.40000009459E+02 0.  0.
         12    1    3    3    0    0 -0.88158095220E+01 -0.35749583802E+02 -0.16821670089E+00  0.36820911673E+02  0.00000000000E+00 0. -1.
         11    1    4    4    0    0  0.14594241971E+02  0.96535923397E+01  0.14230707889E+02  0.22554307594E+02  0.51100000000E-03 0. -1.
        -11    1    4    4    0    0  0.20811376245E+01  0.12996523161E+02 -0.52024331378E+01  0.14152952303E+02  0.51100000000E-03 0.  1.
        -12    1    4    4    0    0 -0.78595700731E+01  0.13099468302E+02 -0.88600580502E+01  0.17659828430E+02  0.00000000000E+00 0.  1.
</event>
<event>
 8    1  0.2516265E-006  0.9118800E+02  0.7816164E-02  0.1184000E+00
        -11   -1    0    0    0    0  0.00000000000E+00  0.00000000000E+00  0.45593999997E+02  0.45594000000E+02  0.51100000000E-03 0.  1.
         11   -1    0    0    0    0 -0.00000000000E+00 -0.00000000000E+00 -0.45593999997E+02  0.45594000000E+02  0.51100000000E-03 0. -1.
         23    2    1    2    0    0  0.17763568394E-14  0.71054273576E-14  0.00000000000E+00  0.91188000000E+02  0.91188000000E+02 0.  0.
    9900012    2    3    3    0    0  0.81718570791E+01 -0.35266070900E+02  0.67309070542E+01  0.54367080475E+02  0.39999991559E+02 0.  0.
         12    1    3    3    0    0 -0.81718570791E+01  0.35266070900E+02 -0.67309070542E+01  0.36820919525E+02  0.00000000000E+00 0. -1.
         11    1    4    4    0    0  0.11845122238E+02 -0.21487742965E+02 -0.15089500373E+01  0.24582655452E+02  0.51100000000E-03 0.  1.
        -11    1    4    4    0    0 -0.73630798752E+01  0.18539539290E+01 -0.48964928505E+01  0.90348067448E+01  0.51100000000E-03 0. -1.
        -12    1    4    4    0    0  0.36898147162E+01 -0.15632281864E+02  0.13136349942E+02  0.20749618279E+02  0.00000000000E+00 0.  1.
</event>
<event>
 8    1  0.2516265E-006  0.9118800E+02  0.7816164E-02  0.1184000E+00
        -11   -1    0    0    0    0  0.00000000000E+00  0.00000000000E+00  0.45593999997E+02  0.45594000000E+02  0.51100000000E-03 0. -1.
         11   -1    0    0    0    0 -0.00000000000E+00 -0.00000000000E+00 -0.45593999997E+02  0.45594000000E+02  0.51100000000E-03 0.  1.
         23    2    1    2    0    0  0.35527136788E-14  0.00000000000E+00 -0.17763568394E-14  0.91188000000E+02  0.91188000000E+02 0.  0.
    9900012    2    3    3    0    0  0.29014656521E+02 -0.16363163513E+02 -0.15689998958E+02  0.54367089087E+02  0.40000011192E+02 0.  0.
         12    1    3    3    0    0 -0.29014656521E+02  0.16363163513E+02  0.15689998958E+02  0.36820910913E+02  0.00000000000E+00 0. -1.
         11    1    4    4    0    0  0.21474130339E+02 -0.14436836268E+02 -0.19188119832E+01  0.25946914170E+02  0.51100000000E-03 0. -1.
        -11    1    4    4    0    0  0.10604426137E+02 -0.10983916486E+02 -0.77685869933E+01  0.17130417952E+02  0.51100000000E-03 0.  1.
         12    1    4    4    0    0 -0.30638999554E+01  0.90575892414E+01 -0.60025999819E+01  0.11289756966E+02  0.00000000000E+00 0. -1.
</event>
<event>
 8    1  0.2516265E-006  0.9118800E+02  0.7816164E-02  0.1184000E+00
        -11   -1    0    0    0    0  0.00000000000E+00  0.00000000000E+00  0.45593999997E+02  0.45594000000E+02  0.51100000000E-03 0. -1.
         11   -1    0    0    0    0 -0.00000000000E+00 -0.00000000000E+00 -0.45593999997E+02  0.45594000000E+02  0.51100000000E-03 0.  1.
         23    2    1    2    0    0 -0.35527136788E-14  0.35527136788E-14 -0.17763568394E-14  0.91188000000E+02  0.91188000000E+02 0.  0.
    9900012    2    3    3    0    0  0.27108243409E+02 -0.21371525527E+02  0.12813340690E+02  0.54367073019E+02  0.39999974561E+02 0.  0.
        -12    1    3    3    0    0 -0.27108243409E+02  0.21371525527E+02 -0.12813340690E+02  0.36820926981E+02  0.00000000000E+00 0.  1.
         11    1    4    4    0    0  0.17784278787E+02 -0.91053924128E+01  0.43091292405E+00  0.19984354610E+02  0.51100000000E-03 0.  1.
        -11    1    4    4    0    0  0.16514156521E+02 -0.14396693641E+02  0.26083911270E+01  0.22063224105E+02  0.51100000000E-03 0. -1.
         12    1    4    4    0    0 -0.71901918984E+01  0.21305605260E+01  0.97740366392E+01  0.12319494304E+02  0.00000000000E+00 0. -1.
</event>
<event>
 8    1  0.2516265E-006  0.9118800E+02  0.7816164E-02  0.1184000E+00
        -11   -1    0    0    0    0  0.00000000000E+00  0.00000000000E+00  0.45593999997E+02  0.45594000000E+02  0.51100000000E-03 0.  1.
         11   -1    0    0    0    0 -0.00000000000E+00 -0.00000000000E+00 -0.45593999997E+02  0.45594000000E+02  0.51100000000E-03 0. -1.
         23    2    1    2    0    0 -0.71054273576E-14  0.00000000000E+00  0.16653345369E-15  0.91188000000E+02  0.91188000000E+02 0.  0.
    9900012    2    3    3    0    0 -0.29876110809E+02  0.21520061221E+02  0.29327955037E+00  0.54367067843E+02  0.39999962762E+02 0.  0.
        -12    1    3    3    0    0  0.29876110809E+02 -0.21520061221E+02 -0.29327955037E+00  0.36820932157E+02  0.00000000000E+00 0.  1.
         11    1    4    4    0    0  0.88027182744E+01 -0.73932314716E+00 -0.19992728853E+00  0.88359730034E+01  0.51100000000E-03 0. -1.
        -11    1    4    4    0    0 -0.16774104886E+02  0.12384972794E+02  0.40536137840E+01  0.21241231857E+02  0.51100000000E-03 0.  1.
         12    1    4    4    0    0 -0.21904724197E+02  0.98744115743E+01 -0.35604069451E+01  0.24289862982E+02  0.00000000000E+00 0. -1.
</event>
<event>
 8    1  0.2516265E-006  0.9118800E+02  0.7816164E-02  0.1184000E+00
        -11   -1    0    0    0    0  0.00000000000E+00  0.00000000000E+00  0.45593999997E+02  0.45594000000E+02  0.51100000000E-03 0.  1.
         11   -1    0    0    0    0 -0.00000000000E+00 -0.00000000000E+00 -0.45593999997E+02  0.45594000000E+02  0.51100000000E-03 0. -1.
         23    2    1    2    0    0  0.00000000000E+00  0.00000000000E+00  0.00000000000E+00  0.91188000000E+02  0.91188000000E+02 0.  0.
    9900012    2    3    3    0    0 -0.12014315793E+02  0.34512559794E+02  0.45066095973E+01  0.54367216500E+02  0.40000301654E+02 0.  0.
        -12    1    3    3    0    0  0.12014315793E+02 -0.34512559794E+02 -0.45066095973E+01  0.36820783500E+02  0.00000000000E+00 0.  1.
         11    1    4    4    0    0 -0.82107973319E+01 -0.55071808277E+01  0.75412363007E+01  0.12434487472E+02  0.51100000000E-03 0.  1.
        -11    1    4    4    0    0 -0.16333944864E+01  0.22668973511E+02 -0.74144881323E+01  0.23906588467E+02  0.51100000000E-03 0. -1.
        -12    1    4    4    0    0 -0.21701239748E+01  0.17350767110E+02  0.43798614289E+01  0.18026140561E+02  0.00000000000E+00 0.  1.
</event>
<event>
 8    1  0.2516265E-006  0.9118800E+02  0.7816164E-02  0.1184000E+00
        -11   -1    0    0    0    0  0.00000000000E+00  0.00000000000E+00  0.45593999997E+02  0.45594000000E+02  0.51100000000E-03 0.  1.
         11   -1    0    0    0    0 -0.00000000000E+00 -0.00000000000E+00 -0.45593999997E+02  0.45594000000E+02  0.51100000000E-03 0. -1.
         23    2    1    2    0    0  0.00000000000E+00 -0.88817841970E-15  0.13322676296E-14  0.91188000000E+02  0.91188000000E+02 0.  0.
    9900012    2    3    3    0    0 -0.36049427039E+02 -0.67487589002E+01 -0.32668533728E+01  0.54367091979E+02  0.40000017784E+02 0.  0.
         12    1    3    3    0    0  0.36049427039E+02  0.67487589002E+01  0.32668533728E+01  0.36820908021E+02  0.00000000000E+00 0. -1.
         11    1    4    4    0    0 -0.68759758354E+01 -0.78675477451E+00 -0.48053043106E+01  0.84254956259E+01  0.51100000000E-03 0. -1.
        -11    1    4    4    0    0 -0.85518259661E+01  0.31028564840E+01  0.16540443810E+02  0.18877174773E+02  0.51100000000E-03 0.  1.
        -12    1    4    4    0    0 -0.20621625238E+02 -0.90648606098E+01 -0.15001992872E+02  0.27064421580E+02  0.00000000000E+00 0.  1.
</event>
<event>
 8    1  0.2516265E-006  0.9118800E+02  0.7816164E-02  0.1184000E+00
        -11   -1    0    0    0    0  0.00000000000E+00  0.00000000000E+00  0.45593999997E+02  0.45594000000E+02  0.51100000000E-03 0.  1.
         11   -1    0    0    0    0 -0.00000000000E+00 -0.00000000000E+00 -0.45593999997E+02  0.45594000000E+02  0.51100000000E-03 0. -1.
         23    2    1    2    0    0 -0.22204460493E-15  0.00000000000E+00  0.71054273576E-14  0.91188000000E+02  0.91188000000E+02 0.  0.
    9900012    2    3    3    0    0  0.12831938645E+01  0.11191351751E+02  0.35055473608E+02  0.54367093297E+02  0.40000020790E+02 0.  0.
         12    1    3    3    0    0 -0.12831938645E+01 -0.11191351751E+02 -0.35055473608E+02  0.36820906703E+02  0.00000000000E+00 0. -1.
         11    1    4    4    0    0 -0.97793666227E+01  0.12013143256E+02  0.16285247821E+02  0.22475785176E+02  0.51100000000E-03 0. -1.
        -11    1    4    4    0    0  0.36138144025E+01  0.29731134151E+00  0.22978686947E+02  0.23263020067E+02  0.51100000000E-03 0.  1.
        -12    1    4    4    0    0  0.74487460847E+01 -0.11191028463E+01 -0.42084611598E+01  0.86282880543E+01  0.00000000000E+00 0.  1.
</event>
<event>
 8    1  0.2516265E-006  0.9118800E+02  0.7816164E-02  0.1184000E+00
        -11   -1    0    0    0    0  0.00000000000E+00  0.00000000000E+00  0.45593999997E+02  0.45594000000E+02  0.51100000000E-03 0.  1.
         11   -1    0    0    0    0 -0.00000000000E+00 -0.00000000000E+00 -0.45593999997E+02  0.45594000000E+02  0.51100000000E-03 0. -1.
         23    2    1    2    0    0 -0.17763568394E-14  0.00000000000E+00  0.00000000000E+00  0.91188000000E+02  0.91188000000E+02 0.  0.
    9900012    2    3    3    0    0 -0.15859107812E+02  0.14696929339E+02 -0.29803839613E+02  0.54367083549E+02  0.39999998567E+02 0.  0.
        -12    1    3    3    0    0  0.15859107812E+02 -0.14696929339E+02  0.29803839613E+02  0.36820916451E+02  0.00000000000E+00 0.  1.
         11    1    4    4    0    0  0.45986410332E+01  0.11919117881E+02  0.28212906766E+01  0.13083292848E+02  0.51100000000E-03 0. -1.
        -11    1    4    4    0    0 -0.69169087503E+01 -0.13891887349E+01 -0.16838403370E+01  0.72531917486E+01  0.51100000000E-03 0.  1.
        -12    1    4    4    0    0 -0.13540840095E+02  0.41670001931E+01 -0.30941289953E+02  0.34030598952E+02  0.00000000000E+00 0.  1.
</event>
<event>
 8    1  0.2516265E-006  0.9118800E+02  0.7816164E-02  0.1184000E+00
        -11   -1    0    0    0    0  0.00000000000E+00  0.00000000000E+00  0.45593999997E+02  0.45594000000E+02  0.51100000000E-03 0. -1.
         11   -1    0    0    0    0 -0.00000000000E+00 -0.00000000000E+00 -0.45593999997E+02  0.45594000000E+02  0.51100000000E-03 0.  1.
         23    2    1    2    0    0  0.00000000000E+00  0.35527136788E-14  0.00000000000E+00  0.91188000000E+02  0.91188000000E+02 0.  0.
    9900012    2    3    3    0    0 -0.23847311046E+02  0.21655726782E+02 -0.17835694057E+02  0.54367126449E+02  0.40000096365E+02 0.  0.
         12    1    3    3    0    0  0.23847311046E+02 -0.21655726782E+02  0.17835694057E+02  0.36820873551E+02  0.00000000000E+00 0. -1.
         11    1    4    4    0    0 -0.12187011003E+02 -0.25773065095E-01 -0.53894784356E+01  0.13325553629E+02  0.51100000000E-03 0. -1.
        -11    1    4    4    0    0 -0.19730523417E+02  0.47883915541E+01 -0.51326602532E+01  0.20941978166E+02  0.51100000000E-03 0.  1.
        -12    1    4    4    0    0  0.80702233741E+01  0.16893108293E+02 -0.73135553683E+01  0.20099594654E+02  0.00000000000E+00 0.  1.
</event>
<event>
 8    1  0.2516265E-006  0.9118800E+02  0.7816164E-02  0.1184000E+00
        -11   -1    0    0    0    0  0.00000000000E+00  0.00000000000E+00  0.45593999997E+02  0.45594000000E+02  0.51100000000E-03 0.  1.
         11   -1    0    0    0    0 -0.00000000000E+00 -0.00000000000E+00 -0.45593999997E+02  0.45594000000E+02  0.51100000000E-03 0. -1.
         23    2    1    2    0    0  0.00000000000E+00  0.35527136788E-14  0.00000000000E+00  0.91188000000E+02  0.91188000000E+02 0.  0.
    9900012    2    3    3    0    0 -0.13893462101E+02 -0.26914259879E+02  0.20937387415E+02  0.54367083855E+02  0.39999999264E+02 0.  0.
        -12    1    3    3    0    0  0.13893462101E+02  0.26914259879E+02 -0.20937387415E+02  0.36820916145E+02  0.00000000000E+00 0.  1.
         11    1    4    4    0    0  0.34224679977E+01 -0.24840286267E+02  0.21996411743E+01  0.25171244120E+02  0.51100000000E-03 0. -1.
        -11    1    4    4    0    0  0.17785768834E+01 -0.27162479991E+01  0.21474975498E+01  0.38926963548E+01  0.51100000000E-03 0.  1.
        -12    1    4    4    0    0 -0.19094506982E+02  0.64227438654E+00  0.16590248691E+02  0.25303143380E+02  0.00000000000E+00 0.  1.
</event>
<event>
 8    1  0.2516265E-006  0.9118800E+02  0.7816164E-02  0.1184000E+00
        -11   -1    0    0    0    0  0.00000000000E+00  0.00000000000E+00  0.45593999997E+02  0.45594000000E+02  0.51100000000E-03 0.  1.
         11   -1    0    0    0    0 -0.00000000000E+00 -0.00000000000E+00 -0.45593999997E+02  0.45594000000E+02  0.51100000000E-03 0. -1.
         23    2    1    2    0    0 -0.44408920985E-15  0.00000000000E+00  0.00000000000E+00  0.91188000000E+02  0.91188000000E+02 0.  0.
    9900012    2    3    3    0    0  0.27489947308E+01  0.94885057155E+01 -0.35470991297E+02  0.54367082896E+02  0.39999997079E+02 0.  0.
        -12    1    3    3    0    0 -0.27489947308E+01 -0.94885057155E+01  0.35470991297E+02  0.36820917104E+02  0.00000000000E+00 0.  1.
         11    1    4    4    0    0 -0.32698368437E+01 -0.44729124392E+01  0.91562183576E+00  0.56157940027E+01  0.51100000000E-03 0. -1.
        -11    1    4    4    0    0  0.14208880342E+02  0.66199457715E+01 -0.66168305251E+01  0.17014652775E+02  0.51100000000E-03 0.  1.
         12    1    4    4    0    0 -0.81900487679E+01  0.73414723833E+01 -0.29769782608E+02  0.31736636118E+02  0.00000000000E+00 0. -1.
</event>
<event>
 8    1  0.2516265E-006  0.9118800E+02  0.7816164E-02  0.1184000E+00
        -11   -1    0    0    0    0  0.00000000000E+00  0.00000000000E+00  0.45593999997E+02  0.45594000000E+02  0.51100000000E-03 0.  1.
         11   -1    0    0    0    0 -0.00000000000E+00 -0.00000000000E+00 -0.45593999997E+02  0.45594000000E+02  0.51100000000E-03 0. -1.
         23    2    1    2    0    0 -0.88817841970E-15  0.00000000000E+00  0.35527136788E-14  0.91188000000E+02  0.91188000000E+02 0.  0.
    9900012    2    3    3    0    0  0.11408300117E+01 -0.20969348314E+02 -0.30245060729E+02  0.54367098866E+02  0.40000033485E+02 0.  0.
        -12    1    3    3    0    0 -0.11408300117E+01  0.20969348314E+02  0.30245060729E+02  0.36820901134E+02  0.00000000000E+00 0.  1.
         11    1    4    4    0    0 -0.13427186526E+01 -0.76590517638E+01 -0.57996887320E+01  0.97005338487E+01  0.51100000000E-03 0. -1.
        -11    1    4    4    0    0 -0.11380615260E+02 -0.64271167529E+01  0.27671662254E+01  0.13359769558E+02  0.51100000000E-03 0.  1.
         12    1    4    4    0    0  0.13864163924E+02 -0.68831797970E+01 -0.27212538223E+02  0.31306795460E+02  0.00000000000E+00 0. -1.
</event>
<event>
 8    1  0.2516265E-006  0.9118800E+02  0.7816164E-02  0.1184000E+00
        -11   -1    0    0    0    0  0.00000000000E+00  0.00000000000E+00  0.45593999997E+02  0.45594000000E+02  0.51100000000E-03 0.  1.
         11   -1    0    0    0    0 -0.00000000000E+00 -0.00000000000E+00 -0.45593999997E+02  0.45594000000E+02  0.51100000000E-03 0. -1.
         23    2    1    2    0    0  0.35527136788E-14 -0.35527136788E-14  0.00000000000E+00  0.91188000000E+02  0.91188000000E+02 0.  0.
    9900012    2    3    3    0    0  0.28182293472E+02 -0.22240318285E+02 -0.81795506301E+01  0.54367102791E+02  0.40000042432E+02 0.  0.
         12    1    3    3    0    0 -0.28182293472E+02  0.22240318285E+02  0.81795506301E+01  0.36820897209E+02  0.00000000000E+00 0. -1.
         11    1    4    4    0    0  0.72860179749E+01 -0.76979415701E+01 -0.15804219610E+02  0.19029390954E+02  0.51100000000E-03 0. -1.
        -11    1    4    4    0    0  0.24047159160E+01 -0.57161901002E+01 -0.76011800516E+01  0.98099656644E+01  0.51100000000E-03 0.  1.
        -12    1    4    4    0    0  0.18491559581E+02 -0.88261866148E+01  0.15225849031E+02  0.25527746172E+02  0.00000000000E+00 0.  1.
</event>
<event>
 8    1  0.2516265E-006  0.9118800E+02  0.7816164E-02  0.1184000E+00
        -11   -1    0    0    0    0  0.00000000000E+00  0.00000000000E+00  0.45593999997E+02  0.45594000000E+02  0.51100000000E-03 0.  1.
         11   -1    0    0    0    0 -0.00000000000E+00 -0.00000000000E+00 -0.45593999997E+02  0.45594000000E+02  0.51100000000E-03 0. -1.
         23    2    1    2    0    0 -0.17763568394E-14  0.00000000000E+00  0.17763568394E-14  0.91188000000E+02  0.91188000000E+02 0.  0.
    9900012    2    3    3    0    0 -0.26263250128E+01  0.34036091363E+02 -0.13799328181E+02  0.54367155949E+02  0.40000163617E+02 0.  0.
         12    1    3    3    0    0  0.26263250128E+01 -0.34036091363E+02  0.13799328181E+02  0.36820844051E+02  0.00000000000E+00 0. -1.
         11    1    4    4    0    0  0.67374058839E+01  0.34381210766E+02 -0.52042194869E+01  0.35419545346E+02  0.51100000000E-03 0. -1.
        -11    1    4    4    0    0  0.86042468358E+00 -0.39248932105E+01  0.13532494094E+01  0.42398586740E+01  0.51100000000E-03 0.  1.
         12    1    4    4    0    0 -0.10224155580E+02  0.35797738077E+01 -0.99483581036E+01  0.14707751929E+02  0.00000000000E+00 0. -1.
</event>
<event>
 8    1  0.2516265E-006  0.9118800E+02  0.7816164E-02  0.1184000E+00
        -11   -1    0    0    0    0  0.00000000000E+00  0.00000000000E+00  0.45593999997E+02  0.45594000000E+02  0.51100000000E-03 0.  1.
         11   -1    0    0    0    0 -0.00000000000E+00 -0.00000000000E+00 -0.45593999997E+02  0.45594000000E+02  0.51100000000E-03 0. -1.
         23    2    1    2    0    0  0.35527136788E-14  0.00000000000E+00  0.00000000000E+00  0.91188000000E+02  0.91188000000E+02 0.  0.
    9900012    2    3    3    0    0 -0.20452306207E+02 -0.23147812945E+02  0.20041514582E+02  0.54367076871E+02  0.39999983344E+02 0.  0.
         12    1    3    3    0    0  0.20452306207E+02  0.23147812945E+02 -0.20041514582E+02  0.36820923129E+02  0.00000000000E+00 0. -1.
         11    1    4    4    0    0 -0.24377803651E+02 -0.23119941039E+02  0.28884197034E+01  0.33721683723E+02  0.51100000000E-03 0. -1.
        -11    1    4    4    0    0 -0.37171924145E+01  0.47499520028E+00  0.68395593213E+01  0.77988917070E+01  0.51100000000E-03 0.  1.
         12    1    4    4    0    0  0.76426898584E+01 -0.50286710628E+00  0.10313535557E+02  0.12846501442E+02  0.00000000000E+00 0. -1.
</event>
<event>
 8    1  0.2516265E-006  0.9118800E+02  0.7816164E-02  0.1184000E+00
        -11   -1    0    0    0    0  0.00000000000E+00  0.00000000000E+00  0.45593999997E+02  0.45594000000E+02  0.51100000000E-03 0. -1.
         11   -1    0    0    0    0 -0.00000000000E+00 -0.00000000000E+00 -0.45593999997E+02  0.45594000000E+02  0.51100000000E-03 0.  1.
         23    2    1    2    0    0 -0.35527136788E-14  0.00000000000E+00 -0.53290705182E-14  0.91188000000E+02  0.91188000000E+02 0.  0.
    9900012    2    3    3    0    0  0.31558202035E+02  0.11630126873E+02  0.14986658395E+02  0.54367083436E+02  0.39999998309E+02 0.  0.
        -12    1    3    3    0    0 -0.31558202035E+02 -0.11630126873E+02 -0.14986658395E+02  0.36820916564E+02  0.00000000000E+00 0.  1.
         11    1    4    4    0    0  0.19152974346E+02  0.90349277194E+00 -0.12533762470E+01  0.19215193930E+02  0.51100000000E-03 0. -1.
        -11    1    4    4    0    0  0.17974589935E+02  0.41465922806E+00  0.44373544129E+01  0.18518853638E+02  0.51100000000E-03 0.  1.
        -12    1    4    4    0    0 -0.55693622457E+01  0.10311974873E+02  0.11802680230E+02  0.16633035868E+02  0.00000000000E+00 0.  1.
</event>
<event>
 8    1  0.2516265E-006  0.9118800E+02  0.7816164E-02  0.1184000E+00
        -11   -1    0    0    0    0  0.00000000000E+00  0.00000000000E+00  0.45593999997E+02  0.45594000000E+02  0.51100000000E-03 0. -1.
         11   -1    0    0    0    0 -0.00000000000E+00 -0.00000000000E+00 -0.45593999997E+02  0.45594000000E+02  0.51100000000E-03 0.  1.
         23    2    1    2    0    0  0.00000000000E+00 -0.35527136788E-14  0.00000000000E+00  0.91188000000E+02  0.91188000000E+02 0.  0.
    9900012    2    3    3    0    0  0.11554459391E+02 -0.31940583947E+02 -0.14215192180E+02  0.54367107515E+02  0.40000053201E+02 0.  0.
         12    1    3    3    0    0 -0.11554459391E+02  0.31940583947E+02  0.14215192180E+02  0.36820892485E+02  0.00000000000E+00 0. -1.
         11    1    4    4    0    0 -0.78363555021E+01 -0.23464153697E+00 -0.14565607087E+02  0.16541476182E+02  0.51100000000E-03 0. -1.
        -11    1    4    4    0    0  0.13296579370E+02 -0.19379070407E+02  0.33825695248E+01  0.23744244979E+02  0.51100000000E-03 0.  1.
         12    1    4    4    0    0  0.60942355231E+01 -0.12326872003E+02 -0.30321546176E+01  0.14081386353E+02  0.00000000000E+00 0. -1.
</event>
<event>
 8    1  0.2516265E-006  0.9118800E+02  0.7816164E-02  0.1184000E+00
        -11   -1    0    0    0    0  0.00000000000E+00  0.00000000000E+00  0.45593999997E+02  0.45594000000E+02  0.51100000000E-03 0.  1.
         11   -1    0    0    0    0 -0.00000000000E+00 -0.00000000000E+00 -0.45593999997E+02  0.45594000000E+02  0.51100000000E-03 0. -1.
         23    2    1    2    0    0  0.35527136788E-14  0.17763568394E-14  0.00000000000E+00  0.91188000000E+02  0.91188000000E+02 0.  0.
    9900012    2    3    3    0    0  0.21009633873E+02  0.15620698078E+02 -0.25891474963E+02  0.54367090184E+02  0.40000013693E+02 0.  0.
        -12    1    3    3    0    0 -0.21009633873E+02 -0.15620698078E+02  0.25891474963E+02  0.36820909816E+02  0.00000000000E+00 0.  1.
         11    1    4    4    0    0  0.53530495107E+00  0.11069101314E+02 -0.22876940108E+02  0.25419794339E+02  0.51100000000E-03 0. -1.
        -11    1    4    4    0    0 -0.29826232387E+01 -0.22365296652E+00 -0.39932723454E+01  0.49892170046E+01  0.51100000000E-03 0.  1.
         12    1    4    4    0    0  0.23456952160E+02  0.47752497311E+01  0.97873749038E+00  0.23958078840E+02  0.00000000000E+00 0. -1.
</event>
<event>
 8    1  0.2516265E-006  0.9118800E+02  0.7816164E-02  0.1184000E+00
        -11   -1    0    0    0    0  0.00000000000E+00  0.00000000000E+00  0.45593999997E+02  0.45594000000E+02  0.51100000000E-03 0. -1.
         11   -1    0    0    0    0 -0.00000000000E+00 -0.00000000000E+00 -0.45593999997E+02  0.45594000000E+02  0.51100000000E-03 0.  1.
         23    2    1    2    0    0  0.00000000000E+00  0.00000000000E+00  0.00000000000E+00  0.91188000000E+02  0.91188000000E+02 0.  0.
    9900012    2    3    3    0    0  0.13618906340E+02  0.31659133524E+02  0.12961652827E+02  0.54367084892E+02  0.40000001628E+02 0.  0.
         12    1    3    3    0    0 -0.13618906340E+02 -0.31659133524E+02 -0.12961652827E+02  0.36820915108E+02  0.00000000000E+00 0. -1.
         11    1    4    4    0    0  0.23751128558E+02  0.15815002395E+02  0.91791462045E+01  0.29974774959E+02  0.51100000000E-03 0.  1.
        -11    1    4    4    0    0 -0.41661414256E+01 -0.24578852404E+01  0.10452971339E+01  0.49487958730E+01  0.51100000000E-03 0. -1.
         12    1    4    4    0    0 -0.59660807927E+01  0.18302016370E+02  0.27372094887E+01  0.19443514060E+02  0.00000000000E+00 0. -1.
</event>
<event>
 8    1  0.2516265E-006  0.9118800E+02  0.7816164E-02  0.1184000E+00
        -11   -1    0    0    0    0  0.00000000000E+00  0.00000000000E+00  0.45593999997E+02  0.45594000000E+02  0.51100000000E-03 0.  1.
         11   -1    0    0    0    0 -0.00000000000E+00 -0.00000000000E+00 -0.45593999997E+02  0.45594000000E+02  0.51100000000E-03 0. -1.
         23    2    1    2    0    0  0.35527136788E-14  0.00000000000E+00  0.00000000000E+00  0.91188000000E+02  0.91188000000E+02 0.  0.
    9900012    2    3    3    0    0  0.30594703205E+02 -0.22830383203E+01  0.20360066111E+02  0.54367076326E+02  0.39999982101E+02 0.  0.
         12    1    3    3    0    0 -0.30594703205E+02  0.22830383203E+01 -0.20360066111E+02  0.36820923674E+02  0.00000000000E+00 0. -1.
         11    1    4    4    0    0  0.16189299154E+02  0.11747448113E+02  0.34598883671E+00  0.20005390594E+02  0.51100000000E-03 0. -1.
        -11    1    4    4    0    0  0.10308361278E+01 -0.13547214978E+01  0.15228582446E+02  0.15323433592E+02  0.51100000000E-03 0.  1.
        -12    1    4    4    0    0  0.13374567923E+02 -0.12675764936E+02  0.47854948278E+01  0.19038252141E+02  0.00000000000E+00 0.  1.
</event>
<event>
 8    1  0.2516265E-006  0.9118800E+02  0.7816164E-02  0.1184000E+00
        -11   -1    0    0    0    0  0.00000000000E+00  0.00000000000E+00  0.45593999997E+02  0.45594000000E+02  0.51100000000E-03 0. -1.
         11   -1    0    0    0    0 -0.00000000000E+00 -0.00000000000E+00 -0.45593999997E+02  0.45594000000E+02  0.51100000000E-03 0.  1.
         23    2    1    2    0    0  0.00000000000E+00  0.35527136788E-14  0.00000000000E+00  0.91188000000E+02  0.91188000000E+02 0.  0.
    9900012    2    3    3    0    0  0.15911891570E+02 -0.24035881059E+02  0.22910010329E+02  0.54367075991E+02  0.39999981336E+02 0.  0.
        -12    1    3    3    0    0 -0.15911891570E+02  0.24035881059E+02 -0.22910010329E+02  0.36820924009E+02  0.00000000000E+00 0.  1.
         11    1    4    4    0    0  0.93165847528E+00 -0.87850165382E+01 -0.92800765031E+01  0.12812662614E+02  0.51100000000E-03 0. -1.
        -11    1    4    4    0    0  0.21448656642E+01 -0.10862142695E+02  0.74671936841E+01  0.13354608733E+02  0.51100000000E-03 0.  1.
         12    1    4    4    0    0  0.12835367430E+02 -0.43887218260E+01  0.24722893148E+02  0.28199804644E+02  0.00000000000E+00 0. -1.
</event>
<event>
 8    1  0.2516265E-006  0.9118800E+02  0.7816164E-02  0.1184000E+00
        -11   -1    0    0    0    0  0.00000000000E+00  0.00000000000E+00  0.45593999997E+02  0.45594000000E+02  0.51100000000E-03 0.  1.
         11   -1    0    0    0    0 -0.00000000000E+00 -0.00000000000E+00 -0.45593999997E+02  0.45594000000E+02  0.51100000000E-03 0. -1.
         23    2    1    2    0    0  0.00000000000E+00  0.00000000000E+00  0.00000000000E+00  0.91188000000E+02  0.91188000000E+02 0.  0.
    9900012    2    3    3    0    0  0.20427186295E+02  0.20949208494E+02 -0.22352652659E+02  0.54367077179E+02  0.39999984045E+02 0.  0.
        -12    1    3    3    0    0 -0.20427186295E+02 -0.20949208494E+02  0.22352652659E+02  0.36820922821E+02  0.00000000000E+00 0.  1.
         11    1    4    4    0    0  0.39974943249E+01  0.91660216845E+01 -0.28146533674E+02  0.29870106670E+02  0.51100000000E-03 0. -1.
        -11    1    4    4    0    0  0.34432143710E+01  0.63808366609E+01 -0.30677052507E+01  0.78728404952E+01  0.51100000000E-03 0.  1.
        -12    1    4    4    0    0  0.12986477599E+02  0.54023501490E+01  0.88615862653E+01  0.16624130014E+02  0.00000000000E+00 0.  1.
</event>
<event>
 8    1  0.2516265E-006  0.9118800E+02  0.7816164E-02  0.1184000E+00
        -11   -1    0    0    0    0  0.00000000000E+00  0.00000000000E+00  0.45593999997E+02  0.45594000000E+02  0.51100000000E-03 0. -1.
         11   -1    0    0    0    0 -0.00000000000E+00 -0.00000000000E+00 -0.45593999997E+02  0.45594000000E+02  0.51100000000E-03 0.  1.
         23    2    1    2    0    0  0.17763568394E-14 -0.35527136788E-14  0.00000000000E+00  0.91188000000E+02  0.91188000000E+02 0.  0.
    9900012    2    3    3    0    0 -0.12678755333E+02  0.30040856606E+02 -0.17104946848E+02  0.54367039813E+02  0.39999898862E+02 0.  0.
         12    1    3    3    0    0  0.12678755333E+02 -0.30040856606E+02  0.17104946848E+02  0.36820960187E+02  0.00000000000E+00 0. -1.
         11    1    4    4    0    0 -0.87604255993E+01  0.30506597804E+01  0.75087255721E+01  0.11934510537E+02  0.51100000000E-03 0. -1.
        -11    1    4    4    0    0 -0.94736554938E+01  0.27040558557E+02 -0.22707138120E+02  0.36558939774E+02  0.51100000000E-03 0.  1.
        -12    1    4    4    0    0  0.55553257604E+01 -0.50361731613E-01 -0.19065343002E+01  0.58735895026E+01  0.00000000000E+00 0.  1.
</event>
<event>
 8    1  0.2516265E-006  0.9118800E+02  0.7816164E-02  0.1184000E+00
        -11   -1    0    0    0    0  0.00000000000E+00  0.00000000000E+00  0.45593999997E+02  0.45594000000E+02  0.51100000000E-03 0. -1.
         11   -1    0    0    0    0 -0.00000000000E+00 -0.00000000000E+00 -0.45593999997E+02  0.45594000000E+02  0.51100000000E-03 0.  1.
         23    2    1    2    0    0  0.00000000000E+00 -0.35527136788E-14 -0.35527136788E-14  0.91188000000E+02  0.91188000000E+02 0.  0.
    9900012    2    3    3    0    0  0.83821598652E+01 -0.31323977633E+02 -0.17444998351E+02  0.54367080047E+02  0.39999990583E+02 0.  0.
        -12    1    3    3    0    0 -0.83821598652E+01  0.31323977633E+02  0.17444998351E+02  0.36820919953E+02  0.00000000000E+00 0.  1.
         11    1    4    4    0    0 -0.65564055500E+00  0.11560926959E+01  0.51250446704E+01  0.52945725034E+01  0.51100000000E-03 0. -1.
        -11    1    4    4    0    0 -0.49374914138E+01 -0.88670185129E-01 -0.10813017915E+02  0.11887305857E+02  0.51100000000E-03 0.  1.
         12    1    4    4    0    0  0.13975291834E+02 -0.32391400143E+02 -0.11757025106E+02  0.37185201686E+02  0.00000000000E+00 0. -1.
</event>
<event>
 8    1  0.2516265E-006  0.9118800E+02  0.7816164E-02  0.1184000E+00
        -11   -1    0    0    0    0  0.00000000000E+00  0.00000000000E+00  0.45593999997E+02  0.45594000000E+02  0.51100000000E-03 0.  1.
         11   -1    0    0    0    0 -0.00000000000E+00 -0.00000000000E+00 -0.45593999997E+02  0.45594000000E+02  0.51100000000E-03 0. -1.
         23    2    1    2    0    0  0.00000000000E+00  0.17763568394E-14  0.17763568394E-14  0.91188000000E+02  0.91188000000E+02 0.  0.
    9900012    2    3    3    0    0  0.31821524855E+02 -0.15789150261E+02 -0.96888759763E+01  0.54367068076E+02  0.39999963293E+02 0.  0.
        -12    1    3    3    0    0 -0.31821524855E+02  0.15789150261E+02  0.96888759763E+01  0.36820931924E+02  0.00000000000E+00 0.  1.
         11    1    4    4    0    0  0.33319111810E+02 -0.77144956908E+01 -0.16320582857E+02  0.37895093094E+02  0.51100000000E-03 0. -1.
        -11    1    4    4    0    0  0.31742744179E+00  0.25908447039E-01  0.80448445721E+01  0.80511462463E+01  0.51100000000E-03 0.  1.
         12    1    4    4    0    0 -0.18150143964E+01 -0.81005630177E+01 -0.14131376913E+01  0.84208287358E+01  0.00000000000E+00 0. -1.
</event>
<event>
 8    1  0.2516265E-006  0.9118800E+02  0.7816164E-02  0.1184000E+00
        -11   -1    0    0    0    0  0.00000000000E+00  0.00000000000E+00  0.45593999997E+02  0.45594000000E+02  0.51100000000E-03 0.  1.
         11   -1    0    0    0    0 -0.00000000000E+00 -0.00000000000E+00 -0.45593999997E+02  0.45594000000E+02  0.51100000000E-03 0. -1.
         23    2    1    2    0    0  0.00000000000E+00  0.00000000000E+00  0.00000000000E+00  0.91188000000E+02  0.91188000000E+02 0.  0.
    9900012    2    3    3    0    0  0.37775452129E+01  0.20944713481E+02  0.30047051450E+02  0.54367134021E+02  0.40000113627E+02 0.  0.
         12    1    3    3    0    0 -0.37775452129E+01 -0.20944713481E+02 -0.30047051450E+02  0.36820865979E+02  0.00000000000E+00 0. -1.
         11    1    4    4    0    0 -0.58891340567E+01 -0.13141199952E+01  0.14819277569E+01  0.62132858809E+01  0.51100000000E-03 0.  1.
        -11    1    4    4    0    0 -0.88309929933E+01  0.15373733963E+02  0.73948182416E+01  0.19209931554E+02  0.51100000000E-03 0. -1.
         12    1    4    4    0    0  0.18497672263E+02  0.68850995132E+01  0.21170305451E+02  0.28943916586E+02  0.00000000000E+00 0. -1.
</event>
<event>
 8    1  0.2516265E-006  0.9118800E+02  0.7816164E-02  0.1184000E+00
        -11   -1    0    0    0    0  0.00000000000E+00  0.00000000000E+00  0.45593999997E+02  0.45594000000E+02  0.51100000000E-03 0.  1.
         11   -1    0    0    0    0 -0.00000000000E+00 -0.00000000000E+00 -0.45593999997E+02  0.45594000000E+02  0.51100000000E-03 0. -1.
         23    2    1    2    0    0  0.00000000000E+00 -0.88817841970E-15  0.00000000000E+00  0.91188000000E+02  0.91188000000E+02 0.  0.
    9900012    2    3    3    0    0  0.24888076751E+02 -0.72235236504E+01 -0.26156934514E+02  0.54367070063E+02  0.39999967822E+02 0.  0.
        -12    1    3    3    0    0 -0.24888076751E+02  0.72235236504E+01  0.26156934514E+02  0.36820929937E+02  0.00000000000E+00 0.  1.
         11    1    4    4    0    0 -0.25232075769E+01 -0.18357648832E+01 -0.34496681214E+01  0.46515394862E+01  0.51100000000E-03 0. -1.
        -11    1    4    4    0    0 -0.66047450455E+00 -0.13774804143E+02 -0.22274590552E+01  0.13969360395E+02  0.51100000000E-03 0.  1.
         12    1    4    4    0    0  0.28071758832E+02  0.83870453753E+01 -0.20479807337E+02  0.35746170182E+02  0.00000000000E+00 0. -1.
</event>
<event>
 8    1  0.2516265E-006  0.9118800E+02  0.7816164E-02  0.1184000E+00
        -11   -1    0    0    0    0  0.00000000000E+00  0.00000000000E+00  0.45593999997E+02  0.45594000000E+02  0.51100000000E-03 0. -1.
         11   -1    0    0    0    0 -0.00000000000E+00 -0.00000000000E+00 -0.45593999997E+02  0.45594000000E+02  0.51100000000E-03 0.  1.
         23    2    1    2    0    0 -0.35527136788E-14 -0.35527136788E-14  0.35527136788E-14  0.91188000000E+02  0.91188000000E+02 0.  0.
    9900012    2    3    3    0    0 -0.17606312608E+02 -0.25298141004E+02  0.20144528846E+02  0.54367078986E+02  0.39999988164E+02 0.  0.
        -12    1    3    3    0    0  0.17606312608E+02  0.25298141004E+02 -0.20144528846E+02  0.36820921014E+02  0.00000000000E+00 0.  1.
         11    1    4    4    0    0 -0.10995435364E+02 -0.22129057882E+02  0.43375712145E+01  0.25088031527E+02  0.51100000000E-03 0. -1.
        -11    1    4    4    0    0 -0.14952239732E+02 -0.12138261434E+01  0.57453181760E+01  0.16063982324E+02  0.51100000000E-03 0.  1.
        -12    1    4    4    0    0  0.83413624873E+01 -0.19552569788E+01  0.10061639455E+02  0.13215065135E+02  0.00000000000E+00 0.  1.
</event>
<event>
 8    1  0.2516265E-006  0.9118800E+02  0.7816164E-02  0.1184000E+00
        -11   -1    0    0    0    0  0.00000000000E+00  0.00000000000E+00  0.45593999997E+02  0.45594000000E+02  0.51100000000E-03 0.  1.
         11   -1    0    0    0    0 -0.00000000000E+00 -0.00000000000E+00 -0.45593999997E+02  0.45594000000E+02  0.51100000000E-03 0. -1.
         23    2    1    2    0    0  0.35527136788E-14  0.88817841970E-15  0.00000000000E+00  0.91188000000E+02  0.91188000000E+02 0.  0.
    9900012    2    3    3    0    0  0.24472105044E+02 -0.14382915626E+01  0.27474116233E+02  0.54367086504E+02  0.40000005303E+02 0.  0.
         12    1    3    3    0    0 -0.24472105044E+02  0.14382915626E+01 -0.27474116233E+02  0.36820913496E+02  0.00000000000E+00 0. -1.
         11    1    4    4    0    0  0.23248269770E+02  0.87741441772E+01  0.71597681803E+01  0.25859813109E+02  0.51100000000E-03 0.  1.
        -11    1    4    4    0    0 -0.62325901744E+01 -0.16524743903E+01  0.16401213381E+01  0.66532586120E+01  0.51100000000E-03 0. -1.
        -12    1    4    4    0    0  0.74564254485E+01 -0.85599613495E+01  0.18674226714E+02  0.21854014783E+02  0.00000000000E+00 0.  1.
</event>
<event>
 8    1  0.2516265E-006  0.9118800E+02  0.7816164E-02  0.1184000E+00
        -11   -1    0    0    0    0  0.00000000000E+00  0.00000000000E+00  0.45593999997E+02  0.45594000000E+02  0.51100000000E-03 0.  1.
         11   -1    0    0    0    0 -0.00000000000E+00 -0.00000000000E+00 -0.45593999997E+02  0.45594000000E+02  0.51100000000E-03 0. -1.
         23    2    1    2    0    0  0.00000000000E+00 -0.35527136788E-14 -0.88817841970E-15  0.91188000000E+02  0.91188000000E+02 0.  0.
    9900012    2    3    3    0    0  0.22387278290E+02 -0.28173353723E+02  0.78001929860E+01  0.54367202890E+02  0.40000270627E+02 0.  0.
        -12    1    3    3    0    0 -0.22387278290E+02  0.28173353723E+02 -0.78001929860E+01  0.36820797110E+02  0.00000000000E+00 0.  1.
         11    1    4    4    0    0  0.14312063398E+01 -0.10865725494E+02  0.71085292016E+01  0.13063059740E+02  0.51100000000E-03 0. -1.
        -11    1    4    4    0    0  0.17425150822E+02 -0.43712739040E-01  0.11269403629E+02  0.20751801136E+02  0.51100000000E-03 0.  1.
        -12    1    4    4    0    0  0.35309211288E+01 -0.17263915490E+02 -0.10577739844E+02  0.20552342014E+02  0.00000000000E+00 0.  1.
</event>
<event>
 8    1  0.2516265E-006  0.9118800E+02  0.7816164E-02  0.1184000E+00
        -11   -1    0    0    0    0  0.00000000000E+00  0.00000000000E+00  0.45593999997E+02  0.45594000000E+02  0.51100000000E-03 0. -1.
         11   -1    0    0    0    0 -0.00000000000E+00 -0.00000000000E+00 -0.45593999997E+02  0.45594000000E+02  0.51100000000E-03 0.  1.
         23    2    1    2    0    0  0.35527136788E-14  0.00000000000E+00  0.35527136788E-14  0.91188000000E+02  0.91188000000E+02 0.  0.
    9900012    2    3    3    0    0  0.24142227134E+02 -0.30186109366E+01  0.27637293885E+02  0.54367093489E+02  0.40000021227E+02 0.  0.
        -12    1    3    3    0    0 -0.24142227134E+02  0.30186109366E+01 -0.27637293885E+02  0.36820906511E+02  0.00000000000E+00 0.  1.
         11    1    4    4    0    0  0.53865107446E+01  0.75967725802E+01  0.67464210791E+01  0.11499549960E+02  0.51100000000E-03 0. -1.
        -11    1    4    4    0    0  0.72260516948E+01  0.78640751210E+01 -0.24343163601E+01  0.10953784597E+02  0.51100000000E-03 0.  1.
         12    1    4    4    0    0  0.11529664695E+02 -0.18479458638E+02  0.23325189166E+02  0.31913758932E+02  0.00000000000E+00 0. -1.
</event>
<event>
 8    1  0.2516265E-006  0.9118800E+02  0.7816164E-02  0.1184000E+00
        -11   -1    0    0    0    0  0.00000000000E+00  0.00000000000E+00  0.45593999997E+02  0.45594000000E+02  0.51100000000E-03 0.  1.
         11   -1    0    0    0    0 -0.00000000000E+00 -0.00000000000E+00 -0.45593999997E+02  0.45594000000E+02  0.51100000000E-03 0. -1.
         23    2    1    2    0    0  0.35527136788E-14  0.35527136788E-14 -0.17763568394E-14  0.91188000000E+02  0.91188000000E+02 0.  0.
    9900012    2    3    3    0    0 -0.25263024412E+02 -0.21578781847E+02  0.15871824203E+02  0.54367095178E+02  0.40000025076E+02 0.  0.
         12    1    3    3    0    0  0.25263024412E+02  0.21578781847E+02 -0.15871824203E+02  0.36820904822E+02  0.00000000000E+00 0. -1.
         11    1    4    4    0    0 -0.10465202552E+02 -0.15894720582E+02  0.89122379489E+01  0.21014057017E+02  0.51100000000E-03 0. -1.
        -11    1    4    4    0    0 -0.30337782683E+01  0.17239698047E+01  0.16257739728E+02  0.16627987966E+02  0.51100000000E-03 0.  1.
        -12    1    4    4    0    0 -0.11764043592E+02 -0.74080310700E+01 -0.92981534744E+01  0.16725050194E+02  0.00000000000E+00 0.  1.
</event>
<event>
 8    1  0.2516265E-006  0.9118800E+02  0.7816164E-02  0.1184000E+00
        -11   -1    0    0    0    0  0.00000000000E+00  0.00000000000E+00  0.45593999997E+02  0.45594000000E+02  0.51100000000E-03 0.  1.
         11   -1    0    0    0    0 -0.00000000000E+00 -0.00000000000E+00 -0.45593999997E+02  0.45594000000E+02  0.51100000000E-03 0. -1.
         23    2    1    2    0    0  0.00000000000E+00  0.00000000000E+00  0.66266436782E-15  0.91188000000E+02  0.91188000000E+02 0.  0.
    9900012    2    3    3    0    0 -0.33235196024E+02 -0.15849386429E+02 -0.17138348761E-01  0.54367060324E+02  0.39999945620E+02 0.  0.
         12    1    3    3    0    0  0.33235196024E+02  0.15849386429E+02  0.17138348761E-01  0.36820939676E+02  0.00000000000E+00 0. -1.
         11    1    4    4    0    0 -0.32164051992E+02 -0.51847334168E+01 -0.66618988628E+01  0.33253399794E+02  0.51100000000E-03 0. -1.
        -11    1    4    4    0    0  0.40943706415E+01 -0.85750930669E+01 -0.30087690665E+01  0.99673859970E+01  0.51100000000E-03 0.  1.
        -12    1    4    4    0    0 -0.51655146735E+01 -0.20895599455E+01  0.96535295805E+01  0.11146274533E+02  0.00000000000E+00 0.  1.
</event>
<event>
 8    1  0.2516265E-006  0.9118800E+02  0.7816164E-02  0.1184000E+00
        -11   -1    0    0    0    0  0.00000000000E+00  0.00000000000E+00  0.45593999997E+02  0.45594000000E+02  0.51100000000E-03 0.  1.
         11   -1    0    0    0    0 -0.00000000000E+00 -0.00000000000E+00 -0.45593999997E+02  0.45594000000E+02  0.51100000000E-03 0. -1.
         23    2    1    2    0    0  0.00000000000E+00 -0.35527136788E-14  0.00000000000E+00  0.91188000000E+02  0.91188000000E+02 0.  0.
    9900012    2    3    3    0    0 -0.22332773967E+02  0.20081649547E+02  0.21301477631E+02  0.54367103883E+02  0.40000044922E+02 0.  0.
         12    1    3    3    0    0  0.22332773967E+02 -0.20081649547E+02 -0.21301477631E+02  0.36820896117E+02  0.00000000000E+00 0. -1.
         11    1    4    4    0    0  0.13126851137E+01 -0.29353840473E+01 -0.10458307891E+01  0.33813287349E+01  0.51100000000E-03 0. -1.
        -11    1    4    4    0    0  0.93322012441E+00  0.20479638516E+02  0.60092912210E+01  0.21363475250E+02  0.51100000000E-03 0.  1.
        -12    1    4    4    0    0 -0.24578679205E+02  0.25373950790E+01  0.16338017199E+02  0.29622299898E+02  0.00000000000E+00 0.  1.
</event>
<event>
 8    1  0.2516265E-006  0.9118800E+02  0.7816164E-02  0.1184000E+00
        -11   -1    0    0    0    0  0.00000000000E+00  0.00000000000E+00  0.45593999997E+02  0.45594000000E+02  0.51100000000E-03 0.  1.
         11   -1    0    0    0    0 -0.00000000000E+00 -0.00000000000E+00 -0.45593999997E+02  0.45594000000E+02  0.51100000000E-03 0. -1.
         23    2    1    2    0    0  0.00000000000E+00  0.00000000000E+00  0.00000000000E+00  0.91188000000E+02  0.91188000000E+02 0.  0.
    9900012    2    3    3    0    0 -0.69487540762E+01 -0.10289278327E+02 -0.34664483969E+02  0.54367070075E+02  0.39999967850E+02 0.  0.
        -12    1    3    3    0    0  0.69487540762E+01  0.10289278327E+02  0.34664483969E+02  0.36820929925E+02  0.00000000000E+00 0.  1.
         11    1    4    4    0    0 -0.65974623746E+01  0.47313933737E+01 -0.17712704731E+02  0.19484673521E+02  0.51100000000E-03 0. -1.
        -11    1    4    4    0    0 -0.91518311429E+00  0.60922771695E+01  0.20290325441E+01  0.64861679418E+01  0.51100000000E-03 0.  1.
         12    1    4    4    0    0  0.56389141268E+00 -0.21112948870E+02 -0.18980811782E+02  0.28396228613E+02  0.00000000000E+00 0. -1.
</event>
<event>
 8    1  0.2516265E-006  0.9118800E+02  0.7816164E-02  0.1184000E+00
        -11   -1    0    0    0    0  0.00000000000E+00  0.00000000000E+00  0.45593999997E+02  0.45594000000E+02  0.51100000000E-03 0. -1.
         11   -1    0    0    0    0 -0.00000000000E+00 -0.00000000000E+00 -0.45593999997E+02  0.45594000000E+02  0.51100000000E-03 0.  1.
         23    2    1    2    0    0  0.00000000000E+00  0.00000000000E+00  0.88817841970E-15  0.91188000000E+02  0.91188000000E+02 0.  0.
    9900012    2    3    3    0    0  0.19799956085E+02  0.30000382670E+02  0.79824039049E+01  0.54367082121E+02  0.39999995312E+02 0.  0.
         12    1    3    3    0    0 -0.19799956085E+02 -0.30000382670E+02 -0.79824039049E+01  0.36820917879E+02  0.00000000000E+00 0. -1.
         11    1    4    4    0    0 -0.35511681973E+01  0.66826538986E+01 -0.17275312134E+01  0.77622820774E+01  0.51100000000E-03 0. -1.
        -11    1    4    4    0    0 -0.24461513411E+01  0.69763994837E+01 -0.83295003169E+01  0.11137072413E+02  0.51100000000E-03 0.  1.
        -12    1    4    4    0    0  0.25797275624E+02  0.16341329288E+02  0.18039435435E+02  0.35467727631E+02  0.00000000000E+00 0.  1.
</event>
<event>
 8    1  0.2516265E-006  0.9118800E+02  0.7816164E-02  0.1184000E+00
        -11   -1    0    0    0    0  0.00000000000E+00  0.00000000000E+00  0.45593999997E+02  0.45594000000E+02  0.51100000000E-03 0.  1.
         11   -1    0    0    0    0 -0.00000000000E+00 -0.00000000000E+00 -0.45593999997E+02  0.45594000000E+02  0.51100000000E-03 0. -1.
         23    2    1    2    0    0  0.00000000000E+00 -0.17763568394E-14 -0.17763568394E-14  0.91188000000E+02  0.91188000000E+02 0.  0.
    9900012    2    3    3    0    0 -0.31153520846E+02 -0.12184964283E+02 -0.15387166655E+02  0.54367080492E+02  0.39999991598E+02 0.  0.
        -12    1    3    3    0    0  0.31153520846E+02  0.12184964283E+02  0.15387166655E+02  0.36820919508E+02  0.00000000000E+00 0.  1.
         11    1    4    4    0    0 -0.23382700537E+02  0.60967040636E+01 -0.12898789463E+02  0.27391590949E+02  0.51100000000E-03 0. -1.
        -11    1    4    4    0    0  0.25526405152E+01  0.15381986858E+01  0.27137667222E+01  0.40307020332E+01  0.51100000000E-03 0.  1.
        -12    1    4    4    0    0 -0.10323460825E+02 -0.19819867033E+02 -0.52021439144E+01  0.22944787510E+02  0.00000000000E+00 0.  1.
</event>
<event>
 8    1  0.2516265E-006  0.9118800E+02  0.7816164E-02  0.1184000E+00
        -11   -1    0    0    0    0  0.00000000000E+00  0.00000000000E+00  0.45593999997E+02  0.45594000000E+02  0.51100000000E-03 0. -1.
         11   -1    0    0    0    0 -0.00000000000E+00 -0.00000000000E+00 -0.45593999997E+02  0.45594000000E+02  0.51100000000E-03 0.  1.
         23    2    1    2    0    0  0.00000000000E+00 -0.35527136788E-14  0.00000000000E+00  0.91188000000E+02  0.91188000000E+02 0.  0.
    9900012    2    3    3    0    0  0.82985908552E+01  0.27448625995E+02  0.23097309639E+02  0.54367090292E+02  0.40000013938E+02 0.  0.
        -12    1    3    3    0    0 -0.82985908552E+01 -0.27448625995E+02 -0.23097309639E+02  0.36820909708E+02  0.00000000000E+00 0.  1.
         11    1    4    4    0    0 -0.12625028057E+01  0.58992716003E+00  0.85083371346E+01  0.86217010181E+01  0.51100000000E-03 0. -1.
        -11    1    4    4    0    0  0.37501485769E+01  0.16883238677E+02  0.24866106019E+02  0.30289116715E+02  0.51100000000E-03 0.  1.
        -12    1    4    4    0    0  0.58109450840E+01  0.99754601574E+01 -0.10277133514E+02  0.15456272558E+02  0.00000000000E+00 0.  1.
</event>
<event>
 8    1  0.2516265E-006  0.9118800E+02  0.7816164E-02  0.1184000E+00
        -11   -1    0    0    0    0  0.00000000000E+00  0.00000000000E+00  0.45593999997E+02  0.45594000000E+02  0.51100000000E-03 0. -1.
         11   -1    0    0    0    0 -0.00000000000E+00 -0.00000000000E+00 -0.45593999997E+02  0.45594000000E+02  0.51100000000E-03 0.  1.
         23    2    1    2    0    0 -0.35527136788E-14  0.00000000000E+00  0.35527136788E-14  0.91188000000E+02  0.91188000000E+02 0.  0.
    9900012    2    3    3    0    0 -0.10802806952E+02 -0.22198094858E+02  0.27318931711E+02  0.54367080903E+02  0.39999992534E+02 0.  0.
        -12    1    3    3    0    0  0.10802806952E+02  0.22198094858E+02 -0.27318931711E+02  0.36820919097E+02  0.00000000000E+00 0.  1.
         11    1    4    4    0    0  0.22537168229E+01 -0.22321415178E+02  0.21831228924E+02  0.31303791649E+02  0.51100000000E-03 0. -1.
        -11    1    4    4    0    0  0.27000930617E-02  0.23388595562E+01  0.90495650969E+01  0.93469192795E+01  0.51100000000E-03 0.  1.
        -12    1    4    4    0    0 -0.13059223868E+02 -0.22155392362E+01 -0.35618623098E+01  0.13716369974E+02  0.00000000000E+00 0.  1.
</event>
<event>
 8    1  0.2516265E-006  0.9118800E+02  0.7816164E-02  0.1184000E+00
        -11   -1    0    0    0    0  0.00000000000E+00  0.00000000000E+00  0.45593999997E+02  0.45594000000E+02  0.51100000000E-03 0. -1.
         11   -1    0    0    0    0 -0.00000000000E+00 -0.00000000000E+00 -0.45593999997E+02  0.45594000000E+02  0.51100000000E-03 0.  1.
         23    2    1    2    0    0  0.00000000000E+00  0.17763568394E-14 -0.17763568394E-14  0.91188000000E+02  0.91188000000E+02 0.  0.
    9900012    2    3    3    0    0 -0.31376541765E+02  0.10882346295E+02  0.15901790307E+02  0.54367085169E+02  0.40000002260E+02 0.  0.
         12    1    3    3    0    0  0.31376541765E+02 -0.10882346295E+02 -0.15901790307E+02  0.36820914831E+02  0.00000000000E+00 0. -1.
         11    1    4    4    0    0 -0.81208299597E+01  0.22204278006E+00  0.15750141225E+02  0.17721854618E+02  0.51100000000E-03 0. -1.
        -11    1    4    4    0    0 -0.12848777436E+01  0.12606093947E+02  0.57104805105E+01  0.13898708693E+02  0.51100000000E-03 0.  1.
         12    1    4    4    0    0 -0.21970834062E+02 -0.19457904325E+01 -0.55588314287E+01  0.22746521858E+02  0.00000000000E+00 0. -1.
</event>
<event>
 8    1  0.2516265E-006  0.9118800E+02  0.7816164E-02  0.1184000E+00
        -11   -1    0    0    0    0  0.00000000000E+00  0.00000000000E+00  0.45593999997E+02  0.45594000000E+02  0.51100000000E-03 0.  1.
         11   -1    0    0    0    0 -0.00000000000E+00 -0.00000000000E+00 -0.45593999997E+02  0.45594000000E+02  0.51100000000E-03 0. -1.
         23    2    1    2    0    0  0.35527136788E-14  0.00000000000E+00  0.15543122345E-14  0.91188000000E+02  0.91188000000E+02 0.  0.
    9900012    2    3    3    0    0  0.26757818861E+02  0.25277130734E+02 -0.93015848373E+00  0.54367090137E+02  0.40000013585E+02 0.  0.
        -12    1    3    3    0    0 -0.26757818861E+02 -0.25277130734E+02  0.93015848373E+00  0.36820909863E+02  0.00000000000E+00 0.  1.
         11    1    4    4    0    0  0.86020961958E+01  0.28415239477E+01 -0.17480381366E+02  0.19688424271E+02  0.51100000000E-03 0. -1.
        -11    1    4    4    0    0  0.12885548923E+02  0.16444398453E+02  0.16624731059E+02  0.26699012989E+02  0.51100000000E-03 0.  1.
         12    1    4    4    0    0  0.52701737420E+01  0.59912083334E+01 -0.74508176275E-01  0.79796528768E+01  0.00000000000E+00 0. -1.
</event>
<event>
 8    1  0.2516265E-006  0.9118800E+02  0.7816164E-02  0.1184000E+00
        -11   -1    0    0    0    0  0.00000000000E+00  0.00000000000E+00  0.45593999997E+02  0.45594000000E+02  0.51100000000E-03 0.  1.
         11   -1    0    0    0    0 -0.00000000000E+00 -0.00000000000E+00 -0.45593999997E+02  0.45594000000E+02  0.51100000000E-03 0. -1.
         23    2    1    2    0    0  0.00000000000E+00  0.35527136788E-14 -0.35527136788E-14  0.91188000000E+02  0.91188000000E+02 0.  0.
    9900012    2    3    3    0    0 -0.23894261500E+02 -0.23486245772E+02  0.15272291648E+02  0.54367049914E+02  0.39999921888E+02 0.  0.
         12    1    3    3    0    0  0.23894261500E+02  0.23486245772E+02 -0.15272291648E+02  0.36820950086E+02  0.00000000000E+00 0. -1.
         11    1    4    4    0    0 -0.16252595379E+02 -0.11750501017E+02  0.90517319067E+01  0.22003522024E+02  0.51100000000E-03 0. -1.
        -11    1    4    4    0    0 -0.87893300336E+01 -0.42153103225E+01  0.16746076153E+02  0.19376589750E+02  0.51100000000E-03 0.  1.
         12    1    4    4    0    0  0.11476639121E+01 -0.75204344324E+01 -0.10525516412E+02  0.12986938140E+02  0.00000000000E+00 0. -1.
</event>
<event>
 8    1  0.2516265E-006  0.9118800E+02  0.7816164E-02  0.1184000E+00
        -11   -1    0    0    0    0  0.00000000000E+00  0.00000000000E+00  0.45593999997E+02  0.45594000000E+02  0.51100000000E-03 0. -1.
         11   -1    0    0    0    0 -0.00000000000E+00 -0.00000000000E+00 -0.45593999997E+02  0.45594000000E+02  0.51100000000E-03 0.  1.
         23    2    1    2    0    0 -0.88817841970E-15 -0.35527136788E-14  0.35527136788E-14  0.91188000000E+02  0.91188000000E+02 0.  0.
    9900012    2    3    3    0    0  0.70266895759E+01 -0.25324712686E+02 -0.25788836033E+02  0.54367088781E+02  0.40000010494E+02 0.  0.
         12    1    3    3    0    0 -0.70266895759E+01  0.25324712686E+02  0.25788836033E+02  0.36820911219E+02  0.00000000000E+00 0. -1.
         11    1    4    4    0    0  0.71197850912E+01 -0.85171679758E+01 -0.20063905021E+00  0.11102871086E+02  0.51100000000E-03 0. -1.
        -11    1    4    4    0    0 -0.19500728335E+01  0.89000533237E+01 -0.66060435352E+01  0.11254045702E+02  0.51100000000E-03 0.  1.
        -12    1    4    4    0    0  0.18569773183E+01 -0.25707598034E+02 -0.18982153448E+02  0.32010171992E+02  0.00000000000E+00 0.  1.
</event>
<event>
 8    1  0.2516265E-006  0.9118800E+02  0.7816164E-02  0.1184000E+00
        -11   -1    0    0    0    0  0.00000000000E+00  0.00000000000E+00  0.45593999997E+02  0.45594000000E+02  0.51100000000E-03 0. -1.
         11   -1    0    0    0    0 -0.00000000000E+00 -0.00000000000E+00 -0.45593999997E+02  0.45594000000E+02  0.51100000000E-03 0.  1.
         23    2    1    2    0    0 -0.35527136788E-14  0.00000000000E+00  0.44408920985E-15  0.91188000000E+02  0.91188000000E+02 0.  0.
    9900012    2    3    3    0    0  0.21098987907E+02 -0.30091270680E+02  0.22642165723E+01  0.54367101878E+02  0.40000040351E+02 0.  0.
         12    1    3    3    0    0 -0.21098987907E+02  0.30091270680E+02 -0.22642165723E+01  0.36820898122E+02  0.00000000000E+00 0. -1.
         11    1    4    4    0    0  0.17630305005E+02 -0.19094355283E+02  0.13271806015E+02  0.29181550565E+02  0.51100000000E-03 0. -1.
        -11    1    4    4    0    0  0.57291555294E+01 -0.86524425071E+01  0.30017032659E+01  0.10802694441E+02  0.51100000000E-03 0.  1.
        -12    1    4    4    0    0 -0.22604726273E+01 -0.23444728900E+01 -0.14009292708E+02  0.14382856873E+02  0.00000000000E+00 0.  1.
</event>
<event>
 8    1  0.2516265E-006  0.9118800E+02  0.7816164E-02  0.1184000E+00
        -11   -1    0    0    0    0  0.00000000000E+00  0.00000000000E+00  0.45593999997E+02  0.45594000000E+02  0.51100000000E-03 0.  1.
         11   -1    0    0    0    0 -0.00000000000E+00 -0.00000000000E+00 -0.45593999997E+02  0.45594000000E+02  0.51100000000E-03 0. -1.
         23    2    1    2    0    0  0.00000000000E+00 -0.71054273576E-14  0.35527136788E-14  0.91188000000E+02  0.91188000000E+02 0.  0.
    9900012    2    3    3    0    0  0.11193288754E+02  0.27616542400E+02 -0.21629118026E+02  0.54367056587E+02  0.39999937100E+02 0.  0.
        -12    1    3    3    0    0 -0.11193288754E+02 -0.27616542400E+02  0.21629118026E+02  0.36820943413E+02  0.00000000000E+00 0.  1.
         11    1    4    4    0    0  0.25197952882E+01 -0.11018115632E+01 -0.58895946010E+01  0.65000524490E+01  0.51100000000E-03 0. -1.
        -11    1    4    4    0    0  0.14789953716E+02  0.11342693233E+02  0.58044015383E+01  0.19521539339E+02  0.51100000000E-03 0.  1.
        -12    1    4    4    0    0 -0.61164602502E+01  0.17375660731E+02 -0.21543924963E+02  0.28345464799E+02  0.00000000000E+00 0.  1.
</event>
<event>
 8    1  0.2516265E-006  0.9118800E+02  0.7816164E-02  0.1184000E+00
        -11   -1    0    0    0    0  0.00000000000E+00  0.00000000000E+00  0.45593999997E+02  0.45594000000E+02  0.51100000000E-03 0.  1.
         11   -1    0    0    0    0 -0.00000000000E+00 -0.00000000000E+00 -0.45593999997E+02  0.45594000000E+02  0.51100000000E-03 0. -1.
         23    2    1    2    0    0  0.00000000000E+00  0.17763568394E-14  0.00000000000E+00  0.91188000000E+02  0.91188000000E+02 0.  0.
    9900012    2    3    3    0    0 -0.13621910919E+02 -0.54840819314E+01 -0.33766093166E+02  0.54367073078E+02  0.39999974696E+02 0.  0.
        -12    1    3    3    0    0  0.13621910919E+02  0.54840819314E+01  0.33766093166E+02  0.36820926922E+02  0.00000000000E+00 0.  1.
         11    1    4    4    0    0 -0.10630668895E+02 -0.22842756889E+00 -0.22638269513E+02  0.25011088484E+02  0.51100000000E-03 0. -1.
        -11    1    4    4    0    0  0.31632276960E+01  0.98607288347E+01 -0.70667442872E+01  0.12537099253E+02  0.51100000000E-03 0.  1.
         12    1    4    4    0    0 -0.61544697200E+01 -0.15116383197E+02 -0.40610793653E+01  0.16818885341E+02  0.00000000000E+00 0. -1.
</event>
<event>
 8    1  0.2516265E-006  0.9118800E+02  0.7816164E-02  0.1184000E+00
        -11   -1    0    0    0    0  0.00000000000E+00  0.00000000000E+00  0.45593999997E+02  0.45594000000E+02  0.51100000000E-03 0.  1.
         11   -1    0    0    0    0 -0.00000000000E+00 -0.00000000000E+00 -0.45593999997E+02  0.45594000000E+02  0.51100000000E-03 0. -1.
         23    2    1    2    0    0  0.13322676296E-14  0.00000000000E+00  0.00000000000E+00  0.91188000000E+02  0.91188000000E+02 0.  0.
    9900012    2    3    3    0    0  0.29284468093E+01 -0.17699038995E+02  0.32155001537E+02  0.54367137626E+02  0.40000121847E+02 0.  0.
         12    1    3    3    0    0 -0.29284468093E+01  0.17699038995E+02 -0.32155001537E+02  0.36820862374E+02  0.00000000000E+00 0. -1.
         11    1    4    4    0    0 -0.46377765607E+01  0.56998530114E+01  0.84733993934E+01  0.11215872383E+02  0.51100000000E-03 0. -1.
        -11    1    4    4    0    0  0.18806043831E+01 -0.28184224178E+02  0.16001470230E+02  0.32464352992E+02  0.51100000000E-03 0.  1.
         12    1    4    4    0    0  0.56856189869E+01  0.47853321716E+01  0.76801319137E+01  0.10686912251E+02  0.00000000000E+00 0. -1.
</event>
<event>
 8    1  0.2516265E-006  0.9118800E+02  0.7816164E-02  0.1184000E+00
        -11   -1    0    0    0    0  0.00000000000E+00  0.00000000000E+00  0.45593999997E+02  0.45594000000E+02  0.51100000000E-03 0.  1.
         11   -1    0    0    0    0 -0.00000000000E+00 -0.00000000000E+00 -0.45593999997E+02  0.45594000000E+02  0.51100000000E-03 0. -1.
         23    2    1    2    0    0  0.00000000000E+00  0.00000000000E+00  0.35527136788E-14  0.91188000000E+02  0.91188000000E+02 0.  0.
    9900012    2    3    3    0    0 -0.17658548091E+02  0.25514570307E+02  0.19823267114E+02  0.54367088309E+02  0.40000009419E+02 0.  0.
         12    1    3    3    0    0  0.17658548091E+02 -0.25514570307E+02 -0.19823267114E+02  0.36820911691E+02  0.00000000000E+00 0. -1.
         11    1    4    4    0    0 -0.46404157455E+01  0.57492101062E+01  0.41012283081E+01  0.84502632523E+01  0.51100000000E-03 0. -1.
        -11    1    4    4    0    0 -0.92868311541E+01  0.26094080511E+02  0.22679741174E+02  0.35798281112E+02  0.51100000000E-03 0.  1.
         12    1    4    4    0    0 -0.37313011915E+01 -0.63287203094E+01 -0.69577023678E+01  0.10118543945E+02  0.00000000000E+00 0. -1.
</event>
<event>
 8    1  0.2516265E-006  0.9118800E+02  0.7816164E-02  0.1184000E+00
        -11   -1    0    0    0    0  0.00000000000E+00  0.00000000000E+00  0.45593999997E+02  0.45594000000E+02  0.51100000000E-03 0. -1.
         11   -1    0    0    0    0 -0.00000000000E+00 -0.00000000000E+00 -0.45593999997E+02  0.45594000000E+02  0.51100000000E-03 0.  1.
         23    2    1    2    0    0 -0.35527136788E-14  0.00000000000E+00  0.53290705182E-14  0.91188000000E+02  0.91188000000E+02 0.  0.
    9900012    2    3    3    0    0 -0.29755910734E+02  0.18470394890E+02  0.11367067805E+02  0.54367082827E+02  0.39999996920E+02 0.  0.
         12    1    3    3    0    0  0.29755910734E+02 -0.18470394890E+02 -0.11367067805E+02  0.36820917173E+02  0.00000000000E+00 0. -1.
         11    1    4    4    0    0 -0.26425215648E+01  0.58399099615E+01  0.11630396113E+02  0.13279818621E+02  0.51100000000E-03 0. -1.
        -11    1    4    4    0    0 -0.18727274724E+02  0.47634149355E+01 -0.13485996253E+02  0.23564232125E+02  0.51100000000E-03 0.  1.
        -12    1    4    4    0    0 -0.83861144454E+01  0.78670699929E+01  0.13222667945E+02  0.17523032082E+02  0.00000000000E+00 0.  1.
</event>
<event>
 8    1  0.2516265E-006  0.9118800E+02  0.7816164E-02  0.1184000E+00
        -11   -1    0    0    0    0  0.00000000000E+00  0.00000000000E+00  0.45593999997E+02  0.45594000000E+02  0.51100000000E-03 0.  1.
         11   -1    0    0    0    0 -0.00000000000E+00 -0.00000000000E+00 -0.45593999997E+02  0.45594000000E+02  0.51100000000E-03 0. -1.
         23    2    1    2    0    0  0.00000000000E+00 -0.11102230246E-15  0.35527136788E-14  0.91188000000E+02  0.91188000000E+02 0.  0.
    9900012    2    3    3    0    0 -0.21501911137E+02 -0.63953688216E+00  0.29883583442E+02  0.54367221229E+02  0.40000312434E+02 0.  0.
         12    1    3    3    0    0  0.21501911137E+02  0.63953688216E+00 -0.29883583442E+02  0.36820778771E+02  0.00000000000E+00 0. -1.
         11    1    4    4    0    0  0.17442694428E+01  0.50305023055E+01  0.39633333923E+01  0.66375026308E+01  0.51100000000E-03 0.  1.
        -11    1    4    4    0    0 -0.11685960558E+02  0.12735395473E+02  0.16975342994E+02  0.24226313009E+02  0.51100000000E-03 0. -1.
        -12    1    4    4    0    0 -0.11560220023E+02 -0.18405434661E+02  0.89449070558E+01  0.23503405589E+02  0.00000000000E+00 0.  1.
</event>
<event>
 8    1  0.2516265E-006  0.9118800E+02  0.7816164E-02  0.1184000E+00
        -11   -1    0    0    0    0  0.00000000000E+00  0.00000000000E+00  0.45593999997E+02  0.45594000000E+02  0.51100000000E-03 0. -1.
         11   -1    0    0    0    0 -0.00000000000E+00 -0.00000000000E+00 -0.45593999997E+02  0.45594000000E+02  0.51100000000E-03 0.  1.
         23    2    1    2    0    0  0.00000000000E+00  0.00000000000E+00  0.00000000000E+00  0.91188000000E+02  0.91188000000E+02 0.  0.
    9900012    2    3    3    0    0 -0.11021883408E+02 -0.33773031599E+02 -0.96787951023E+01  0.54367100339E+02  0.40000036843E+02 0.  0.
         12    1    3    3    0    0  0.11021883408E+02  0.33773031599E+02  0.96787951023E+01  0.36820899661E+02  0.00000000000E+00 0. -1.
         11    1    4    4    0    0 -0.18205821077E+02 -0.30777973219E+02 -0.33358876265E+00  0.35760968083E+02  0.51100000000E-03 0.  1.
        -11    1    4    4    0    0  0.22107585802E+01 -0.82750312438E+01 -0.33544205289E+01  0.91986810430E+01  0.51100000000E-03 0. -1.
         12    1    4    4    0    0  0.49731790889E+01  0.52799728637E+01 -0.59907858108E+01  0.94074512128E+01  0.00000000000E+00 0. -1.
</event>
<event>
 8    1  0.2516265E-006  0.9118800E+02  0.7816164E-02  0.1184000E+00
        -11   -1    0    0    0    0  0.00000000000E+00  0.00000000000E+00  0.45593999997E+02  0.45594000000E+02  0.51100000000E-03 0.  1.
         11   -1    0    0    0    0 -0.00000000000E+00 -0.00000000000E+00 -0.45593999997E+02  0.45594000000E+02  0.51100000000E-03 0. -1.
         23    2    1    2    0    0  0.00000000000E+00  0.00000000000E+00  0.71054273576E-14  0.91188000000E+02  0.91188000000E+02 0.  0.
    9900012    2    3    3    0    0  0.89188786770E+01 -0.11207890754E+02  0.33920755542E+02  0.54367070237E+02  0.39999968220E+02 0.  0.
         12    1    3    3    0    0 -0.89188786770E+01  0.11207890754E+02 -0.33920755542E+02  0.36820929763E+02  0.00000000000E+00 0. -1.
         11    1    4    4    0    0 -0.30218670565E+01  0.44110747390E+00 -0.72121367579E+01  0.78320605965E+01  0.51100000000E-03 0. -1.
        -11    1    4    4    0    0 -0.35125010941E+00 -0.92116257385E+01  0.18217755307E+02  0.20417248445E+02  0.51100000000E-03 0.  1.
         12    1    4    4    0    0  0.12291995843E+02 -0.24373724898E+01  0.22915136993E+02  0.26117761195E+02  0.00000000000E+00 0. -1.
</event>
<event>
 8    1  0.2516265E-006  0.9118800E+02  0.7816164E-02  0.1184000E+00
        -11   -1    0    0    0    0  0.00000000000E+00  0.00000000000E+00  0.45593999997E+02  0.45594000000E+02  0.51100000000E-03 0. -1.
         11   -1    0    0    0    0 -0.00000000000E+00 -0.00000000000E+00 -0.45593999997E+02  0.45594000000E+02  0.51100000000E-03 0.  1.
         23    2    1    2    0    0  0.35527136788E-14 -0.77715611724E-15  0.00000000000E+00  0.91188000000E+02  0.91188000000E+02 0.  0.
    9900012    2    3    3    0    0  0.19776024727E+02 -0.78415467450E+00  0.31049560327E+02  0.54367065070E+02  0.39999956441E+02 0.  0.
        -12    1    3    3    0    0 -0.19776024727E+02  0.78415467450E+00 -0.31049560327E+02  0.36820934930E+02  0.00000000000E+00 0.  1.
         11    1    4    4    0    0  0.14429262914E+02  0.81671781067E+01  0.59333094211E+01  0.17609957054E+02  0.51100000000E-03 0. -1.
        -11    1    4    4    0    0  0.85619927193E+01  0.52585666079E+01  0.34020788662E+01  0.10608222423E+02  0.51100000000E-03 0.  1.
         12    1    4    4    0    0 -0.32152309066E+01 -0.14209899389E+02  0.21714172040E+02  0.26148885594E+02  0.00000000000E+00 0. -1.
</event>
<event>
 8    1  0.2516265E-006  0.9118800E+02  0.7816164E-02  0.1184000E+00
        -11   -1    0    0    0    0  0.00000000000E+00  0.00000000000E+00  0.45593999997E+02  0.45594000000E+02  0.51100000000E-03 0.  1.
         11   -1    0    0    0    0 -0.00000000000E+00 -0.00000000000E+00 -0.45593999997E+02  0.45594000000E+02  0.51100000000E-03 0. -1.
         23    2    1    2    0    0  0.00000000000E+00  0.71054273576E-14  0.44408920985E-15  0.91188000000E+02  0.91188000000E+02 0.  0.
    9900012    2    3    3    0    0  0.31428509010E+02  0.19024353381E+02  0.24705829874E+01  0.54367068718E+02  0.39999964758E+02 0.  0.
         12    1    3    3    0    0 -0.31428509010E+02 -0.19024353381E+02 -0.24705829874E+01  0.36820931282E+02  0.00000000000E+00 0. -1.
         11    1    4    4    0    0  0.20900470725E+02  0.13635204404E+01  0.10522187334E+02  0.23439396133E+02  0.51100000000E-03 0.  1.
        -11    1    4    4    0    0 -0.48340822833E+01 -0.27143775635E+00 -0.52622569394E+01  0.71507606822E+01  0.51100000000E-03 0. -1.
         12    1    4    4    0    0  0.15362120568E+02  0.17932270697E+02 -0.27893474073E+01  0.23776911903E+02  0.00000000000E+00 0. -1.
</event>
<event>
 8    1  0.2516265E-006  0.9118800E+02  0.7816164E-02  0.1184000E+00
        -11   -1    0    0    0    0  0.00000000000E+00  0.00000000000E+00  0.45593999997E+02  0.45594000000E+02  0.51100000000E-03 0. -1.
         11   -1    0    0    0    0 -0.00000000000E+00 -0.00000000000E+00 -0.45593999997E+02  0.45594000000E+02  0.51100000000E-03 0.  1.
         23    2    1    2    0    0  0.17763568394E-14  0.00000000000E+00 -0.35527136788E-14  0.91188000000E+02  0.91188000000E+02 0.  0.
    9900012    2    3    3    0    0 -0.99231760761E+01  0.22026371287E+02 -0.27787578289E+02  0.54367082539E+02  0.39999996265E+02 0.  0.
         12    1    3    3    0    0  0.99231760761E+01 -0.22026371287E+02  0.27787578289E+02  0.36820917461E+02  0.00000000000E+00 0. -1.
         11    1    4    4    0    0  0.47625164308E+01  0.14915817898E+02 -0.27463373986E+02  0.31613289883E+02  0.51100000000E-03 0. -1.
        -11    1    4    4    0    0 -0.10553975631E+02  0.12093363399E+02 -0.16852590799E+01  0.16139266970E+02  0.51100000000E-03 0.  1.
         12    1    4    4    0    0 -0.41317168763E+01 -0.49828100098E+01  0.13610547769E+01  0.66145256856E+01  0.00000000000E+00 0. -1.
</event>
<event>
 8    1  0.2516265E-006  0.9118800E+02  0.7816164E-02  0.1184000E+00
        -11   -1    0    0    0    0  0.00000000000E+00  0.00000000000E+00  0.45593999997E+02  0.45594000000E+02  0.51100000000E-03 0. -1.
         11   -1    0    0    0    0 -0.00000000000E+00 -0.00000000000E+00 -0.45593999997E+02  0.45594000000E+02  0.51100000000E-03 0.  1.
         23    2    1    2    0    0  0.00000000000E+00  0.00000000000E+00 -0.17763568394E-14  0.91188000000E+02  0.91188000000E+02 0.  0.
    9900012    2    3    3    0    0 -0.26726599522E+02 -0.22605536344E+02 -0.11421101681E+02  0.54367313436E+02  0.40000522637E+02 0.  0.
         12    1    3    3    0    0  0.26726599522E+02  0.22605536344E+02  0.11421101681E+02  0.36820686564E+02  0.00000000000E+00 0. -1.
         11    1    4    4    0    0 -0.20328142341E+02 -0.21061035665E+02 -0.28643989667E+01  0.29410973735E+02  0.51100000000E-03 0. -1.
        -11    1    4    4    0    0 -0.77794008562E+01  0.14880645070E+01 -0.15415351607E+02  0.17331084186E+02  0.51100000000E-03 0.  1.
         12    1    4    4    0    0  0.13809436757E+01 -0.30325651861E+01  0.68586488922E+01  0.76252555150E+01  0.00000000000E+00 0. -1.
</event>
<event>
 8    1  0.2516265E-006  0.9118800E+02  0.7816164E-02  0.1184000E+00
        -11   -1    0    0    0    0  0.00000000000E+00  0.00000000000E+00  0.45593999997E+02  0.45594000000E+02  0.51100000000E-03 0.  1.
         11   -1    0    0    0    0 -0.00000000000E+00 -0.00000000000E+00 -0.45593999997E+02  0.45594000000E+02  0.51100000000E-03 0. -1.
         23    2    1    2    0    0  0.00000000000E+00  0.22204460493E-15  0.00000000000E+00  0.91188000000E+02  0.91188000000E+02 0.  0.
    9900012    2    3    3    0    0  0.25053578295E+02  0.11843771106E+01 -0.26957274093E+02  0.54367093424E+02  0.40000021080E+02 0.  0.
        -12    1    3    3    0    0 -0.25053578295E+02 -0.11843771106E+01  0.26957274093E+02  0.36820906576E+02  0.00000000000E+00 0.  1.
         11    1    4    4    0    0  0.24379876953E+01  0.11858390934E+01 -0.31675222325E+01  0.41693159765E+01  0.51100000000E-03 0. -1.
        -11    1    4    4    0    0 -0.72515747205E+01 -0.22667482930E+00  0.49223315793E+01  0.87673294590E+01  0.51100000000E-03 0.  1.
        -12    1    4    4    0    0  0.29867165321E+02  0.22521284654E+00 -0.28712083439E+02  0.41430447989E+02  0.00000000000E+00 0.  1.
</event>
<event>
 8    1  0.2516265E-006  0.9118800E+02  0.7816164E-02  0.1184000E+00
        -11   -1    0    0    0    0  0.00000000000E+00  0.00000000000E+00  0.45593999997E+02  0.45594000000E+02  0.51100000000E-03 0.  1.
         11   -1    0    0    0    0 -0.00000000000E+00 -0.00000000000E+00 -0.45593999997E+02  0.45594000000E+02  0.51100000000E-03 0. -1.
         23    2    1    2    0    0 -0.35527136788E-14  0.00000000000E+00  0.00000000000E+00  0.91188000000E+02  0.91188000000E+02 0.  0.
    9900012    2    3    3    0    0 -0.92467851479E+01 -0.35383122022E+02  0.42797223143E+01  0.54367022518E+02  0.39999859435E+02 0.  0.
         12    1    3    3    0    0  0.92467851479E+01  0.35383122022E+02 -0.42797223143E+01  0.36820977482E+02  0.00000000000E+00 0. -1.
         11    1    4    4    0    0 -0.16271705356E+02 -0.30670544566E+01  0.20690699816E+01  0.16687008991E+02  0.51100000000E-03 0. -1.
        -11    1    4    4    0    0 -0.48836554666E+01 -0.24799624055E+01 -0.26800024661E-01  0.54773189383E+01  0.51100000000E-03 0.  1.
         12    1    4    4    0    0  0.11908575675E+02 -0.29836105160E+02  0.22374523574E+01  0.32202694589E+02  0.00000000000E+00 0. -1.
</event>
<event>
 8    1  0.2516265E-006  0.9118800E+02  0.7816164E-02  0.1184000E+00
        -11   -1    0    0    0    0  0.00000000000E+00  0.00000000000E+00  0.45593999997E+02  0.45594000000E+02  0.51100000000E-03 0. -1.
         11   -1    0    0    0    0 -0.00000000000E+00 -0.00000000000E+00 -0.45593999997E+02  0.45594000000E+02  0.51100000000E-03 0.  1.
         23    2    1    2    0    0  0.00000000000E+00  0.00000000000E+00 -0.88817841970E-15  0.91188000000E+02  0.91188000000E+02 0.  0.
    9900012    2    3    3    0    0 -0.83210692470E+01 -0.35798490488E+02  0.22381198200E+01  0.54367064447E+02  0.39999955020E+02 0.  0.
         12    1    3    3    0    0  0.83210692470E+01  0.35798490488E+02 -0.22381198200E+01  0.36820935553E+02  0.00000000000E+00 0. -1.
         11    1    4    4    0    0 -0.60975780374E+01 -0.22781676620E+02  0.13779039202E+02  0.27313864047E+02  0.51100000000E-03 0. -1.
        -11    1    4    4    0    0  0.32020116212E+01  0.27474780923E+01 -0.93245970766E+01  0.10234726435E+02  0.51100000000E-03 0.  1.
        -12    1    4    4    0    0 -0.54255028308E+01 -0.15764291960E+02 -0.22163223058E+01  0.16818473966E+02  0.00000000000E+00 0.  1.
</event>
<event>
 8    1  0.2516265E-006  0.9118800E+02  0.7816164E-02  0.1184000E+00
        -11   -1    0    0    0    0  0.00000000000E+00  0.00000000000E+00  0.45593999997E+02  0.45594000000E+02  0.51100000000E-03 0.  1.
         11   -1    0    0    0    0 -0.00000000000E+00 -0.00000000000E+00 -0.45593999997E+02  0.45594000000E+02  0.51100000000E-03 0. -1.
         23    2    1    2    0    0 -0.27755575616E-16  0.44408920985E-15 -0.71054273576E-14  0.91188000000E+02  0.91188000000E+02 0.  0.
    9900012    2    3    3    0    0 -0.30910608050E-01 -0.29872153226E+01  0.36699545895E+02  0.54367067370E+02  0.39999961683E+02 0.  0.
         12    1    3    3    0    0  0.30910608050E-01  0.29872153226E+01 -0.36699545895E+02  0.36820932630E+02  0.00000000000E+00 0. -1.
         11    1    4    4    0    0 -0.12419404033E+02 -0.22618050970E+01 -0.17684057678E+01  0.12746945440E+02  0.51100000000E-03 0. -1.
        -11    1    4    4    0    0 -0.17445486210E+00 -0.30077989218E+01  0.55985572464E+01  0.63577615837E+01  0.51100000000E-03 0.  1.
         12    1    4    4    0    0  0.12562948287E+02  0.22823886962E+01  0.32869394417E+02  0.35262360346E+02  0.00000000000E+00 0. -1.
</event>
<event>
 8    1  0.2516265E-006  0.9118800E+02  0.7816164E-02  0.1184000E+00
        -11   -1    0    0    0    0  0.00000000000E+00  0.00000000000E+00  0.45593999997E+02  0.45594000000E+02  0.51100000000E-03 0. -1.
         11   -1    0    0    0    0 -0.00000000000E+00 -0.00000000000E+00 -0.45593999997E+02  0.45594000000E+02  0.51100000000E-03 0.  1.
         23    2    1    2    0    0  0.00000000000E+00  0.11102230246E-14  0.00000000000E+00  0.91188000000E+02  0.91188000000E+02 0.  0.
    9900012    2    3    3    0    0  0.96674325976E+01 -0.55396756410E+00  0.35524843213E+02  0.54367073635E+02  0.39999975965E+02 0.  0.
        -12    1    3    3    0    0 -0.96674325976E+01  0.55396756410E+00 -0.35524843213E+02  0.36820926365E+02  0.00000000000E+00 0.  1.
         11    1    4    4    0    0  0.11225414865E+02  0.13271062402E+02  0.74530547689E+01  0.18912404972E+02  0.51100000000E-03 0. -1.
        -11    1    4    4    0    0  0.55559960296E+01 -0.37347314793E+01  0.18969115723E+02  0.20115781433E+02  0.51100000000E-03 0.  1.
        -12    1    4    4    0    0 -0.71139782966E+01 -0.10090298487E+02  0.91026727217E+01  0.15338887230E+02  0.00000000000E+00 0.  1.
</event>
<event>
 8    1  0.2516265E-006  0.9118800E+02  0.7816164E-02  0.1184000E+00
        -11   -1    0    0    0    0  0.00000000000E+00  0.00000000000E+00  0.45593999997E+02  0.45594000000E+02  0.51100000000E-03 0. -1.
         11   -1    0    0    0    0 -0.00000000000E+00 -0.00000000000E+00 -0.45593999997E+02  0.45594000000E+02  0.51100000000E-03 0.  1.
         23    2    1    2    0    0  0.00000000000E+00  0.15543122345E-14  0.00000000000E+00  0.91188000000E+02  0.91188000000E+02 0.  0.
    9900012    2    3    3    0    0 -0.46100280322E+01  0.60060734438E+00  0.36526241582E+02  0.54367090020E+02  0.40000013318E+02 0.  0.
        -12    1    3    3    0    0  0.46100280322E+01 -0.60060734438E+00 -0.36526241582E+02  0.36820909980E+02  0.00000000000E+00 0.  1.
         11    1    4    4    0    0 -0.10771592741E+02 -0.11553353175E+02  0.10476271402E+02  0.18954140511E+02  0.51100000000E-03 0. -1.
        -11    1    4    4    0    0  0.37600603435E+00  0.10753023573E+02  0.23982624026E+01  0.11023636393E+02  0.51100000000E-03 0.  1.
         12    1    4    4    0    0  0.57855586741E+01  0.14009369459E+01  0.23651707777E+02  0.24389313116E+02  0.00000000000E+00 0. -1.
</event>
<event>
 8    1  0.2516265E-006  0.9118800E+02  0.7816164E-02  0.1184000E+00
        -11   -1    0    0    0    0  0.00000000000E+00  0.00000000000E+00  0.45593999997E+02  0.45594000000E+02  0.51100000000E-03 0.  1.
         11   -1    0    0    0    0 -0.00000000000E+00 -0.00000000000E+00 -0.45593999997E+02  0.45594000000E+02  0.51100000000E-03 0. -1.
         23    2    1    2    0    0 -0.35527136788E-14 -0.88817841970E-15  0.35527136788E-14  0.91188000000E+02  0.91188000000E+02 0.  0.
    9900012    2    3    3    0    0 -0.27565197559E+02  0.50838600261E+01  0.23876634643E+02  0.54367089757E+02  0.40000012719E+02 0.  0.
         12    1    3    3    0    0  0.27565197559E+02 -0.50838600261E+01 -0.23876634643E+02  0.36820910243E+02  0.00000000000E+00 0. -1.
         11    1    4    4    0    0 -0.81565574749E+01 -0.60898236196E+01  0.76821641947E+01  0.12752687110E+02  0.51100000000E-03 0. -1.
        -11    1    4    4    0    0  0.85157843902E+01  0.90078767358E+00  0.31122013196E+01  0.91113006497E+01  0.51100000000E-03 0.  1.
        -12    1    4    4    0    0 -0.27924424474E+02  0.10272895972E+02  0.13082269129E+02  0.32503101997E+02  0.00000000000E+00 0.  1.
</event>
<event>
 8    1  0.2516265E-006  0.9118800E+02  0.7816164E-02  0.1184000E+00
        -11   -1    0    0    0    0  0.00000000000E+00  0.00000000000E+00  0.45593999997E+02  0.45594000000E+02  0.51100000000E-03 0. -1.
         11   -1    0    0    0    0 -0.00000000000E+00 -0.00000000000E+00 -0.45593999997E+02  0.45594000000E+02  0.51100000000E-03 0.  1.
         23    2    1    2    0    0 -0.35527136788E-14  0.00000000000E+00  0.35527136788E-14  0.91188000000E+02  0.91188000000E+02 0.  0.
    9900012    2    3    3    0    0  0.25945824333E+02  0.11745197475E+02 -0.23337625500E+02  0.54367078935E+02  0.39999988049E+02 0.  0.
         12    1    3    3    0    0 -0.25945824333E+02 -0.11745197475E+02  0.23337625500E+02  0.36820921065E+02  0.00000000000E+00 0. -1.
         11    1    4    4    0    0  0.66979399206E+01  0.29761802884E+01 -0.20745764357E+01  0.76173431023E+01  0.51100000000E-03 0. -1.
        -11    1    4    4    0    0  0.44393304885E+01  0.13677600348E+02  0.58051394693E+01  0.15507548194E+02  0.51100000000E-03 0.  1.
        -12    1    4    4    0    0  0.14808553924E+02 -0.49085831618E+01 -0.27068188534E+02  0.31242187639E+02  0.00000000000E+00 0.  1.
</event>
<event>
 8    1  0.2516265E-006  0.9118800E+02  0.7816164E-02  0.1184000E+00
        -11   -1    0    0    0    0  0.00000000000E+00  0.00000000000E+00  0.45593999997E+02  0.45594000000E+02  0.51100000000E-03 0.  1.
         11   -1    0    0    0    0 -0.00000000000E+00 -0.00000000000E+00 -0.45593999997E+02  0.45594000000E+02  0.51100000000E-03 0. -1.
         23    2    1    2    0    0 -0.35527136788E-14  0.35527136788E-14 -0.71054273576E-14  0.91188000000E+02  0.91188000000E+02 0.  0.
    9900012    2    3    3    0    0  0.18193594974E+02 -0.20699399263E+02  0.24419504708E+02  0.54367024482E+02  0.39999863911E+02 0.  0.
         12    1    3    3    0    0 -0.18193594974E+02  0.20699399263E+02 -0.24419504708E+02  0.36820975518E+02  0.00000000000E+00 0. -1.
         11    1    4    4    0    0  0.88447550553E+01  0.30068356701E+01 -0.13241585584E+01  0.94352609335E+01  0.51100000000E-03 0. -1.
        -11    1    4    4    0    0 -0.18932045622E+01  0.25836463458E+01  0.13418955060E+02  0.13795934442E+02  0.51100000000E-03 0.  1.
        -12    1    4    4    0    0  0.11242044481E+02 -0.26289881279E+02  0.12324708206E+02  0.31135829107E+02  0.00000000000E+00 0.  1.
</event>
<event>
 8    1  0.2516265E-006  0.9118800E+02  0.7816164E-02  0.1184000E+00
        -11   -1    0    0    0    0  0.00000000000E+00  0.00000000000E+00  0.45593999997E+02  0.45594000000E+02  0.51100000000E-03 0.  1.
         11   -1    0    0    0    0 -0.00000000000E+00 -0.00000000000E+00 -0.45593999997E+02  0.45594000000E+02  0.51100000000E-03 0. -1.
         23    2    1    2    0    0 -0.35527136788E-14  0.17763568394E-14  0.00000000000E+00  0.91188000000E+02  0.91188000000E+02 0.  0.
    9900012    2    3    3    0    0  0.23844400391E+02 -0.15538218556E+02 -0.23362113594E+02  0.54367081795E+02  0.39999994568E+02 0.  0.
        -12    1    3    3    0    0 -0.23844400391E+02  0.15538218556E+02  0.23362113594E+02  0.36820918205E+02  0.00000000000E+00 0.  1.
         11    1    4    4    0    0  0.67711553078E+01 -0.87512796644E+00  0.37232828448E+01  0.77767106519E+01  0.51100000000E-03 0. -1.
        -11    1    4    4    0    0  0.19187405599E+02 -0.96525801897E+01 -0.27490260013E+01  0.21653775241E+02  0.51100000000E-03 0.  1.
         12    1    4    4    0    0 -0.21141605158E+01 -0.50105103995E+01 -0.24336370437E+02  0.24936595902E+02  0.00000000000E+00 0. -1.
</event>
<event>
 8    1  0.2516265E-006  0.9118800E+02  0.7816164E-02  0.1184000E+00
        -11   -1    0    0    0    0  0.00000000000E+00  0.00000000000E+00  0.45593999997E+02  0.45594000000E+02  0.51100000000E-03 0.  1.
         11   -1    0    0    0    0 -0.00000000000E+00 -0.00000000000E+00 -0.45593999997E+02  0.45594000000E+02  0.51100000000E-03 0. -1.
         23    2    1    2    0    0 -0.53290705182E-14 -0.17763568394E-14  0.00000000000E+00  0.91188000000E+02  0.91188000000E+02 0.  0.
    9900012    2    3    3    0    0 -0.15537470850E+02 -0.14925681288E+02 -0.29859580619E+02  0.54367034273E+02  0.39999886231E+02 0.  0.
        -12    1    3    3    0    0  0.15537470850E+02  0.14925681288E+02  0.29859580619E+02  0.36820965727E+02  0.00000000000E+00 0.  1.
         11    1    4    4    0    0  0.10180689673E+01 -0.23969468233E+00 -0.78414472579E-03  0.10459057505E+01  0.51100000000E-03 0. -1.
        -11    1    4    4    0    0  0.53834695314E+01  0.71627714911E+01  0.16884443348E+01  0.91179978154E+01  0.51100000000E-03 0.  1.
         12    1    4    4    0    0 -0.21939009349E+02 -0.21848758097E+02 -0.31547240809E+02  0.44203130707E+02  0.00000000000E+00 0. -1.
</event>
<event>
 8    1  0.2516265E-006  0.9118800E+02  0.7816164E-02  0.1184000E+00
        -11   -1    0    0    0    0  0.00000000000E+00  0.00000000000E+00  0.45593999997E+02  0.45594000000E+02  0.51100000000E-03 0.  1.
         11   -1    0    0    0    0 -0.00000000000E+00 -0.00000000000E+00 -0.45593999997E+02  0.45594000000E+02  0.51100000000E-03 0. -1.
         23    2    1    2    0    0  0.35527136788E-14  0.17763568394E-14  0.00000000000E+00  0.91188000000E+02  0.91188000000E+02 0.  0.
    9900012    2    3    3    0    0  0.13100926095E+02  0.10012303876E+02  0.32922636247E+02  0.54367075638E+02  0.39999980532E+02 0.  0.
         12    1    3    3    0    0 -0.13100926095E+02 -0.10012303876E+02 -0.32922636247E+02  0.36820924362E+02  0.00000000000E+00 0. -1.
         11    1    4    4    0    0  0.27532675907E+01 -0.96167467169E+01  0.28247384397E+00  0.10007102057E+02  0.51100000000E-03 0. -1.
        -11    1    4    4    0    0 -0.12938145505E+01  0.68617169077E+01  0.24091144665E+02  0.25082670642E+02  0.51100000000E-03 0.  1.
         12    1    4    4    0    0  0.11641473055E+02  0.12767333685E+02  0.85490177376E+01  0.19277302939E+02  0.00000000000E+00 0. -1.
</event>
<event>
 8    1  0.2516265E-006  0.9118800E+02  0.7816164E-02  0.1184000E+00
        -11   -1    0    0    0    0  0.00000000000E+00  0.00000000000E+00  0.45593999997E+02  0.45594000000E+02  0.51100000000E-03 0. -1.
         11   -1    0    0    0    0 -0.00000000000E+00 -0.00000000000E+00 -0.45593999997E+02  0.45594000000E+02  0.51100000000E-03 0.  1.
         23    2    1    2    0    0  0.00000000000E+00 -0.88817841970E-15  0.00000000000E+00  0.91188000000E+02  0.91188000000E+02 0.  0.
    9900012    2    3    3    0    0 -0.24633437806E+02 -0.52306979742E+01 -0.26862844801E+02  0.54367097102E+02  0.40000029462E+02 0.  0.
         12    1    3    3    0    0  0.24633437806E+02  0.52306979742E+01  0.26862844801E+02  0.36820902898E+02  0.00000000000E+00 0. -1.
         11    1    4    4    0    0  0.63251473379E+01 -0.66225451204E+01 -0.16714909158E+02  0.19059217748E+02  0.51100000000E-03 0. -1.
        -11    1    4    4    0    0 -0.14057541692E+02  0.35299485024E+01  0.16472676220E+01  0.14587272045E+02  0.51100000000E-03 0.  1.
        -12    1    4    4    0    0 -0.16901043452E+02 -0.21381013561E+01 -0.11795203265E+02  0.20720607309E+02  0.00000000000E+00 0.  1.
</event>
<event>
 8    1  0.2516265E-006  0.9118800E+02  0.7816164E-02  0.1184000E+00
        -11   -1    0    0    0    0  0.00000000000E+00  0.00000000000E+00  0.45593999997E+02  0.45594000000E+02  0.51100000000E-03 0.  1.
         11   -1    0    0    0    0 -0.00000000000E+00 -0.00000000000E+00 -0.45593999997E+02  0.45594000000E+02  0.51100000000E-03 0. -1.
         23    2    1    2    0    0 -0.35527136788E-14  0.00000000000E+00  0.00000000000E+00  0.91188000000E+02  0.91188000000E+02 0.  0.
    9900012    2    3    3    0    0 -0.23925208632E+02 -0.18862022596E+02  0.20678217735E+02  0.54367079408E+02  0.39999989127E+02 0.  0.
         12    1    3    3    0    0  0.23925208632E+02  0.18862022596E+02 -0.20678217735E+02  0.36820920592E+02  0.00000000000E+00 0. -1.
         11    1    4    4    0    0 -0.43478746812E+01 -0.75770087099E+01 -0.90893659644E+01  0.12606809633E+02  0.51100000000E-03 0. -1.
        -11    1    4    4    0    0 -0.11024977869E+02 -0.82942346383E+01  0.38781174453E+01  0.14331233737E+02  0.51100000000E-03 0.  1.
         12    1    4    4    0    0 -0.85523560824E+01 -0.29907792479E+01  0.25889466254E+02  0.27429036038E+02  0.00000000000E+00 0. -1.
</event>
<event>
 8    1  0.2516265E-006  0.9118800E+02  0.7816164E-02  0.1184000E+00
        -11   -1    0    0    0    0  0.00000000000E+00  0.00000000000E+00  0.45593999997E+02  0.45594000000E+02  0.51100000000E-03 0.  1.
         11   -1    0    0    0    0 -0.00000000000E+00 -0.00000000000E+00 -0.45593999997E+02  0.45594000000E+02  0.51100000000E-03 0. -1.
         23    2    1    2    0    0 -0.35527136788E-14 -0.35527136788E-14  0.35527136788E-14  0.91188000000E+02  0.91188000000E+02 0.  0.
    9900012    2    3    3    0    0  0.17044632437E+02 -0.23737785564E+02  0.22400414372E+02  0.54367074938E+02  0.39999978937E+02 0.  0.
         12    1    3    3    0    0 -0.17044632437E+02  0.23737785564E+02 -0.22400414372E+02  0.36820925062E+02  0.00000000000E+00 0. -1.
         11    1    4    4    0    0 -0.37115372299E+01 -0.47867372178E+01  0.15111964098E+01  0.62427619409E+01  0.51100000000E-03 0. -1.
        -11    1    4    4    0    0 -0.73664356486E+01  0.42515255921E+00 -0.11660323084E+01  0.74702583937E+01  0.51100000000E-03 0.  1.
        -12    1    4    4    0    0  0.28122605315E+02 -0.19376200905E+02  0.22055250271E+02  0.40654054604E+02  0.00000000000E+00 0.  1.
</event>
<event>
 8    1  0.2516265E-006  0.9118800E+02  0.7816164E-02  0.1184000E+00
        -11   -1    0    0    0    0  0.00000000000E+00  0.00000000000E+00  0.45593999997E+02  0.45594000000E+02  0.51100000000E-03 0. -1.
         11   -1    0    0    0    0 -0.00000000000E+00 -0.00000000000E+00 -0.45593999997E+02  0.45594000000E+02  0.51100000000E-03 0.  1.
         23    2    1    2    0    0 -0.35527136788E-14  0.00000000000E+00 -0.35527136788E-14  0.91188000000E+02  0.91188000000E+02 0.  0.
    9900012    2    3    3    0    0 -0.16161685584E+02 -0.11956971428E+02 -0.30848179273E+02  0.54367090028E+02  0.40000013338E+02 0.  0.
        -12    1    3    3    0    0  0.16161685584E+02  0.11956971428E+02  0.30848179273E+02  0.36820909972E+02  0.00000000000E+00 0.  1.
         11    1    4    4    0    0 -0.13324906465E+02  0.16843543190E+01 -0.80065238940E+01  0.15636323317E+02  0.51100000000E-03 0. -1.
        -11    1    4    4    0    0 -0.29614830101E+00 -0.77634830441E+01  0.56001006966E+01  0.95770820642E+01  0.51100000000E-03 0.  1.
        -12    1    4    4    0    0 -0.25406308189E+01 -0.58778427025E+01 -0.28441756076E+02  0.29153684647E+02  0.00000000000E+00 0.  1.
</event>
<event>
 8    1  0.2516265E-006  0.9118800E+02  0.7816164E-02  0.1184000E+00
        -11   -1    0    0    0    0  0.00000000000E+00  0.00000000000E+00  0.45593999997E+02  0.45594000000E+02  0.51100000000E-03 0. -1.
         11   -1    0    0    0    0 -0.00000000000E+00 -0.00000000000E+00 -0.45593999997E+02  0.45594000000E+02  0.51100000000E-03 0.  1.
         23    2    1    2    0    0  0.00000000000E+00  0.17763568394E-14 -0.35527136788E-14  0.91188000000E+02  0.91188000000E+02 0.  0.
    9900012    2    3    3    0    0 -0.24888090531E+02  0.15104768043E+02 -0.22543115612E+02  0.54367311123E+02  0.40000517363E+02 0.  0.
         12    1    3    3    0    0  0.24888090531E+02 -0.15104768043E+02  0.22543115612E+02  0.36820688877E+02  0.00000000000E+00 0. -1.
         11    1    4    4    0    0 -0.21311737731E+02  0.34672277477E+01 -0.19385556048E+02  0.29017436429E+02  0.51100000000E-03 0. -1.
        -11    1    4    4    0    0 -0.91330530232E+01  0.12319590709E+02 -0.85658211948E+01  0.17565826647E+02  0.51100000000E-03 0.  1.
        -12    1    4    4    0    0  0.55567002230E+01 -0.68205041413E+00  0.54082616308E+01  0.77840480473E+01  0.00000000000E+00 0.  1.
</event>
<event>
 8    1  0.2516265E-006  0.9118800E+02  0.7816164E-02  0.1184000E+00
        -11   -1    0    0    0    0  0.00000000000E+00  0.00000000000E+00  0.45593999997E+02  0.45594000000E+02  0.51100000000E-03 0.  1.
         11   -1    0    0    0    0 -0.00000000000E+00 -0.00000000000E+00 -0.45593999997E+02  0.45594000000E+02  0.51100000000E-03 0. -1.
         23    2    1    2    0    0  0.00000000000E+00  0.00000000000E+00  0.00000000000E+00  0.91188000000E+02  0.91188000000E+02 0.  0.
    9900012    2    3    3    0    0 -0.87658107950E+01  0.34351280653E+02  0.99463226514E+01  0.54367092139E+02  0.40000018149E+02 0.  0.
         12    1    3    3    0    0  0.87658107950E+01 -0.34351280653E+02 -0.99463226514E+01  0.36820907861E+02  0.00000000000E+00 0. -1.
         11    1    4    4    0    0  0.56275981535E+01  0.77675205554E+01  0.40214014555E+01  0.10400764707E+02  0.51100000000E-03 0. -1.
        -11    1    4    4    0    0 -0.18867944711E+02  0.15103988097E+02  0.15194081124E+02  0.28548027874E+02  0.51100000000E-03 0.  1.
        -12    1    4    4    0    0  0.44745357628E+01  0.11479772001E+02 -0.92691599278E+01  0.15418299558E+02  0.00000000000E+00 0.  1.
</event>
<event>
 8    1  0.2516265E-006  0.9118800E+02  0.7816164E-02  0.1184000E+00
        -11   -1    0    0    0    0  0.00000000000E+00  0.00000000000E+00  0.45593999997E+02  0.45594000000E+02  0.51100000000E-03 0.  1.
         11   -1    0    0    0    0 -0.00000000000E+00 -0.00000000000E+00 -0.45593999997E+02  0.45594000000E+02  0.51100000000E-03 0. -1.
         23    2    1    2    0    0  0.00000000000E+00  0.00000000000E+00  0.00000000000E+00  0.91188000000E+02  0.91188000000E+02 0.  0.
    9900012    2    3    3    0    0 -0.35922642200E+02  0.75833978532E+01  0.27996005762E+01  0.54367056109E+02  0.39999936011E+02 0.  0.
         12    1    3    3    0    0  0.35922642200E+02 -0.75833978532E+01 -0.27996005762E+01  0.36820943891E+02  0.00000000000E+00 0. -1.
         11    1    4    4    0    0 -0.12437544637E+02 -0.12287583065E+02  0.40174557681E+01  0.17939263231E+02  0.51100000000E-03 0. -1.
        -11    1    4    4    0    0 -0.97652574467E+01 -0.21010242656E+01  0.23990346219E+01  0.10272775834E+02  0.51100000000E-03 0.  1.
        -12    1    4    4    0    0 -0.13719840117E+02  0.21972005183E+02 -0.36168898138E+01  0.26155017043E+02  0.00000000000E+00 0.  1.
</event>
<event>
 8    1  0.2516265E-006  0.9118800E+02  0.7816164E-02  0.1184000E+00
        -11   -1    0    0    0    0  0.00000000000E+00  0.00000000000E+00  0.45593999997E+02  0.45594000000E+02  0.51100000000E-03 0. -1.
         11   -1    0    0    0    0 -0.00000000000E+00 -0.00000000000E+00 -0.45593999997E+02  0.45594000000E+02  0.51100000000E-03 0.  1.
         23    2    1    2    0    0  0.00000000000E+00  0.35527136788E-14  0.00000000000E+00  0.91188000000E+02  0.91188000000E+02 0.  0.
    9900012    2    3    3    0    0  0.17630151821E+02 -0.20735985376E+02  0.24798723773E+02  0.54367081441E+02  0.39999993762E+02 0.  0.
        -12    1    3    3    0    0 -0.17630151821E+02  0.20735985376E+02 -0.24798723773E+02  0.36820918559E+02  0.00000000000E+00 0.  1.
         11    1    4    4    0    0  0.49928881683E+00 -0.46258075167E+01  0.12040503109E+02  0.12908179573E+02  0.51100000000E-03 0. -1.
        -11    1    4    4    0    0  0.59239301370E+01 -0.27316704232E+01  0.21121737471E+02  0.22106170307E+02  0.51100000000E-03 0.  1.
        -12    1    4    4    0    0  0.11206932867E+02 -0.13378507436E+02 -0.83635168078E+01  0.19352731562E+02  0.00000000000E+00 0.  1.
</event>
<event>
 8    1  0.2516265E-006  0.9118800E+02  0.7816164E-02  0.1184000E+00
        -11   -1    0    0    0    0  0.00000000000E+00  0.00000000000E+00  0.45593999997E+02  0.45594000000E+02  0.51100000000E-03 0.  1.
         11   -1    0    0    0    0 -0.00000000000E+00 -0.00000000000E+00 -0.45593999997E+02  0.45594000000E+02  0.51100000000E-03 0. -1.
         23    2    1    2    0    0  0.17763568394E-14 -0.35527136788E-14  0.00000000000E+00  0.91188000000E+02  0.91188000000E+02 0.  0.
    9900012    2    3    3    0    0 -0.12380110320E+02  0.17469400165E+02 -0.29955524763E+02  0.54367074733E+02  0.39999978470E+02 0.  0.
        -12    1    3    3    0    0  0.12380110320E+02 -0.17469400165E+02  0.29955524763E+02  0.36820925267E+02  0.00000000000E+00 0.  1.
         11    1    4    4    0    0  0.39689880865E+01  0.53691784785E+01 -0.24295408385E+02  0.25196186474E+02  0.51100000000E-03 0. -1.
        -11    1    4    4    0    0 -0.64448123429E+01  0.10651046723E+02 -0.12025399696E+02  0.17308686852E+02  0.51100000000E-03 0.  1.
         12    1    4    4    0    0 -0.99042860639E+01  0.14491749635E+01  0.63652833181E+01  0.11862201407E+02  0.00000000000E+00 0. -1.
</event>
<event>
 8    1  0.2516265E-006  0.9118800E+02  0.7816164E-02  0.1184000E+00
        -11   -1    0    0    0    0  0.00000000000E+00  0.00000000000E+00  0.45593999997E+02  0.45594000000E+02  0.51100000000E-03 0.  1.
         11   -1    0    0    0    0 -0.00000000000E+00 -0.00000000000E+00 -0.45593999997E+02  0.45594000000E+02  0.51100000000E-03 0. -1.
         23    2    1    2    0    0 -0.35527136788E-14  0.00000000000E+00  0.17763568394E-14  0.91188000000E+02  0.91188000000E+02 0.  0.
    9900012    2    3    3    0    0  0.29328013890E+02 -0.20213895321E+02 -0.93297780929E+01  0.54367099385E+02  0.40000034669E+02 0.  0.
        -12    1    3    3    0    0 -0.29328013890E+02  0.20213895321E+02  0.93297780929E+01  0.36820900615E+02  0.00000000000E+00 0.  1.
         11    1    4    4    0    0  0.62961561479E+01  0.41648460024E+01 -0.12255104220E+02  0.14393578574E+02  0.51100000000E-03 0. -1.
        -11    1    4    4    0    0 -0.26171476764E+01 -0.81807774174E+01 -0.29355264772E+01  0.90769982413E+01  0.51100000000E-03 0.  1.
        -12    1    4    4    0    0  0.25649005419E+02 -0.16197963906E+02  0.58608526043E+01  0.30896522570E+02  0.00000000000E+00 0.  1.
</event>
<event>
 8    1  0.2516265E-006  0.9118800E+02  0.7816164E-02  0.1184000E+00
        -11   -1    0    0    0    0  0.00000000000E+00  0.00000000000E+00  0.45593999997E+02  0.45594000000E+02  0.51100000000E-03 0.  1.
         11   -1    0    0    0    0 -0.00000000000E+00 -0.00000000000E+00 -0.45593999997E+02  0.45594000000E+02  0.51100000000E-03 0. -1.
         23    2    1    2    0    0  0.00000000000E+00  0.35527136788E-14  0.00000000000E+00  0.91188000000E+02  0.91188000000E+02 0.  0.
    9900012    2    3    3    0    0  0.15710194080E+02 -0.26975096827E+02  0.19527211007E+02  0.54367108966E+02  0.40000056509E+02 0.  0.
         12    1    3    3    0    0 -0.15710194080E+02  0.26975096827E+02 -0.19527211007E+02  0.36820891034E+02  0.00000000000E+00 0. -1.
         11    1    4    4    0    0  0.72402235926E+01 -0.30023930491E+01 -0.94189927585E+01  0.12253678082E+02  0.51100000000E-03 0. -1.
        -11    1    4    4    0    0  0.10359965095E+02 -0.56097072185E+01  0.82612520985E+01  0.14389092339E+02  0.51100000000E-03 0.  1.
        -12    1    4    4    0    0 -0.18899946076E+01 -0.18362996559E+02  0.20684951667E+02  0.27724338545E+02  0.00000000000E+00 0.  1.
</event>
<event>
 8    1  0.2516265E-006  0.9118800E+02  0.7816164E-02  0.1184000E+00
        -11   -1    0    0    0    0  0.00000000000E+00  0.00000000000E+00  0.45593999997E+02  0.45594000000E+02  0.51100000000E-03 0. -1.
         11   -1    0    0    0    0 -0.00000000000E+00 -0.00000000000E+00 -0.45593999997E+02  0.45594000000E+02  0.51100000000E-03 0.  1.
         23    2    1    2    0    0 -0.35527136788E-14  0.35527136788E-14  0.22204460493E-14  0.91188000000E+02  0.91188000000E+02 0.  0.
    9900012    2    3    3    0    0  0.25758586176E+02 -0.26117418832E+02 -0.31867395709E+01  0.54367086957E+02  0.40000006335E+02 0.  0.
         12    1    3    3    0    0 -0.25758586176E+02  0.26117418832E+02  0.31867395709E+01  0.36820913043E+02  0.00000000000E+00 0. -1.
         11    1    4    4    0    0  0.60014591848E+01  0.85222551193E+00  0.86864916880E+01  0.10592400048E+02  0.51100000000E-03 0. -1.
        -11    1    4    4    0    0  0.10311374655E+02 -0.22427396691E+01  0.57089105617E+01  0.11997749313E+02  0.51100000000E-03 0.  1.
         12    1    4    4    0    0  0.94457523363E+01 -0.24726904675E+02 -0.17582141821E+02  0.31776937596E+02  0.00000000000E+00 0. -1.
</event>
<event>
 8    1  0.2516265E-006  0.9118800E+02  0.7816164E-02  0.1184000E+00
        -11   -1    0    0    0    0  0.00000000000E+00  0.00000000000E+00  0.45593999997E+02  0.45594000000E+02  0.51100000000E-03 0.  1.
         11   -1    0    0    0    0 -0.00000000000E+00 -0.00000000000E+00 -0.45593999997E+02  0.45594000000E+02  0.51100000000E-03 0. -1.
         23    2    1    2    0    0  0.17763568394E-14  0.88817841970E-15 -0.71054273576E-14  0.91188000000E+02  0.91188000000E+02 0.  0.
    9900012    2    3    3    0    0 -0.31997483373E+01 -0.48001059052E+01  0.36366195240E+02  0.54367087975E+02  0.40000008656E+02 0.  0.
         12    1    3    3    0    0  0.31997483373E+01  0.48001059052E+01 -0.36366195240E+02  0.36820912025E+02  0.00000000000E+00 0. -1.
         11    1    4    4    0    0  0.12315466340E+01 -0.57986530502E+01 -0.30737409706E+01  0.66774971452E+01  0.51100000000E-03 0. -1.
        -11    1    4    4    0    0  0.79623557959E+01 -0.29518729084E+00  0.19781623547E+01  0.82097120485E+01  0.51100000000E-03 0.  1.
        -12    1    4    4    0    0 -0.12393650767E+02  0.12937344359E+01  0.37461773856E+02  0.39479878781E+02  0.00000000000E+00 0.  1.
</event>
<event>
 8    1  0.2516265E-006  0.9118800E+02  0.7816164E-02  0.1184000E+00
        -11   -1    0    0    0    0  0.00000000000E+00  0.00000000000E+00  0.45593999997E+02  0.45594000000E+02  0.51100000000E-03 0.  1.
         11   -1    0    0    0    0 -0.00000000000E+00 -0.00000000000E+00 -0.45593999997E+02  0.45594000000E+02  0.51100000000E-03 0. -1.
         23    2    1    2    0    0 -0.35527136788E-14  0.00000000000E+00  0.00000000000E+00  0.91188000000E+02  0.91188000000E+02 0.  0.
    9900012    2    3    3    0    0  0.16016551020E+02 -0.27998267268E+02  0.17758145411E+02  0.54367019499E+02  0.39999852552E+02 0.  0.
        -12    1    3    3    0    0 -0.16016551020E+02  0.27998267268E+02 -0.17758145411E+02  0.36820980501E+02  0.00000000000E+00 0.  1.
         11    1    4    4    0    0  0.11689422609E+02 -0.10568455172E+02  0.17236042957E+02  0.23354143588E+02  0.51100000000E-03 0. -1.
        -11    1    4    4    0    0  0.79168800167E+01  0.39157425189E+01  0.27566968550E+01  0.92525351382E+01  0.51100000000E-03 0.  1.
         12    1    4    4    0    0 -0.35897516061E+01 -0.21345554616E+02 -0.22345944007E+01  0.21760340773E+02  0.00000000000E+00 0. -1.
</event>
<event>
 8    1  0.2516265E-006  0.9118800E+02  0.7816164E-02  0.1184000E+00
        -11   -1    0    0    0    0  0.00000000000E+00  0.00000000000E+00  0.45593999997E+02  0.45594000000E+02  0.51100000000E-03 0. -1.
         11   -1    0    0    0    0 -0.00000000000E+00 -0.00000000000E+00 -0.45593999997E+02  0.45594000000E+02  0.51100000000E-03 0.  1.
         23    2    1    2    0    0  0.35527136788E-14  0.00000000000E+00  0.17763568394E-14  0.91188000000E+02  0.91188000000E+02 0.  0.
    9900012    2    3    3    0    0 -0.26520733282E+02  0.24225399402E+02 -0.80968971279E+01  0.54367095433E+02  0.40000025659E+02 0.  0.
         12    1    3    3    0    0  0.26520733282E+02 -0.24225399402E+02  0.80968971279E+01  0.36820904567E+02  0.00000000000E+00 0. -1.
         11    1    4    4    0    0 -0.21623232218E+02  0.87097343163E+01  0.12966070396E+02  0.26674756329E+02  0.51100000000E-03 0. -1.
        -11    1    4    4    0    0  0.14556836177E+01  0.13363012390E+01 -0.73942177823E+00  0.21098484835E+01  0.51100000000E-03 0.  1.
         12    1    4    4    0    0 -0.63531846817E+01  0.14179363847E+02 -0.20323545745E+02  0.25582490621E+02  0.00000000000E+00 0. -1.
</event>
<event>
 8    1  0.2516265E-006  0.9118800E+02  0.7816164E-02  0.1184000E+00
        -11   -1    0    0    0    0  0.00000000000E+00  0.00000000000E+00  0.45593999997E+02  0.45594000000E+02  0.51100000000E-03 0.  1.
         11   -1    0    0    0    0 -0.00000000000E+00 -0.00000000000E+00 -0.45593999997E+02  0.45594000000E+02  0.51100000000E-03 0. -1.
         23    2    1    2    0    0  0.00000000000E+00  0.00000000000E+00  0.00000000000E+00  0.91188000000E+02  0.91188000000E+02 0.  0.
    9900012    2    3    3    0    0  0.94885917081E+01  0.35199010342E+02  0.51745536635E+01  0.54367086007E+02  0.40000004171E+02 0.  0.
         12    1    3    3    0    0 -0.94885917081E+01 -0.35199010342E+02 -0.51745536635E+01  0.36820913993E+02  0.00000000000E+00 0. -1.
         11    1    4    4    0    0 -0.46210805368E+01  0.65348769132E+01  0.53398565276E+01  0.96214899883E+01  0.51100000000E-03 0. -1.
        -11    1    4    4    0    0 -0.46855327811E+01  0.25179899478E+02  0.52834875218E+00  0.25617585909E+02  0.51100000000E-03 0.  1.
         12    1    4    4    0    0  0.18795205026E+02  0.34842339511E+01 -0.69365161629E+00  0.19128010110E+02  0.00000000000E+00 0. -1.
</event>
<event>
 8    1  0.2516265E-006  0.9118800E+02  0.7816164E-02  0.1184000E+00
        -11   -1    0    0    0    0  0.00000000000E+00  0.00000000000E+00  0.45593999997E+02  0.45594000000E+02  0.51100000000E-03 0.  1.
         11   -1    0    0    0    0 -0.00000000000E+00 -0.00000000000E+00 -0.45593999997E+02  0.45594000000E+02  0.51100000000E-03 0. -1.
         23    2    1    2    0    0 -0.35527136788E-14 -0.35527136788E-14  0.17763568394E-14  0.91188000000E+02  0.91188000000E+02 0.  0.
    9900012    2    3    3    0    0 -0.30751128619E+02  0.19347603870E+02 -0.59848320912E+01  0.54367083362E+02  0.39999998141E+02 0.  0.
        -12    1    3    3    0    0  0.30751128619E+02 -0.19347603870E+02  0.59848320912E+01  0.36820916638E+02  0.00000000000E+00 0.  1.
         11    1    4    4    0    0 -0.14133430202E+02 -0.19387862236E+01 -0.12139220762E+02  0.18731615581E+02  0.51100000000E-03 0. -1.
        -11    1    4    4    0    0 -0.17609832856E+02  0.17120714522E+02 -0.37497489614E+01  0.24845234885E+02  0.51100000000E-03 0.  1.
         12    1    4    4    0    0  0.99213443857E+00  0.41656755720E+01  0.99041376325E+01  0.10790232896E+02  0.00000000000E+00 0. -1.
</event>
<event>
 8    1  0.2516265E-006  0.9118800E+02  0.7816164E-02  0.1184000E+00
        -11   -1    0    0    0    0  0.00000000000E+00  0.00000000000E+00  0.45593999997E+02  0.45594000000E+02  0.51100000000E-03 0.  1.
         11   -1    0    0    0    0 -0.00000000000E+00 -0.00000000000E+00 -0.45593999997E+02  0.45594000000E+02  0.51100000000E-03 0. -1.
         23    2    1    2    0    0  0.00000000000E+00  0.44408920985E-15  0.00000000000E+00  0.91188000000E+02  0.91188000000E+02 0.  0.
    9900012    2    3    3    0    0  0.15765856084E+02 -0.20018799940E+01  0.33214615839E+02  0.54367075964E+02  0.39999981274E+02 0.  0.
         12    1    3    3    0    0 -0.15765856084E+02  0.20018799940E+01 -0.33214615839E+02  0.36820924036E+02  0.00000000000E+00 0. -1.
         11    1    4    4    0    0  0.55101392653E+01 -0.59927912447E+01  0.47469084635E+01  0.94238167347E+01  0.51100000000E-03 0. -1.
        -11    1    4    4    0    0  0.56241167464E+01  0.66637834995E+00  0.35466720242E+02  0.35916054826E+02  0.51100000000E-03 0.  1.
         12    1    4    4    0    0  0.46316000718E+01  0.33245329008E+01 -0.69990128661E+01  0.90272044030E+01  0.00000000000E+00 0. -1.
</event>
<event>
 8    1  0.2516265E-006  0.9118800E+02  0.7816164E-02  0.1184000E+00
        -11   -1    0    0    0    0  0.00000000000E+00  0.00000000000E+00  0.45593999997E+02  0.45594000000E+02  0.51100000000E-03 0. -1.
         11   -1    0    0    0    0 -0.00000000000E+00 -0.00000000000E+00 -0.45593999997E+02  0.45594000000E+02  0.51100000000E-03 0.  1.
         23    2    1    2    0    0  0.00000000000E+00  0.00000000000E+00  0.00000000000E+00  0.91188000000E+02  0.91188000000E+02 0.  0.
    9900012    2    3    3    0    0 -0.15091153061E+02  0.57665421045E+01  0.33087521458E+02  0.54367082238E+02  0.39999995579E+02 0.  0.
        -12    1    3    3    0    0  0.15091153061E+02 -0.57665421045E+01 -0.33087521458E+02  0.36820917762E+02  0.00000000000E+00 0.  1.
         11    1    4    4    0    0  0.53250849119E+01 -0.45251444921E+01  0.24107968409E+02  0.25100350656E+02  0.51100000000E-03 0. -1.
        -11    1    4    4    0    0 -0.52550008524E+00 -0.97148799502E-01 -0.35333271264E+01  0.35735121480E+01  0.51100000000E-03 0.  1.
        -12    1    4    4    0    0 -0.19890737888E+02  0.10388835396E+02  0.12512880176E+02  0.25693219435E+02  0.00000000000E+00 0.  1.
</event>
