<event>
 8    1  0.2401501E-006  0.9118800E+02  0.7816164E-02  0.1184000E+00
        -11   -1    0    0    0    0  0.00000000000E+00  0.00000000000E+00  0.45593999997E+02  0.45594000000E+02  0.51100000000E-03 0.  1.
         11   -1    0    0    0    0 -0.00000000000E+00 -0.00000000000E+00 -0.45593999997E+02  0.45594000000E+02  0.51100000000E-03 0. -1.
         23    2    1    2    0    0  0.00000000000E+00  0.00000000000E+00 -0.17763568394E-14  0.91188000000E+02  0.91188000000E+02 0.  0.
    9900012    2    3    3    0    0 -0.32609217383E+02  0.86094710041E+01  0.14774825864E+02  0.54367088433E+02  0.40000009702E+02 0.  0.
         12    1    3    3    0    0  0.32609217383E+02 -0.86094710041E+01 -0.14774825864E+02  0.36820911567E+02  0.00000000000E+00 0. -1.
         11    1    4    4    0    0 -0.13826251116E+02  0.14410498621E+02 -0.19102659364E+01  0.20061824609E+02  0.51100000000E-03 0. -1.
        -11    1    4    4    0    0 -0.52623948653E+01  0.74195473643E+01  0.11566277115E+02  0.14714661035E+02  0.51100000000E-03 0.  1.
        -12    1    4    4    0    0 -0.13520571401E+02 -0.13220574982E+02  0.51188146848E+01  0.19590602789E+02  0.00000000000E+00 0.  1.
</event>
<event>
 8    1  0.2401501E-006  0.9118800E+02  0.7816164E-02  0.1184000E+00
        -11   -1    0    0    0    0  0.00000000000E+00  0.00000000000E+00  0.45593999997E+02  0.45594000000E+02  0.51100000000E-03 0.  1.
         11   -1    0    0    0    0 -0.00000000000E+00 -0.00000000000E+00 -0.45593999997E+02  0.45594000000E+02  0.51100000000E-03 0. -1.
         23    2    1    2    0    0 -0.35527136788E-14  0.00000000000E+00  0.00000000000E+00  0.91188000000E+02  0.91188000000E+02 0.  0.
    9900012    2    3    3    0    0  0.27661924727E+02 -0.89480500486E+01  0.22594938761E+02  0.54367069310E+02  0.39999966105E+02 0.  0.
         12    1    3    3    0    0 -0.27661924727E+02  0.89480500486E+01 -0.22594938761E+02  0.36820930690E+02  0.00000000000E+00 0. -1.
         11    1    4    4    0    0 -0.27815541233E+01  0.47109713871E+01  0.11536734634E+01  0.55911767520E+01  0.51100000000E-03 0. -1.
        -11    1    4    4    0    0  0.14966862172E+02 -0.51162675334E+01 -0.53331120786E+01  0.16692071215E+02  0.51100000000E-03 0.  1.
        -12    1    4    4    0    0  0.15476616678E+02 -0.85427539022E+01  0.26774377376E+02  0.32083821342E+02  0.00000000000E+00 0.  1.
</event>
<event>
 8    1  0.2401501E-006  0.9118800E+02  0.7816164E-02  0.1184000E+00
        -11   -1    0    0    0    0  0.00000000000E+00  0.00000000000E+00  0.45593999997E+02  0.45594000000E+02  0.51100000000E-03 0. -1.
         11   -1    0    0    0    0 -0.00000000000E+00 -0.00000000000E+00 -0.45593999997E+02  0.45594000000E+02  0.51100000000E-03 0.  1.
         23    2    1    2    0    0  0.00000000000E+00  0.35527136788E-14  0.00000000000E+00  0.91188000000E+02  0.91188000000E+02 0.  0.
    9900012    2    3    3    0    0  0.16301912648E+02  0.23293494531E+02  0.23397546257E+02  0.54367022090E+02  0.39999858457E+02 0.  0.
        -12    1    3    3    0    0 -0.16301912648E+02 -0.23293494531E+02 -0.23397546257E+02  0.36820977910E+02  0.00000000000E+00 0.  1.
         11    1    4    4    0    0  0.20583257967E+02  0.21840454777E+02  0.91173329266E+01  0.31365613869E+02  0.51100000000E-03 0. -1.
        -11    1    4    4    0    0  0.41980349957E+01 -0.18918357873E+01  0.13006575194E+02  0.13797591783E+02  0.51100000000E-03 0.  1.
         12    1    4    4    0    0 -0.84793803152E+01  0.33448755412E+01  0.12736381360E+01  0.92038164376E+01  0.00000000000E+00 0. -1.
</event>
<event>
 8    1  0.2401501E-006  0.9118800E+02  0.7816164E-02  0.1184000E+00
        -11   -1    0    0    0    0  0.00000000000E+00  0.00000000000E+00  0.45593999997E+02  0.45594000000E+02  0.51100000000E-03 0.  1.
         11   -1    0    0    0    0 -0.00000000000E+00 -0.00000000000E+00 -0.45593999997E+02  0.45594000000E+02  0.51100000000E-03 0. -1.
         23    2    1    2    0    0  0.00000000000E+00  0.35527136788E-14  0.00000000000E+00  0.91188000000E+02  0.91188000000E+02 0.  0.
    9900012    2    3    3    0    0 -0.19708808090E+02  0.26474695516E+02 -0.16322778643E+02  0.54367085812E+02  0.40000003726E+02 0.  0.
        -12    1    3    3    0    0  0.19708808090E+02 -0.26474695516E+02  0.16322778643E+02  0.36820914188E+02  0.00000000000E+00 0.  1.
         11    1    4    4    0    0 -0.52646128221E+01 -0.33502276135E+01  0.58592114917E-01  0.62404812736E+01  0.51100000000E-03 0. -1.
        -11    1    4    4    0    0 -0.17050102408E+02  0.35223499460E+02 -0.12954372189E+02  0.41221555834E+02  0.51100000000E-03 0.  1.
         12    1    4    4    0    0  0.26059071399E+01 -0.53985763304E+01 -0.34269985695E+01  0.69050487045E+01  0.00000000000E+00 0. -1.
</event>
<event>
 8    1  0.2401501E-006  0.9118800E+02  0.7816164E-02  0.1184000E+00
        -11   -1    0    0    0    0  0.00000000000E+00  0.00000000000E+00  0.45593999997E+02  0.45594000000E+02  0.51100000000E-03 0.  1.
         11   -1    0    0    0    0 -0.00000000000E+00 -0.00000000000E+00 -0.45593999997E+02  0.45594000000E+02  0.51100000000E-03 0. -1.
         23    2    1    2    0    0  0.00000000000E+00  0.35527136788E-14  0.00000000000E+00  0.91188000000E+02  0.91188000000E+02 0.  0.
    9900012    2    3    3    0    0 -0.42391081910E+01  0.30777714148E+02 -0.19762225719E+02  0.54367037332E+02  0.39999893206E+02 0.  0.
        -12    1    3    3    0    0  0.42391081910E+01 -0.30777714148E+02  0.19762225719E+02  0.36820962668E+02  0.00000000000E+00 0.  1.
         11    1    4    4    0    0  0.69396107477E+00  0.35825226582E+01 -0.13724000022E+02  0.14200853053E+02  0.51100000000E-03 0.  1.
        -11    1    4    4    0    0 -0.49697563204E+01  0.81087126448E+01 -0.16017563759E+02  0.18628259384E+02  0.51100000000E-03 0. -1.
         12    1    4    4    0    0  0.36687054623E-01  0.19086478845E+02  0.99793380621E+01  0.21537924895E+02  0.00000000000E+00 0. -1.
</event>
<event>
 8    1  0.2401501E-006  0.9118800E+02  0.7816164E-02  0.1184000E+00
        -11   -1    0    0    0    0  0.00000000000E+00  0.00000000000E+00  0.45593999997E+02  0.45594000000E+02  0.51100000000E-03 0.  1.
         11   -1    0    0    0    0 -0.00000000000E+00 -0.00000000000E+00 -0.45593999997E+02  0.45594000000E+02  0.51100000000E-03 0. -1.
         23    2    1    2    0    0  0.35527136788E-14  0.00000000000E+00 -0.17763568394E-14  0.91188000000E+02  0.91188000000E+02 0.  0.
    9900012    2    3    3    0    0  0.17739912380E+02  0.28237168430E+02  0.15612130251E+02  0.54367071397E+02  0.39999970864E+02 0.  0.
         12    1    3    3    0    0 -0.17739912380E+02 -0.28237168430E+02 -0.15612130251E+02  0.36820928603E+02  0.00000000000E+00 0. -1.
         11    1    4    4    0    0 -0.55975655240E+01 -0.69922190981E+00 -0.35178302928E+01  0.66480659822E+01  0.51100000000E-03 0. -1.
        -11    1    4    4    0    0  0.19638512673E+02  0.31661497378E+02  0.20988893362E+02  0.42762778687E+02  0.51100000000E-03 0.  1.
         12    1    4    4    0    0  0.36989652312E+01 -0.27251070377E+01 -0.18589328188E+01  0.49562267275E+01  0.00000000000E+00 0. -1.
</event>
<event>
 8    1  0.2401501E-006  0.9118800E+02  0.7816164E-02  0.1184000E+00
        -11   -1    0    0    0    0  0.00000000000E+00  0.00000000000E+00  0.45593999997E+02  0.45594000000E+02  0.51100000000E-03 0. -1.
         11   -1    0    0    0    0 -0.00000000000E+00 -0.00000000000E+00 -0.45593999997E+02  0.45594000000E+02  0.51100000000E-03 0.  1.
         23    2    1    2    0    0 -0.35527136788E-14  0.26645352591E-14  0.00000000000E+00  0.91188000000E+02  0.91188000000E+02 0.  0.
    9900012    2    3    3    0    0  0.27452632434E+02 -0.67688570824E+01 -0.23586310864E+02  0.54367102212E+02  0.40000041112E+02 0.  0.
         12    1    3    3    0    0 -0.27452632434E+02  0.67688570824E+01  0.23586310864E+02  0.36820897788E+02  0.00000000000E+00 0. -1.
         11    1    4    4    0    0 -0.72102515078E+00  0.19897270738E+01  0.20138093682E+01  0.29213557690E+01  0.51100000000E-03 0. -1.
        -11    1    4    4    0    0  0.10052562228E+02 -0.94128955577E+01 -0.29803992368E+02  0.32831913917E+02  0.51100000000E-03 0.  1.
         12    1    4    4    0    0  0.18121095357E+02  0.65431140151E+00  0.42038721361E+01  0.18613832525E+02  0.00000000000E+00 0. -1.
</event>
<event>
 8    1  0.2401501E-006  0.9118800E+02  0.7816164E-02  0.1184000E+00
        -11   -1    0    0    0    0  0.00000000000E+00  0.00000000000E+00  0.45593999997E+02  0.45594000000E+02  0.51100000000E-03 0.  1.
         11   -1    0    0    0    0 -0.00000000000E+00 -0.00000000000E+00 -0.45593999997E+02  0.45594000000E+02  0.51100000000E-03 0. -1.
         23    2    1    2    0    0 -0.88817841970E-15  0.71054273576E-14  0.00000000000E+00  0.91188000000E+02  0.91188000000E+02 0.  0.
    9900012    2    3    3    0    0  0.10982088570E+01  0.36381403816E+02 -0.55647984200E+01  0.54367087630E+02  0.40000007871E+02 0.  0.
        -12    1    3    3    0    0 -0.10982088570E+01 -0.36381403816E+02  0.55647984200E+01  0.36820912370E+02  0.00000000000E+00 0.  1.
         11    1    4    4    0    0  0.92182573704E+01  0.32616020039E+02  0.25628123161E+01  0.33990425701E+02  0.51100000000E-03 0.  1.
        -11    1    4    4    0    0 -0.95177395413E+01  0.74276965942E+01 -0.84066273885E+00  0.12102262465E+02  0.51100000000E-03 0. -1.
        -12    1    4    4    0    0  0.13976910279E+01 -0.36623128172E+01 -0.72869479972E+01  0.82743994643E+01  0.00000000000E+00 0.  1.
</event>
<event>
 8    1  0.2401501E-006  0.9118800E+02  0.7816164E-02  0.1184000E+00
        -11   -1    0    0    0    0  0.00000000000E+00  0.00000000000E+00  0.45593999997E+02  0.45594000000E+02  0.51100000000E-03 0. -1.
         11   -1    0    0    0    0 -0.00000000000E+00 -0.00000000000E+00 -0.45593999997E+02  0.45594000000E+02  0.51100000000E-03 0.  1.
         23    2    1    2    0    0  0.00000000000E+00 -0.35527136788E-14  0.00000000000E+00  0.91188000000E+02  0.91188000000E+02 0.  0.
    9900012    2    3    3    0    0  0.96167635236E+01 -0.26592490540E+02  0.23582545693E+02  0.54367093505E+02  0.40000021263E+02 0.  0.
        -12    1    3    3    0    0 -0.96167635236E+01  0.26592490540E+02 -0.23582545693E+02  0.36820906495E+02  0.00000000000E+00 0.  1.
         11    1    4    4    0    0 -0.42292625406E+01 -0.29461338077E+02  0.16684454239E+02  0.34120787161E+02  0.51100000000E-03 0. -1.
        -11    1    4    4    0    0  0.11636130900E+02  0.60199639414E+01  0.91609293549E+00  0.13133115956E+02  0.51100000000E-03 0.  1.
         12    1    4    4    0    0  0.22098951642E+01 -0.31511164039E+01  0.59819985184E+01  0.71131903884E+01  0.00000000000E+00 0. -1.
</event>
<event>
 8    1  0.2401501E-006  0.9118800E+02  0.7816164E-02  0.1184000E+00
        -11   -1    0    0    0    0  0.00000000000E+00  0.00000000000E+00  0.45593999997E+02  0.45594000000E+02  0.51100000000E-03 0. -1.
         11   -1    0    0    0    0 -0.00000000000E+00 -0.00000000000E+00 -0.45593999997E+02  0.45594000000E+02  0.51100000000E-03 0.  1.
         23    2    1    2    0    0  0.35527136788E-14 -0.71054273576E-14 -0.35527136788E-14  0.91188000000E+02  0.91188000000E+02 0.  0.
    9900012    2    3    3    0    0  0.18877304943E+02 -0.30259321022E+02 -0.91542937127E+01  0.54367078719E+02  0.39999987555E+02 0.  0.
        -12    1    3    3    0    0 -0.18877304943E+02  0.30259321022E+02  0.91542937127E+01  0.36820921281E+02  0.00000000000E+00 0.  1.
         11    1    4    4    0    0  0.12495169254E+01  0.41711187121E+01  0.67604639045E+01  0.80413553784E+01  0.51100000000E-03 0. -1.
        -11    1    4    4    0    0  0.22645471893E+01  0.94938844015E+00  0.25692973185E+01  0.35539838709E+01  0.51100000000E-03 0.  1.
        -12    1    4    4    0    0  0.15363240828E+02 -0.35379828174E+02 -0.18484054936E+02  0.42771739469E+02  0.00000000000E+00 0.  1.
</event>
<event>
 8    1  0.2401501E-006  0.9118800E+02  0.7816164E-02  0.1184000E+00
        -11   -1    0    0    0    0  0.00000000000E+00  0.00000000000E+00  0.45593999997E+02  0.45594000000E+02  0.51100000000E-03 0.  1.
         11   -1    0    0    0    0 -0.00000000000E+00 -0.00000000000E+00 -0.45593999997E+02  0.45594000000E+02  0.51100000000E-03 0. -1.
         23    2    1    2    0    0  0.11102230246E-15  0.00000000000E+00  0.00000000000E+00  0.91188000000E+02  0.91188000000E+02 0.  0.
    9900012    2    3    3    0    0  0.97995564977E+00 -0.36586997660E+02 -0.40265243207E+01  0.54367060184E+02  0.39999945301E+02 0.  0.
        -12    1    3    3    0    0 -0.97995564977E+00  0.36586997660E+02  0.40265243207E+01  0.36820939816E+02  0.00000000000E+00 0.  1.
         11    1    4    4    0    0 -0.13063791621E+01  0.66906582245E+01 -0.36883735726E+01  0.77508472998E+01  0.51100000000E-03 0. -1.
        -11    1    4    4    0    0  0.76695274276E+00  0.12536236880E+01 -0.14232189219E+01  0.20458106515E+01  0.51100000000E-03 0.  1.
         12    1    4    4    0    0  0.15193820691E+01 -0.44531279572E+02  0.10850681738E+01  0.44570402233E+02  0.00000000000E+00 0. -1.
</event>
<event>
 8    1  0.2401501E-006  0.9118800E+02  0.7816164E-02  0.1184000E+00
        -11   -1    0    0    0    0  0.00000000000E+00  0.00000000000E+00  0.45593999997E+02  0.45594000000E+02  0.51100000000E-03 0.  1.
         11   -1    0    0    0    0 -0.00000000000E+00 -0.00000000000E+00 -0.45593999997E+02  0.45594000000E+02  0.51100000000E-03 0. -1.
         23    2    1    2    0    0  0.00000000000E+00  0.35527136788E-14  0.00000000000E+00  0.91188000000E+02  0.91188000000E+02 0.  0.
    9900012    2    3    3    0    0 -0.86474234202E+01 -0.24830998593E+02 -0.25776404977E+02  0.54367089141E+02  0.40000011315E+02 0.  0.
        -12    1    3    3    0    0  0.86474234202E+01  0.24830998593E+02  0.25776404977E+02  0.36820910859E+02  0.00000000000E+00 0.  1.
         11    1    4    4    0    0 -0.21110176033E+01  0.44589104354E+01 -0.15612847333E+01  0.51745422863E+01  0.51100000000E-03 0. -1.
        -11    1    4    4    0    0 -0.51682093753E+01  0.56812742597E+01 -0.28701229045E+01  0.81990774548E+01  0.51100000000E-03 0.  1.
         12    1    4    4    0    0 -0.13681964416E+01 -0.34971183288E+02 -0.21344997339E+02  0.40993469400E+02  0.00000000000E+00 0. -1.
</event>
<event>
 8    1  0.2401501E-006  0.9118800E+02  0.7816164E-02  0.1184000E+00
        -11   -1    0    0    0    0  0.00000000000E+00  0.00000000000E+00  0.45593999997E+02  0.45594000000E+02  0.51100000000E-03 0.  1.
         11   -1    0    0    0    0 -0.00000000000E+00 -0.00000000000E+00 -0.45593999997E+02  0.45594000000E+02  0.51100000000E-03 0. -1.
         23    2    1    2    0    0  0.00000000000E+00 -0.22204460493E-15  0.35527136788E-14  0.91188000000E+02  0.91188000000E+02 0.  0.
    9900012    2    3    3    0    0  0.23174465157E+02  0.10721005420E+01 -0.28593262109E+02  0.54367083758E+02  0.39999999043E+02 0.  0.
        -12    1    3    3    0    0 -0.23174465157E+02 -0.10721005420E+01  0.28593262109E+02  0.36820916242E+02  0.00000000000E+00 0.  1.
         11    1    4    4    0    0  0.14412299593E+02  0.27301720299E+01 -0.19852071556E+02  0.24683455273E+02  0.51100000000E-03 0. -1.
        -11    1    4    4    0    0 -0.72733888414E+01  0.10842894072E+01  0.45746145719E+01  0.86605408318E+01  0.51100000000E-03 0.  1.
         12    1    4    4    0    0  0.16035554405E+02 -0.27423608951E+01 -0.13315805125E+02  0.21023087653E+02  0.00000000000E+00 0. -1.
</event>
<event>
 8    1  0.2401501E-006  0.9118800E+02  0.7816164E-02  0.1184000E+00
        -11   -1    0    0    0    0  0.00000000000E+00  0.00000000000E+00  0.45593999997E+02  0.45594000000E+02  0.51100000000E-03 0.  1.
         11   -1    0    0    0    0 -0.00000000000E+00 -0.00000000000E+00 -0.45593999997E+02  0.45594000000E+02  0.51100000000E-03 0. -1.
         23    2    1    2    0    0  0.17763568394E-14 -0.13322676296E-14  0.00000000000E+00  0.91188000000E+02  0.91188000000E+02 0.  0.
    9900012    2    3    3    0    0 -0.12368670020E+02  0.23559382771E+01 -0.34601228588E+02  0.54367089324E+02  0.40000011732E+02 0.  0.
        -12    1    3    3    0    0  0.12368670020E+02 -0.23559382771E+01  0.34601228588E+02  0.36820910676E+02  0.00000000000E+00 0.  1.
         11    1    4    4    0    0 -0.22905969829E+02  0.88248128784E+01 -0.94119547328E+01  0.26289649452E+02  0.51100000000E-03 0. -1.
        -11    1    4    4    0    0  0.43140927538E+01 -0.24221610852E+01 -0.90909908121E+01  0.10350090570E+02  0.51100000000E-03 0.  1.
         12    1    4    4    0    0  0.62232070550E+01 -0.40467135161E+01 -0.16098283043E+02  0.17727349302E+02  0.00000000000E+00 0. -1.
</event>
<event>
 8    1  0.2401501E-006  0.9118800E+02  0.7816164E-02  0.1184000E+00
        -11   -1    0    0    0    0  0.00000000000E+00  0.00000000000E+00  0.45593999997E+02  0.45594000000E+02  0.51100000000E-03 0.  1.
         11   -1    0    0    0    0 -0.00000000000E+00 -0.00000000000E+00 -0.45593999997E+02  0.45594000000E+02  0.51100000000E-03 0. -1.
         23    2    1    2    0    0  0.00000000000E+00  0.00000000000E+00  0.00000000000E+00  0.91188000000E+02  0.91188000000E+02 0.  0.
    9900012    2    3    3    0    0  0.25491966766E+02 -0.25143649094E+02 -0.85869480495E+01  0.54367093762E+02  0.40000021850E+02 0.  0.
        -12    1    3    3    0    0 -0.25491966766E+02  0.25143649094E+02  0.85869480495E+01  0.36820906238E+02  0.00000000000E+00 0.  1.
         11    1    4    4    0    0  0.33306627342E+01 -0.61396495776E+00 -0.64414142668E+01  0.72775054268E+01  0.51100000000E-03 0. -1.
        -11    1    4    4    0    0 -0.95286816299E+00 -0.21793649933E+02 -0.77474844097E+01  0.23149398482E+02  0.51100000000E-03 0.  1.
         12    1    4    4    0    0  0.23114172195E+02 -0.27360342033E+01  0.56019506270E+01  0.23940189854E+02  0.00000000000E+00 0. -1.
</event>
<event>
 8    1  0.2401501E-006  0.9118800E+02  0.7816164E-02  0.1184000E+00
        -11   -1    0    0    0    0  0.00000000000E+00  0.00000000000E+00  0.45593999997E+02  0.45594000000E+02  0.51100000000E-03 0. -1.
         11   -1    0    0    0    0 -0.00000000000E+00 -0.00000000000E+00 -0.45593999997E+02  0.45594000000E+02  0.51100000000E-03 0.  1.
         23    2    1    2    0    0  0.00000000000E+00  0.13322676296E-14  0.00000000000E+00  0.91188000000E+02  0.91188000000E+02 0.  0.
    9900012    2    3    3    0    0 -0.19535272671E+02 -0.16384477955E+01 -0.31168197187E+02  0.54367246268E+02  0.40000369515E+02 0.  0.
         12    1    3    3    0    0  0.19535272671E+02  0.16384477955E+01  0.31168197187E+02  0.36820753732E+02  0.00000000000E+00 0. -1.
         11    1    4    4    0    0 -0.55570012899E+01  0.10333393491E+02 -0.12463397041E+02  0.17117112795E+02  0.51100000000E-03 0. -1.
        -11    1    4    4    0    0 -0.18122079580E+02  0.55292315828E+00 -0.64489938027E+01  0.19243310880E+02  0.51100000000E-03 0.  1.
         12    1    4    4    0    0  0.41438081984E+01 -0.12524764444E+02 -0.12255806343E+02  0.18006822593E+02  0.00000000000E+00 0. -1.
</event>
<event>
 8    1  0.2401501E-006  0.9118800E+02  0.7816164E-02  0.1184000E+00
        -11   -1    0    0    0    0  0.00000000000E+00  0.00000000000E+00  0.45593999997E+02  0.45594000000E+02  0.51100000000E-03 0.  1.
         11   -1    0    0    0    0 -0.00000000000E+00 -0.00000000000E+00 -0.45593999997E+02  0.45594000000E+02  0.51100000000E-03 0. -1.
         23    2    1    2    0    0 -0.35527136788E-14  0.00000000000E+00  0.17763568394E-14  0.91188000000E+02  0.91188000000E+02 0.  0.
    9900012    2    3    3    0    0 -0.92583730279E+01 -0.32588034947E+02 -0.14425019470E+02  0.54367099963E+02  0.40000035985E+02 0.  0.
        -12    1    3    3    0    0  0.92583730279E+01  0.32588034947E+02  0.14425019470E+02  0.36820900037E+02  0.00000000000E+00 0.  1.
         11    1    4    4    0    0  0.12266316276E+02 -0.10419022564E+02  0.18868368977E+01  0.16204280296E+02  0.51100000000E-03 0. -1.
        -11    1    4    4    0    0 -0.26430446385E+01  0.57848307028E+00  0.20208465039E+01  0.33770028838E+01  0.51100000000E-03 0.  1.
         12    1    4    4    0    0 -0.18881644665E+02 -0.22747495454E+02 -0.18332702872E+02  0.34785816783E+02  0.00000000000E+00 0. -1.
</event>
<event>
 8    1  0.2401501E-006  0.9118800E+02  0.7816164E-02  0.1184000E+00
        -11   -1    0    0    0    0  0.00000000000E+00  0.00000000000E+00  0.45593999997E+02  0.45594000000E+02  0.51100000000E-03 0. -1.
         11   -1    0    0    0    0 -0.00000000000E+00 -0.00000000000E+00 -0.45593999997E+02  0.45594000000E+02  0.51100000000E-03 0.  1.
         23    2    1    2    0    0  0.71054273576E-14  0.00000000000E+00 -0.17763568394E-14  0.91188000000E+02  0.91188000000E+02 0.  0.
    9900012    2    3    3    0    0 -0.34009065867E+02 -0.83930097309E+01  0.11345453188E+02  0.54367102652E+02  0.40000042115E+02 0.  0.
        -12    1    3    3    0    0  0.34009065867E+02  0.83930097309E+01 -0.11345453188E+02  0.36820897348E+02  0.00000000000E+00 0.  1.
         11    1    4    4    0    0 -0.99919326774E+01  0.92523678919E+01  0.15424735030E+02  0.20575895636E+02  0.51100000000E-03 0.  1.
        -11    1    4    4    0    0  0.97849071347E+00 -0.46175358104E+01  0.17018004768E+01  0.50174900259E+01  0.51100000000E-03 0. -1.
         12    1    4    4    0    0 -0.24995623903E+02 -0.13027841812E+02 -0.57810823186E+01  0.28773716989E+02  0.00000000000E+00 0. -1.
</event>
<event>
 8    1  0.2401501E-006  0.9118800E+02  0.7816164E-02  0.1184000E+00
        -11   -1    0    0    0    0  0.00000000000E+00  0.00000000000E+00  0.45593999997E+02  0.45594000000E+02  0.51100000000E-03 0.  1.
         11   -1    0    0    0    0 -0.00000000000E+00 -0.00000000000E+00 -0.45593999997E+02  0.45594000000E+02  0.51100000000E-03 0. -1.
         23    2    1    2    0    0 -0.35527136788E-14  0.00000000000E+00  0.17763568394E-14  0.91188000000E+02  0.91188000000E+02 0.  0.
    9900012    2    3    3    0    0 -0.19676574690E+02  0.29772567340E+02  0.90667336981E+01  0.54367095374E+02  0.40000025523E+02 0.  0.
         12    1    3    3    0    0  0.19676574690E+02 -0.29772567340E+02 -0.90667336981E+01  0.36820904626E+02  0.00000000000E+00 0. -1.
         11    1    4    4    0    0 -0.23746989847E+01  0.16023901639E+01 -0.10358673367E+02  0.10747509651E+02  0.51100000000E-03 0. -1.
        -11    1    4    4    0    0 -0.12751797277E+02  0.24549471574E+02  0.50610973485E+01  0.28122937169E+02  0.51100000000E-03 0.  1.
        -12    1    4    4    0    0 -0.45500784290E+01  0.36207056015E+01  0.14364309717E+02  0.15496648554E+02  0.00000000000E+00 0.  1.
</event>
<event>
 8    1  0.2401501E-006  0.9118800E+02  0.7816164E-02  0.1184000E+00
        -11   -1    0    0    0    0  0.00000000000E+00  0.00000000000E+00  0.45593999997E+02  0.45594000000E+02  0.51100000000E-03 0. -1.
         11   -1    0    0    0    0 -0.00000000000E+00 -0.00000000000E+00 -0.45593999997E+02  0.45594000000E+02  0.51100000000E-03 0.  1.
         23    2    1    2    0    0  0.00000000000E+00  0.00000000000E+00 -0.17763568394E-14  0.91188000000E+02  0.91188000000E+02 0.  0.
    9900012    2    3    3    0    0  0.33044512902E+02  0.60845330762E+01 -0.15060506519E+02  0.54367078878E+02  0.39999987918E+02 0.  0.
         12    1    3    3    0    0 -0.33044512902E+02 -0.60845330762E+01  0.15060506519E+02  0.36820921122E+02  0.00000000000E+00 0. -1.
         11    1    4    4    0    0 -0.60157876202E+00 -0.46076768752E+01  0.32424800787E+01  0.56662386568E+01  0.51100000000E-03 0. -1.
        -11    1    4    4    0    0  0.19400129200E+02  0.14832886324E+02 -0.22581022651E+02  0.33260819502E+02  0.51100000000E-03 0.  1.
        -12    1    4    4    0    0  0.14245962463E+02 -0.41406763729E+01  0.42780360532E+01  0.15440020719E+02  0.00000000000E+00 0.  1.
</event>
<event>
 8    1  0.2401501E-006  0.9118800E+02  0.7816164E-02  0.1184000E+00
        -11   -1    0    0    0    0  0.00000000000E+00  0.00000000000E+00  0.45593999997E+02  0.45594000000E+02  0.51100000000E-03 0.  1.
         11   -1    0    0    0    0 -0.00000000000E+00 -0.00000000000E+00 -0.45593999997E+02  0.45594000000E+02  0.51100000000E-03 0. -1.
         23    2    1    2    0    0  0.17763568394E-14  0.00000000000E+00  0.00000000000E+00  0.91188000000E+02  0.91188000000E+02 0.  0.
    9900012    2    3    3    0    0 -0.14098549258E+02  0.18750341441E+02 -0.28380193081E+02  0.54367085364E+02  0.40000002704E+02 0.  0.
        -12    1    3    3    0    0  0.14098549258E+02 -0.18750341441E+02  0.28380193081E+02  0.36820914636E+02  0.00000000000E+00 0.  1.
         11    1    4    4    0    0 -0.21505627695E+02  0.22391052183E+02 -0.28040225701E+02  0.41834262251E+02  0.51100000000E-03 0. -1.
        -11    1    4    4    0    0  0.26431902961E+01 -0.35500496322E+01 -0.44235726116E+01  0.62575795835E+01  0.51100000000E-03 0.  1.
         12    1    4    4    0    0  0.47638881416E+01 -0.90661110197E-01  0.40836052318E+01  0.62752435293E+01  0.00000000000E+00 0. -1.
</event>
<event>
 8    1  0.2401501E-006  0.9118800E+02  0.7816164E-02  0.1184000E+00
        -11   -1    0    0    0    0  0.00000000000E+00  0.00000000000E+00  0.45593999997E+02  0.45594000000E+02  0.51100000000E-03 0.  1.
         11   -1    0    0    0    0 -0.00000000000E+00 -0.00000000000E+00 -0.45593999997E+02  0.45594000000E+02  0.51100000000E-03 0. -1.
         23    2    1    2    0    0 -0.22204460493E-15 -0.44408920985E-15  0.71054273576E-14  0.91188000000E+02  0.91188000000E+02 0.  0.
    9900012    2    3    3    0    0 -0.11650204320E+01 -0.38924987964E+01  0.36596060853E+02  0.54367075386E+02  0.39999979957E+02 0.  0.
         12    1    3    3    0    0  0.11650204320E+01  0.38924987964E+01 -0.36596060853E+02  0.36820924614E+02  0.00000000000E+00 0. -1.
         11    1    4    4    0    0  0.15658408254E+01  0.49353583062E+00 -0.82125838195E+01  0.83750802003E+01  0.51100000000E-03 0. -1.
        -11    1    4    4    0    0  0.74856673928E-01  0.16285682422E+01  0.16268218242E+01  0.23031256045E+01  0.51100000000E-03 0.  1.
        -12    1    4    4    0    0 -0.28057179313E+01 -0.60146028692E+01  0.43181822848E+02  0.43688869581E+02  0.00000000000E+00 0.  1.
</event>
<event>
 8    1  0.2401501E-006  0.9118800E+02  0.7816164E-02  0.1184000E+00
        -11   -1    0    0    0    0  0.00000000000E+00  0.00000000000E+00  0.45593999997E+02  0.45594000000E+02  0.51100000000E-03 0.  1.
         11   -1    0    0    0    0 -0.00000000000E+00 -0.00000000000E+00 -0.45593999997E+02  0.45594000000E+02  0.51100000000E-03 0. -1.
         23    2    1    2    0    0  0.00000000000E+00 -0.17763568394E-14  0.71054273576E-14  0.91188000000E+02  0.91188000000E+02 0.  0.
    9900012    2    3    3    0    0 -0.11171644747E+02  0.87195933855E+01 -0.33984446310E+02  0.54367088195E+02  0.40000009158E+02 0.  0.
        -12    1    3    3    0    0  0.11171644747E+02 -0.87195933855E+01  0.33984446310E+02  0.36820911805E+02  0.00000000000E+00 0.  1.
         11    1    4    4    0    0 -0.68122435313E+01  0.55171664855E+01 -0.12257874543E+02  0.15069879778E+02  0.51100000000E-03 0. -1.
        -11    1    4    4    0    0  0.12077243282E+02  0.92660454894E+01 -0.98315546438E+01  0.18121227091E+02  0.51100000000E-03 0.  1.
         12    1    4    4    0    0 -0.16436644498E+02 -0.60636185894E+01 -0.11895017123E+02  0.21175981326E+02  0.00000000000E+00 0. -1.
</event>
<event>
 8    1  0.2401501E-006  0.9118800E+02  0.7816164E-02  0.1184000E+00
        -11   -1    0    0    0    0  0.00000000000E+00  0.00000000000E+00  0.45593999997E+02  0.45594000000E+02  0.51100000000E-03 0. -1.
         11   -1    0    0    0    0 -0.00000000000E+00 -0.00000000000E+00 -0.45593999997E+02  0.45594000000E+02  0.51100000000E-03 0.  1.
         23    2    1    2    0    0  0.35527136788E-14  0.17763568394E-14  0.35527136788E-14  0.91188000000E+02  0.91188000000E+02 0.  0.
    9900012    2    3    3    0    0 -0.30841612754E+02  0.29308271374E+01 -0.19899331791E+02  0.54367106058E+02  0.40000049879E+02 0.  0.
         12    1    3    3    0    0  0.30841612754E+02 -0.29308271374E+01  0.19899331791E+02  0.36820893942E+02  0.00000000000E+00 0. -1.
         11    1    4    4    0    0  0.32425814597E+01 -0.79124167474E+00 -0.12229540047E+01  0.35547172418E+01  0.51100000000E-03 0. -1.
        -11    1    4    4    0    0 -0.19507029043E+02  0.13339912584E+02 -0.22832705277E+02  0.32860460745E+02  0.51100000000E-03 0.  1.
        -12    1    4    4    0    0 -0.14577165171E+02 -0.96178437722E+01  0.41563274906E+01  0.17951928071E+02  0.00000000000E+00 0.  1.
</event>
<event>
 8    1  0.2401501E-006  0.9118800E+02  0.7816164E-02  0.1184000E+00
        -11   -1    0    0    0    0  0.00000000000E+00  0.00000000000E+00  0.45593999997E+02  0.45594000000E+02  0.51100000000E-03 0. -1.
         11   -1    0    0    0    0 -0.00000000000E+00 -0.00000000000E+00 -0.45593999997E+02  0.45594000000E+02  0.51100000000E-03 0.  1.
         23    2    1    2    0    0  0.00000000000E+00  0.35527136788E-14  0.00000000000E+00  0.91188000000E+02  0.91188000000E+02 0.  0.
    9900012    2    3    3    0    0  0.15097483582E+02 -0.23546715920E+02 -0.23945708974E+02  0.54367098064E+02  0.40000031657E+02 0.  0.
         12    1    3    3    0    0 -0.15097483582E+02  0.23546715920E+02  0.23945708974E+02  0.36820901936E+02  0.00000000000E+00 0. -1.
         11    1    4    4    0    0  0.30301833513E+01 -0.25616786759E+02 -0.11610857287E+02  0.28288050166E+02  0.51100000000E-03 0. -1.
        -11    1    4    4    0    0  0.16375592609E+02 -0.25626099015E+01 -0.98593082164E+01  0.19285563554E+02  0.51100000000E-03 0.  1.
        -12    1    4    4    0    0 -0.43082923789E+01  0.46326807407E+01 -0.24755434705E+01  0.67934843447E+01  0.00000000000E+00 0.  1.
</event>
<event>
 8    1  0.2401501E-006  0.9118800E+02  0.7816164E-02  0.1184000E+00
        -11   -1    0    0    0    0  0.00000000000E+00  0.00000000000E+00  0.45593999997E+02  0.45594000000E+02  0.51100000000E-03 0. -1.
         11   -1    0    0    0    0 -0.00000000000E+00 -0.00000000000E+00 -0.45593999997E+02  0.45594000000E+02  0.51100000000E-03 0.  1.
         23    2    1    2    0    0  0.13322676296E-14 -0.13322676296E-14  0.00000000000E+00  0.91188000000E+02  0.91188000000E+02 0.  0.
    9900012    2    3    3    0    0  0.17483496581E+01  0.25984751756E+01 -0.36687483778E+02  0.54367078424E+02  0.39999986883E+02 0.  0.
         12    1    3    3    0    0 -0.17483496581E+01 -0.25984751756E+01  0.36687483778E+02  0.36820921576E+02  0.00000000000E+00 0. -1.
         11    1    4    4    0    0 -0.13135043720E+02 -0.13628737959E+01 -0.11739313387E+02  0.17669133470E+02  0.51100000000E-03 0. -1.
        -11    1    4    4    0    0  0.96136301454E+01  0.12949341898E+02 -0.18033443997E+02  0.24193231343E+02  0.51100000000E-03 0.  1.
        -12    1    4    4    0    0  0.52697632330E+01 -0.89879929267E+01 -0.69147263938E+01  0.12504713611E+02  0.00000000000E+00 0.  1.
</event>
<event>
 8    1  0.2401501E-006  0.9118800E+02  0.7816164E-02  0.1184000E+00
        -11   -1    0    0    0    0  0.00000000000E+00  0.00000000000E+00  0.45593999997E+02  0.45594000000E+02  0.51100000000E-03 0. -1.
         11   -1    0    0    0    0 -0.00000000000E+00 -0.00000000000E+00 -0.45593999997E+02  0.45594000000E+02  0.51100000000E-03 0.  1.
         23    2    1    2    0    0  0.00000000000E+00  0.35527136788E-14  0.44408920985E-15  0.91188000000E+02  0.91188000000E+02 0.  0.
    9900012    2    3    3    0    0  0.19247276182E+02 -0.31288935370E+02 -0.25149048784E+01  0.54367083885E+02  0.39999999332E+02 0.  0.
         12    1    3    3    0    0 -0.19247276182E+02  0.31288935370E+02  0.25149048784E+01  0.36820916115E+02  0.00000000000E+00 0. -1.
         11    1    4    4    0    0  0.22613619490E+01 -0.19183362839E+02  0.13102074295E+02  0.23340512393E+02  0.51100000000E-03 0. -1.
        -11    1    4    4    0    0  0.93147304625E+01 -0.97894908685E+01 -0.18145175775E+02  0.22624008028E+02  0.51100000000E-03 0.  1.
         12    1    4    4    0    0  0.76711837703E+01 -0.23160816629E+01  0.25281966015E+01  0.84025634638E+01  0.00000000000E+00 0. -1.
</event>
<event>
 8    1  0.2401501E-006  0.9118800E+02  0.7816164E-02  0.1184000E+00
        -11   -1    0    0    0    0  0.00000000000E+00  0.00000000000E+00  0.45593999997E+02  0.45594000000E+02  0.51100000000E-03 0. -1.
         11   -1    0    0    0    0 -0.00000000000E+00 -0.00000000000E+00 -0.45593999997E+02  0.45594000000E+02  0.51100000000E-03 0.  1.
         23    2    1    2    0    0 -0.44408920985E-15  0.00000000000E+00  0.00000000000E+00  0.91188000000E+02  0.91188000000E+02 0.  0.
    9900012    2    3    3    0    0  0.37487279230E+01 -0.16401358243E+02 -0.32752439785E+02  0.54367084406E+02  0.40000000521E+02 0.  0.
         12    1    3    3    0    0 -0.37487279230E+01  0.16401358243E+02  0.32752439785E+02  0.36820915594E+02  0.00000000000E+00 0. -1.
         11    1    4    4    0    0 -0.23290089610E+01  0.68329476564E+01  0.28234233552E+01  0.77514628374E+01  0.51100000000E-03 0. -1.
        -11    1    4    4    0    0 -0.25420125350E+00 -0.14567777842E+02 -0.71478495315E+01  0.16228879281E+02  0.51100000000E-03 0.  1.
         12    1    4    4    0    0  0.63319381376E+01 -0.86665280582E+01 -0.28428013609E+02  0.30386742288E+02  0.00000000000E+00 0. -1.
</event>
<event>
 8    1  0.2401501E-006  0.9118800E+02  0.7816164E-02  0.1184000E+00
        -11   -1    0    0    0    0  0.00000000000E+00  0.00000000000E+00  0.45593999997E+02  0.45594000000E+02  0.51100000000E-03 0.  1.
         11   -1    0    0    0    0 -0.00000000000E+00 -0.00000000000E+00 -0.45593999997E+02  0.45594000000E+02  0.51100000000E-03 0. -1.
         23    2    1    2    0    0  0.44408920985E-15  0.00000000000E+00  0.00000000000E+00  0.91188000000E+02  0.91188000000E+02 0.  0.
    9900012    2    3    3    0    0  0.60539067020E+00  0.34935520569E+02  0.11615618260E+02  0.54367086339E+02  0.40000004926E+02 0.  0.
         12    1    3    3    0    0 -0.60539067020E+00 -0.34935520569E+02 -0.11615618260E+02  0.36820913661E+02  0.00000000000E+00 0. -1.
         11    1    4    4    0    0 -0.45488954629E+01  0.15091880116E+02  0.38225719141E+01  0.16219412803E+02  0.51100000000E-03 0. -1.
        -11    1    4    4    0    0  0.10882472442E+02  0.18202735611E+02 -0.68922427019E+01  0.22299569500E+02  0.51100000000E-03 0.  1.
         12    1    4    4    0    0 -0.57281863092E+01  0.16409048423E+01  0.14685289048E+02  0.15848104036E+02  0.00000000000E+00 0. -1.
</event>
<event>
 8    1  0.2401501E-006  0.9118800E+02  0.7816164E-02  0.1184000E+00
        -11   -1    0    0    0    0  0.00000000000E+00  0.00000000000E+00  0.45593999997E+02  0.45594000000E+02  0.51100000000E-03 0. -1.
         11   -1    0    0    0    0 -0.00000000000E+00 -0.00000000000E+00 -0.45593999997E+02  0.45594000000E+02  0.51100000000E-03 0.  1.
         23    2    1    2    0    0  0.71054273576E-14 -0.17763568394E-14  0.88817841970E-15  0.91188000000E+02  0.91188000000E+02 0.  0.
    9900012    2    3    3    0    0 -0.33474410064E+02  0.13553485672E+02  0.71795007403E+01  0.54367104656E+02  0.40000046685E+02 0.  0.
         12    1    3    3    0    0  0.33474410064E+02 -0.13553485672E+02 -0.71795007403E+01  0.36820895344E+02  0.00000000000E+00 0. -1.
         11    1    4    4    0    0 -0.74038336606E+01  0.25055946802E+01  0.65331799088E+01  0.10187109382E+02  0.51100000000E-03 0. -1.
        -11    1    4    4    0    0 -0.33698892316E+02  0.44426043672E+01  0.17099415155E+01  0.34033453794E+02  0.51100000000E-03 0.  1.
         12    1    4    4    0    0  0.76283159125E+01  0.66052866251E+01 -0.10636206840E+01  0.10146541481E+02  0.00000000000E+00 0. -1.
</event>
<event>
 8    1  0.2401501E-006  0.9118800E+02  0.7816164E-02  0.1184000E+00
        -11   -1    0    0    0    0  0.00000000000E+00  0.00000000000E+00  0.45593999997E+02  0.45594000000E+02  0.51100000000E-03 0.  1.
         11   -1    0    0    0    0 -0.00000000000E+00 -0.00000000000E+00 -0.45593999997E+02  0.45594000000E+02  0.51100000000E-03 0. -1.
         23    2    1    2    0    0  0.35527136788E-14  0.17763568394E-14  0.35527136788E-14  0.91188000000E+02  0.91188000000E+02 0.  0.
    9900012    2    3    3    0    0  0.30165181756E+02 -0.67818804194E+01  0.19996119718E+02  0.54367124179E+02  0.40000091191E+02 0.  0.
        -12    1    3    3    0    0 -0.30165181756E+02  0.67818804194E+01 -0.19996119718E+02  0.36820875821E+02  0.00000000000E+00 0.  1.
         11    1    4    4    0    0  0.46651634750E+01  0.59229835298E+00  0.13887306086E+02  0.14661917957E+02  0.51100000000E-03 0.  1.
        -11    1    4    4    0    0  0.10293139934E+02  0.11132053755E+02  0.87072161955E+00  0.15186490935E+02  0.51100000000E-03 0. -1.
         12    1    4    4    0    0  0.15206878347E+02 -0.18506232527E+02  0.52380920129E+01  0.24518715288E+02  0.00000000000E+00 0. -1.
</event>
<event>
 8    1  0.2401501E-006  0.9118800E+02  0.7816164E-02  0.1184000E+00
        -11   -1    0    0    0    0  0.00000000000E+00  0.00000000000E+00  0.45593999997E+02  0.45594000000E+02  0.51100000000E-03 0. -1.
         11   -1    0    0    0    0 -0.00000000000E+00 -0.00000000000E+00 -0.45593999997E+02  0.45594000000E+02  0.51100000000E-03 0.  1.
         23    2    1    2    0    0  0.88817841970E-15  0.00000000000E+00  0.00000000000E+00  0.91188000000E+02  0.91188000000E+02 0.  0.
    9900012    2    3    3    0    0  0.23491760058E+01 -0.26037728252E+02  0.25928728280E+02  0.54367070210E+02  0.39999968157E+02 0.  0.
        -12    1    3    3    0    0 -0.23491760058E+01  0.26037728252E+02 -0.25928728280E+02  0.36820929790E+02  0.00000000000E+00 0.  1.
         11    1    4    4    0    0 -0.79174354389E+01 -0.11611523442E+01 -0.53419825832E+01  0.96213739598E+01  0.51100000000E-03 0. -1.
        -11    1    4    4    0    0  0.95135472933E+01 -0.13973194793E+02  0.73239901866E+01  0.18422773606E+02  0.51100000000E-03 0.  1.
         12    1    4    4    0    0  0.75306415130E+00 -0.10903381115E+02  0.23946720677E+02  0.26322922644E+02  0.00000000000E+00 0. -1.
</event>
<event>
 8    1  0.2401501E-006  0.9118800E+02  0.7816164E-02  0.1184000E+00
        -11   -1    0    0    0    0  0.00000000000E+00  0.00000000000E+00  0.45593999997E+02  0.45594000000E+02  0.51100000000E-03 0. -1.
         11   -1    0    0    0    0 -0.00000000000E+00 -0.00000000000E+00 -0.45593999997E+02  0.45594000000E+02  0.51100000000E-03 0.  1.
         23    2    1    2    0    0 -0.35527136788E-14 -0.35527136788E-14 -0.35527136788E-14  0.91188000000E+02  0.91188000000E+02 0.  0.
    9900012    2    3    3    0    0 -0.21995773865E+02 -0.18332544738E+02  0.23149137774E+02  0.54367097727E+02  0.40000030888E+02 0.  0.
        -12    1    3    3    0    0  0.21995773865E+02  0.18332544738E+02 -0.23149137774E+02  0.36820902273E+02  0.00000000000E+00 0.  1.
         11    1    4    4    0    0 -0.38662107960E+01  0.10606246386E+01 -0.78550073552E+01  0.88189370876E+01  0.51100000000E-03 0. -1.
        -11    1    4    4    0    0  0.14707072848E+01 -0.15376256329E+01  0.13751621683E+02  0.13915256796E+02  0.51100000000E-03 0.  1.
         12    1    4    4    0    0 -0.19600270354E+02 -0.17855543744E+02  0.17252523446E+02  0.31632903844E+02  0.00000000000E+00 0. -1.
</event>
<event>
 8    1  0.2401501E-006  0.9118800E+02  0.7816164E-02  0.1184000E+00
        -11   -1    0    0    0    0  0.00000000000E+00  0.00000000000E+00  0.45593999997E+02  0.45594000000E+02  0.51100000000E-03 0.  1.
         11   -1    0    0    0    0 -0.00000000000E+00 -0.00000000000E+00 -0.45593999997E+02  0.45594000000E+02  0.51100000000E-03 0. -1.
         23    2    1    2    0    0  0.00000000000E+00  0.00000000000E+00 -0.35527136788E-14  0.91188000000E+02  0.91188000000E+02 0.  0.
    9900012    2    3    3    0    0 -0.17004848504E+02 -0.20106495566E+02  0.25736030326E+02  0.54367091625E+02  0.40000016977E+02 0.  0.
         12    1    3    3    0    0  0.17004848504E+02  0.20106495566E+02 -0.25736030326E+02  0.36820908375E+02  0.00000000000E+00 0. -1.
         11    1    4    4    0    0  0.43954431310E+00 -0.29806869529E+01  0.28279066399E+00  0.30261633689E+01  0.51100000000E-03 0. -1.
        -11    1    4    4    0    0 -0.17482344681E+02 -0.17644565045E+02  0.34371721998E+02  0.42407290937E+02  0.51100000000E-03 0.  1.
        -12    1    4    4    0    0  0.37951864407E-01  0.51875643197E+00 -0.89184823358E+01  0.89336373194E+01  0.00000000000E+00 0.  1.
</event>
<event>
 8    1  0.2401501E-006  0.9118800E+02  0.7816164E-02  0.1184000E+00
        -11   -1    0    0    0    0  0.00000000000E+00  0.00000000000E+00  0.45593999997E+02  0.45594000000E+02  0.51100000000E-03 0. -1.
         11   -1    0    0    0    0 -0.00000000000E+00 -0.00000000000E+00 -0.45593999997E+02  0.45594000000E+02  0.51100000000E-03 0.  1.
         23    2    1    2    0    0  0.00000000000E+00  0.35527136788E-14  0.00000000000E+00  0.91188000000E+02  0.91188000000E+02 0.  0.
    9900012    2    3    3    0    0 -0.26484081528E+02  0.16853895628E+02  0.19243701725E+02  0.54367076216E+02  0.39999981850E+02 0.  0.
        -12    1    3    3    0    0  0.26484081528E+02 -0.16853895628E+02 -0.19243701725E+02  0.36820923784E+02  0.00000000000E+00 0.  1.
         11    1    4    4    0    0  0.71707262220E+01  0.13799299978E+02  0.80290201294E+01  0.17501575898E+02  0.51100000000E-03 0. -1.
        -11    1    4    4    0    0 -0.28646154377E+01  0.32373912874E+01  0.11822091134E+01  0.44815558239E+01  0.51100000000E-03 0.  1.
         12    1    4    4    0    0 -0.30790192312E+02 -0.18279563761E+00  0.10032472482E+02  0.32383944494E+02  0.00000000000E+00 0. -1.
</event>
<event>
 8    1  0.2401501E-006  0.9118800E+02  0.7816164E-02  0.1184000E+00
        -11   -1    0    0    0    0  0.00000000000E+00  0.00000000000E+00  0.45593999997E+02  0.45594000000E+02  0.51100000000E-03 0.  1.
         11   -1    0    0    0    0 -0.00000000000E+00 -0.00000000000E+00 -0.45593999997E+02  0.45594000000E+02  0.51100000000E-03 0. -1.
         23    2    1    2    0    0 -0.71054273576E-14  0.00000000000E+00  0.00000000000E+00  0.91188000000E+02  0.91188000000E+02 0.  0.
    9900012    2    3    3    0    0  0.33710802295E+02  0.31400985838E+01  0.14474177853E+02  0.54367078841E+02  0.39999987834E+02 0.  0.
        -12    1    3    3    0    0 -0.33710802295E+02 -0.31400985838E+01 -0.14474177853E+02  0.36820921159E+02  0.00000000000E+00 0.  1.
         11    1    4    4    0    0  0.80471830087E+01 -0.51925682659E+01  0.73395770744E+01  0.12066039593E+02  0.51100000000E-03 0.  1.
        -11    1    4    4    0    0  0.21957822719E+02  0.12400357081E+02  0.17411059244E+02  0.30644082929E+02  0.51100000000E-03 0. -1.
         12    1    4    4    0    0  0.37057965668E+01 -0.40676902313E+01 -0.10276458466E+02  0.11656956319E+02  0.00000000000E+00 0. -1.
</event>
<event>
 8    1  0.2401501E-006  0.9118800E+02  0.7816164E-02  0.1184000E+00
        -11   -1    0    0    0    0  0.00000000000E+00  0.00000000000E+00  0.45593999997E+02  0.45594000000E+02  0.51100000000E-03 0. -1.
         11   -1    0    0    0    0 -0.00000000000E+00 -0.00000000000E+00 -0.45593999997E+02  0.45594000000E+02  0.51100000000E-03 0.  1.
         23    2    1    2    0    0  0.17763568394E-14  0.71054273576E-14 -0.17763568394E-14  0.91188000000E+02  0.91188000000E+02 0.  0.
    9900012    2    3    3    0    0 -0.83480824919E+01  0.33253059350E+02  0.13428483273E+02  0.54367073879E+02  0.39999976521E+02 0.  0.
        -12    1    3    3    0    0  0.83480824919E+01 -0.33253059350E+02 -0.13428483273E+02  0.36820926121E+02  0.00000000000E+00 0.  1.
         11    1    4    4    0    0  0.12331031100E+01 -0.30574388393E+01 -0.16827072502E+01  0.37013483336E+01  0.51100000000E-03 0. -1.
        -11    1    4    4    0    0  0.37133273287E+01  0.33913825389E+02  0.14705325910E+02  0.37150813756E+02  0.51100000000E-03 0.  1.
         12    1    4    4    0    0 -0.13294512931E+02  0.23966728005E+01  0.40586461264E+00  0.13514911789E+02  0.00000000000E+00 0. -1.
</event>
<event>
 8    1  0.2401501E-006  0.9118800E+02  0.7816164E-02  0.1184000E+00
        -11   -1    0    0    0    0  0.00000000000E+00  0.00000000000E+00  0.45593999997E+02  0.45594000000E+02  0.51100000000E-03 0. -1.
         11   -1    0    0    0    0 -0.00000000000E+00 -0.00000000000E+00 -0.45593999997E+02  0.45594000000E+02  0.51100000000E-03 0.  1.
         23    2    1    2    0    0 -0.44408920985E-15  0.35527136788E-14 -0.35527136788E-14  0.91188000000E+02  0.91188000000E+02 0.  0.
    9900012    2    3    3    0    0 -0.11365638529E+01  0.18805236878E+02 -0.31636223382E+02  0.54367090977E+02  0.40000015500E+02 0.  0.
         12    1    3    3    0    0  0.11365638529E+01 -0.18805236878E+02  0.31636223382E+02  0.36820909023E+02  0.00000000000E+00 0. -1.
         11    1    4    4    0    0  0.51165354525E+01  0.76624114462E+01  0.57481632074E+01  0.10859689900E+02  0.51100000000E-03 0. -1.
        -11    1    4    4    0    0 -0.52004726890E+01  0.40992809164E+01 -0.13271117441E+01  0.67535358194E+01  0.51100000000E-03 0.  1.
        -12    1    4    4    0    0 -0.10526266163E+01  0.70435445154E+01 -0.36057274845E+02  0.36753865257E+02  0.00000000000E+00 0.  1.
</event>
<event>
 8    1  0.2401501E-006  0.9118800E+02  0.7816164E-02  0.1184000E+00
        -11   -1    0    0    0    0  0.00000000000E+00  0.00000000000E+00  0.45593999997E+02  0.45594000000E+02  0.51100000000E-03 0.  1.
         11   -1    0    0    0    0 -0.00000000000E+00 -0.00000000000E+00 -0.45593999997E+02  0.45594000000E+02  0.51100000000E-03 0. -1.
         23    2    1    2    0    0  0.28865798640E-14 -0.35527136788E-14  0.00000000000E+00  0.91188000000E+02  0.91188000000E+02 0.  0.
    9900012    2    3    3    0    0 -0.17770664112E+01 -0.16084642318E+02  0.33074242626E+02  0.54367092776E+02  0.40000019602E+02 0.  0.
         12    1    3    3    0    0  0.17770664112E+01  0.16084642318E+02 -0.33074242626E+02  0.36820907224E+02  0.00000000000E+00 0. -1.
         11    1    4    4    0    0  0.99004998991E+01 -0.13886390745E+02  0.11372621836E+02  0.20498494429E+02  0.51100000000E-03 0. -1.
        -11    1    4    4    0    0 -0.16480752829E+02  0.43800414267E+01  0.10526702214E+02  0.20040245419E+02  0.51100000000E-03 0.  1.
        -12    1    4    4    0    0  0.48031865185E+01 -0.65782929996E+01  0.11174918576E+02  0.13828352928E+02  0.00000000000E+00 0.  1.
</event>
<event>
 8    1  0.2401501E-006  0.9118800E+02  0.7816164E-02  0.1184000E+00
        -11   -1    0    0    0    0  0.00000000000E+00  0.00000000000E+00  0.45593999997E+02  0.45594000000E+02  0.51100000000E-03 0.  1.
         11   -1    0    0    0    0 -0.00000000000E+00 -0.00000000000E+00 -0.45593999997E+02  0.45594000000E+02  0.51100000000E-03 0. -1.
         23    2    1    2    0    0  0.00000000000E+00  0.00000000000E+00  0.00000000000E+00  0.91188000000E+02  0.91188000000E+02 0.  0.
    9900012    2    3    3    0    0 -0.53816312696E+01  0.23622203034E+01 -0.36348898427E+02  0.54367021513E+02  0.39999857142E+02 0.  0.
        -12    1    3    3    0    0  0.53816312696E+01 -0.23622203034E+01  0.36348898427E+02  0.36820978487E+02  0.00000000000E+00 0.  1.
         11    1    4    4    0    0  0.11759902141E+01 -0.11849241652E+02 -0.32026146402E+02  0.34168136243E+02  0.51100000000E-03 0. -1.
        -11    1    4    4    0    0  0.17011587585E+01  0.45540046959E+01  0.28216846984E+01  0.56209256079E+01  0.51100000000E-03 0.  1.
         12    1    4    4    0    0 -0.82587802422E+01  0.96574572593E+01 -0.71444367239E+01  0.14577959662E+02  0.00000000000E+00 0. -1.
</event>
<event>
 8    1  0.2401501E-006  0.9118800E+02  0.7816164E-02  0.1184000E+00
        -11   -1    0    0    0    0  0.00000000000E+00  0.00000000000E+00  0.45593999997E+02  0.45594000000E+02  0.51100000000E-03 0.  1.
         11   -1    0    0    0    0 -0.00000000000E+00 -0.00000000000E+00 -0.45593999997E+02  0.45594000000E+02  0.51100000000E-03 0. -1.
         23    2    1    2    0    0 -0.88817841970E-15 -0.33306690739E-15 -0.71054273576E-14  0.91188000000E+02  0.91188000000E+02 0.  0.
    9900012    2    3    3    0    0  0.67694402093E+01 -0.33334863400E+00  0.36191707693E+02  0.54367134342E+02  0.40000114360E+02 0.  0.
         12    1    3    3    0    0 -0.67694402093E+01  0.33334863400E+00 -0.36191707693E+02  0.36820865658E+02  0.00000000000E+00 0. -1.
         11    1    4    4    0    0  0.33593979347E+01 -0.19141365494E+01  0.45182303662E+01  0.59467536620E+01  0.51100000000E-03 0. -1.
        -11    1    4    4    0    0  0.34945890964E+01 -0.15163692822E+02  0.26784171069E+02  0.30976467730E+02  0.51100000000E-03 0.  1.
         12    1    4    4    0    0 -0.84546821850E-01  0.16744480737E+02  0.48893062580E+01  0.17443912950E+02  0.00000000000E+00 0. -1.
</event>
<event>
 8    1  0.2401501E-006  0.9118800E+02  0.7816164E-02  0.1184000E+00
        -11   -1    0    0    0    0  0.00000000000E+00  0.00000000000E+00  0.45593999997E+02  0.45594000000E+02  0.51100000000E-03 0. -1.
         11   -1    0    0    0    0 -0.00000000000E+00 -0.00000000000E+00 -0.45593999997E+02  0.45594000000E+02  0.51100000000E-03 0.  1.
         23    2    1    2    0    0 -0.35527136788E-14  0.00000000000E+00 -0.35527136788E-14  0.91188000000E+02  0.91188000000E+02 0.  0.
    9900012    2    3    3    0    0  0.22515764799E+02 -0.99876169060E+01  0.27369101952E+02  0.54367083422E+02  0.39999998277E+02 0.  0.
        -12    1    3    3    0    0 -0.22515764799E+02  0.99876169060E+01 -0.27369101952E+02  0.36820916578E+02  0.00000000000E+00 0.  1.
         11    1    4    4    0    0  0.24073002919E+01 -0.66509556497E+01  0.20345021018E+02  0.21539502925E+02  0.51100000000E-03 0. -1.
        -11    1    4    4    0    0  0.16222506857E+02  0.65805013568E+01  0.11843919568E+02  0.21136488777E+02  0.51100000000E-03 0.  1.
        -12    1    4    4    0    0  0.38859576502E+01 -0.99171626131E+01 -0.48198386335E+01  0.11691091720E+02  0.00000000000E+00 0.  1.
</event>
<event>
 8    1  0.2401501E-006  0.9118800E+02  0.7816164E-02  0.1184000E+00
        -11   -1    0    0    0    0  0.00000000000E+00  0.00000000000E+00  0.45593999997E+02  0.45594000000E+02  0.51100000000E-03 0.  1.
         11   -1    0    0    0    0 -0.00000000000E+00 -0.00000000000E+00 -0.45593999997E+02  0.45594000000E+02  0.51100000000E-03 0. -1.
         23    2    1    2    0    0 -0.35527136788E-14  0.35527136788E-14  0.88817841970E-15  0.91188000000E+02  0.91188000000E+02 0.  0.
    9900012    2    3    3    0    0 -0.19123735149E+02  0.31364506726E+02 -0.25159601481E+01  0.54367087685E+02  0.40000007996E+02 0.  0.
         12    1    3    3    0    0  0.19123735149E+02 -0.31364506726E+02  0.25159601481E+01  0.36820912315E+02  0.00000000000E+00 0. -1.
         11    1    4    4    0    0 -0.38795167044E+01  0.49873653309E+01 -0.78354461561E+01  0.10065718033E+02  0.51100000000E-03 0. -1.
        -11    1    4    4    0    0 -0.23171326091E+02  0.91231765343E+01  0.44227528250E+01  0.25292359433E+02  0.51100000000E-03 0.  1.
        -12    1    4    4    0    0  0.79271076470E+01  0.17253964861E+02  0.89673318291E+00  0.19009010218E+02  0.00000000000E+00 0.  1.
</event>
<event>
 8    1  0.2401501E-006  0.9118800E+02  0.7816164E-02  0.1184000E+00
        -11   -1    0    0    0    0  0.00000000000E+00  0.00000000000E+00  0.45593999997E+02  0.45594000000E+02  0.51100000000E-03 0. -1.
         11   -1    0    0    0    0 -0.00000000000E+00 -0.00000000000E+00 -0.45593999997E+02  0.45594000000E+02  0.51100000000E-03 0.  1.
         23    2    1    2    0    0  0.35527136788E-14  0.00000000000E+00  0.35527136788E-14  0.91188000000E+02  0.91188000000E+02 0.  0.
    9900012    2    3    3    0    0  0.31856243282E+02  0.92061841846E+01 -0.16006396266E+02  0.54367098535E+02  0.40000032731E+02 0.  0.
         12    1    3    3    0    0 -0.31856243282E+02 -0.92061841846E+01  0.16006396266E+02  0.36820901465E+02  0.00000000000E+00 0. -1.
         11    1    4    4    0    0  0.42598313015E+01  0.79177381400E+00  0.90055174995E+01  0.99936186732E+01  0.51100000000E-03 0. -1.
        -11    1    4    4    0    0  0.18819859593E+02  0.20669155593E+01 -0.27377848345E+02  0.33286721606E+02  0.51100000000E-03 0.  1.
        -12    1    4    4    0    0  0.87765523873E+01  0.63474948113E+01  0.23659345799E+01  0.11086758256E+02  0.00000000000E+00 0.  1.
</event>
<event>
 8    1  0.2401501E-006  0.9118800E+02  0.7816164E-02  0.1184000E+00
        -11   -1    0    0    0    0  0.00000000000E+00  0.00000000000E+00  0.45593999997E+02  0.45594000000E+02  0.51100000000E-03 0. -1.
         11   -1    0    0    0    0 -0.00000000000E+00 -0.00000000000E+00 -0.45593999997E+02  0.45594000000E+02  0.51100000000E-03 0.  1.
         23    2    1    2    0    0  0.00000000000E+00  0.00000000000E+00  0.35527136788E-14  0.91188000000E+02  0.91188000000E+02 0.  0.
    9900012    2    3    3    0    0 -0.13622562716E+02 -0.12134676197E+02  0.31983692018E+02  0.54367066599E+02  0.39999959926E+02 0.  0.
        -12    1    3    3    0    0  0.13622562716E+02  0.12134676197E+02 -0.31983692018E+02  0.36820933401E+02  0.00000000000E+00 0.  1.
         11    1    4    4    0    0  0.51394555414E+01 -0.16790985832E+02  0.17679700557E+02  0.24918327001E+02  0.51100000000E-03 0. -1.
        -11    1    4    4    0    0 -0.12783687773E+02 -0.55314218415E+01  0.76972362367E+01  0.15914356619E+02  0.51100000000E-03 0.  1.
        -12    1    4    4    0    0 -0.59783304847E+01  0.10187731477E+02  0.66067552245E+01  0.13534382979E+02  0.00000000000E+00 0.  1.
</event>
<event>
 8    1  0.2401501E-006  0.9118800E+02  0.7816164E-02  0.1184000E+00
        -11   -1    0    0    0    0  0.00000000000E+00  0.00000000000E+00  0.45593999997E+02  0.45594000000E+02  0.51100000000E-03 0.  1.
         11   -1    0    0    0    0 -0.00000000000E+00 -0.00000000000E+00 -0.45593999997E+02  0.45594000000E+02  0.51100000000E-03 0. -1.
         23    2    1    2    0    0  0.00000000000E+00 -0.35527136788E-14  0.00000000000E+00  0.91188000000E+02  0.91188000000E+02 0.  0.
    9900012    2    3    3    0    0  0.23685311993E+02 -0.27438077667E+02  0.64760153098E+01  0.54367070020E+02  0.39999967726E+02 0.  0.
         12    1    3    3    0    0 -0.23685311993E+02  0.27438077667E+02 -0.64760153098E+01  0.36820929980E+02  0.00000000000E+00 0. -1.
         11    1    4    4    0    0  0.42830486394E+01 -0.10826900800E+02  0.26163130670E+00  0.11646232772E+02  0.51100000000E-03 0. -1.
        -11    1    4    4    0    0 -0.58060242525E+01 -0.52521030441E+01 -0.83699378149E+01  0.11460818614E+02  0.51100000000E-03 0.  1.
        -12    1    4    4    0    0  0.25208287606E+02 -0.11359073823E+02  0.14584321818E+02  0.31260018635E+02  0.00000000000E+00 0.  1.
</event>
<event>
 8    1  0.2401501E-006  0.9118800E+02  0.7816164E-02  0.1184000E+00
        -11   -1    0    0    0    0  0.00000000000E+00  0.00000000000E+00  0.45593999997E+02  0.45594000000E+02  0.51100000000E-03 0.  1.
         11   -1    0    0    0    0 -0.00000000000E+00 -0.00000000000E+00 -0.45593999997E+02  0.45594000000E+02  0.51100000000E-03 0. -1.
         23    2    1    2    0    0 -0.35527136788E-14 -0.35527136788E-14 -0.35527136788E-14  0.91188000000E+02  0.91188000000E+02 0.  0.
    9900012    2    3    3    0    0 -0.19277852187E+02 -0.26288297094E+02 -0.17119295189E+02  0.54367076372E+02  0.39999982206E+02 0.  0.
        -12    1    3    3    0    0  0.19277852187E+02  0.26288297094E+02  0.17119295189E+02  0.36820923628E+02  0.00000000000E+00 0.  1.
         11    1    4    4    0    0 -0.12483335920E+02 -0.14711479214E+02 -0.24674028324E+02  0.31322020534E+02  0.51100000000E-03 0. -1.
        -11    1    4    4    0    0 -0.86254243018E+01 -0.15139572038E+02  0.44678358683E+01  0.17987944393E+02  0.51100000000E-03 0.  1.
         12    1    4    4    0    0  0.18309080348E+01  0.35627541588E+01  0.30868972665E+01  0.50571114444E+01  0.00000000000E+00 0. -1.
</event>
<event>
 8    1  0.2437528E-006  0.9118800E+02  0.7816164E-02  0.1184000E+00
        -11   -1    0    0    0    0  0.00000000000E+00  0.00000000000E+00  0.45593999997E+02  0.45594000000E+02  0.51100000000E-03 0.  1.
         11   -1    0    0    0    0 -0.00000000000E+00 -0.00000000000E+00 -0.45593999997E+02  0.45594000000E+02  0.51100000000E-03 0. -1.
         23    2    1    2    0    0 -0.26645352591E-14 -0.44408920985E-15  0.00000000000E+00  0.91188000000E+02  0.91188000000E+02 0.  0.
    9900012    2    3    3    0    0 -0.64674178110E+01  0.27188978608E+01  0.36146374282E+02  0.54367078333E+02  0.39999986675E+02 0.  0.
         12    1    3    3    0    0  0.64674178110E+01 -0.27188978608E+01 -0.36146374282E+02  0.36820921667E+02  0.00000000000E+00 0. -1.
         11    1    4    4    0    0 -0.37210056284E+01 -0.89910130666E+01  0.22583475084E+01  0.99892108087E+01  0.51100000000E-03 0. -1.
        -11    1    4    4    0    0  0.43487755097E+01  0.54618362226E+01 -0.20024066776E+01  0.72631354194E+01  0.51100000000E-03 0.  1.
        -12    1    4    4    0    0 -0.70951876922E+01  0.62480747048E+01  0.35890433451E+02  0.37114732105E+02  0.00000000000E+00 0.  1.
</event>
<event>
 8    1  0.2401501E-006  0.9118800E+02  0.7816164E-02  0.1184000E+00
        -11   -1    0    0    0    0  0.00000000000E+00  0.00000000000E+00  0.45593999997E+02  0.45594000000E+02  0.51100000000E-03 0.  1.
         11   -1    0    0    0    0 -0.00000000000E+00 -0.00000000000E+00 -0.45593999997E+02  0.45594000000E+02  0.51100000000E-03 0. -1.
         23    2    1    2    0    0  0.00000000000E+00  0.35527136788E-14  0.00000000000E+00  0.91188000000E+02  0.91188000000E+02 0.  0.
    9900012    2    3    3    0    0  0.19159643747E+02 -0.16424289352E+02 -0.26812903728E+02  0.54367067970E+02  0.39999963051E+02 0.  0.
        -12    1    3    3    0    0 -0.19159643747E+02  0.16424289352E+02  0.26812903728E+02  0.36820932030E+02  0.00000000000E+00 0.  1.
         11    1    4    4    0    0  0.17205473325E+02  0.46953217992E+01 -0.21933930212E+02  0.28269624227E+02  0.51100000000E-03 0. -1.
        -11    1    4    4    0    0 -0.28231797005E+01 -0.18633438488E+02 -0.72768765525E+01  0.20202185677E+02  0.51100000000E-03 0.  1.
         12    1    4    4    0    0  0.47773501222E+01 -0.24861726631E+01  0.23979030358E+01  0.58952580664E+01  0.00000000000E+00 0. -1.
</event>
<event>
 8    1  0.2401501E-006  0.9118800E+02  0.7816164E-02  0.1184000E+00
        -11   -1    0    0    0    0  0.00000000000E+00  0.00000000000E+00  0.45593999997E+02  0.45594000000E+02  0.51100000000E-03 0.  1.
         11   -1    0    0    0    0 -0.00000000000E+00 -0.00000000000E+00 -0.45593999997E+02  0.45594000000E+02  0.51100000000E-03 0. -1.
         23    2    1    2    0    0  0.00000000000E+00  0.00000000000E+00 -0.88817841970E-15  0.91188000000E+02  0.91188000000E+02 0.  0.
    9900012    2    3    3    0    0 -0.28653268444E+02  0.22448860486E+02 -0.55514358894E+01  0.54367087870E+02  0.40000008418E+02 0.  0.
         12    1    3    3    0    0  0.28653268444E+02 -0.22448860486E+02  0.55514358894E+01  0.36820912130E+02  0.00000000000E+00 0. -1.
         11    1    4    4    0    0 -0.19127928863E+02 -0.25116530759E+01 -0.15429796804E+02  0.24703536051E+02  0.51100000000E-03 0. -1.
        -11    1    4    4    0    0  0.12501005652E+01  0.59290917786E+01  0.14908271243E+01  0.62401479564E+01  0.51100000000E-03 0.  1.
         12    1    4    4    0    0 -0.10775440146E+02  0.19031421783E+02  0.83875337908E+01  0.23423403863E+02  0.00000000000E+00 0. -1.
</event>
<event>
 8    1  0.2401501E-006  0.9118800E+02  0.7816164E-02  0.1184000E+00
        -11   -1    0    0    0    0  0.00000000000E+00  0.00000000000E+00  0.45593999997E+02  0.45594000000E+02  0.51100000000E-03 0.  1.
         11   -1    0    0    0    0 -0.00000000000E+00 -0.00000000000E+00 -0.45593999997E+02  0.45594000000E+02  0.51100000000E-03 0. -1.
         23    2    1    2    0    0 -0.17763568394E-14  0.00000000000E+00 -0.35527136788E-14  0.91188000000E+02  0.91188000000E+02 0.  0.
    9900012    2    3    3    0    0  0.11451840180E+02  0.21262121456E+02  0.27794830355E+02  0.54367149293E+02  0.40000148443E+02 0.  0.
         12    1    3    3    0    0 -0.11451840180E+02 -0.21262121456E+02 -0.27794830355E+02  0.36820850707E+02  0.00000000000E+00 0. -1.
         11    1    4    4    0    0  0.69330147475E+01  0.18102552266E+02  0.15839353050E+02  0.25033062085E+02  0.51100000000E-03 0. -1.
        -11    1    4    4    0    0 -0.43910668847E+01  0.35473671638E+01  0.17798433815E+02  0.18672159187E+02  0.51100000000E-03 0.  1.
         12    1    4    4    0    0  0.89098923167E+01 -0.38779797437E+00 -0.58429565090E+01  0.10661928021E+02  0.00000000000E+00 0. -1.
</event>
<event>
 8    1  0.2401501E-006  0.9118800E+02  0.7816164E-02  0.1184000E+00
        -11   -1    0    0    0    0  0.00000000000E+00  0.00000000000E+00  0.45593999997E+02  0.45594000000E+02  0.51100000000E-03 0.  1.
         11   -1    0    0    0    0 -0.00000000000E+00 -0.00000000000E+00 -0.45593999997E+02  0.45594000000E+02  0.51100000000E-03 0. -1.
         23    2    1    2    0    0  0.17763568394E-14  0.00000000000E+00  0.00000000000E+00  0.91188000000E+02  0.91188000000E+02 0.  0.
    9900012    2    3    3    0    0 -0.14321124034E+02  0.13187325785E+02 -0.31253454529E+02  0.54367101383E+02  0.40000039224E+02 0.  0.
        -12    1    3    3    0    0  0.14321124034E+02 -0.13187325785E+02  0.31253454529E+02  0.36820898617E+02  0.00000000000E+00 0.  1.
         11    1    4    4    0    0 -0.21501473339E+01  0.12833212064E+02 -0.53291906952E-01  0.13012198343E+02  0.51100000000E-03 0. -1.
        -11    1    4    4    0    0 -0.66587799984E+00 -0.73272354383E+01 -0.14602855302E+00  0.73588788058E+01  0.51100000000E-03 0.  1.
         12    1    4    4    0    0 -0.11505098700E+02  0.76813491594E+01 -0.31054134069E+02  0.33996024235E+02  0.00000000000E+00 0. -1.
</event>
<event>
 8    1  0.2401501E-006  0.9118800E+02  0.7816164E-02  0.1184000E+00
        -11   -1    0    0    0    0  0.00000000000E+00  0.00000000000E+00  0.45593999997E+02  0.45594000000E+02  0.51100000000E-03 0. -1.
         11   -1    0    0    0    0 -0.00000000000E+00 -0.00000000000E+00 -0.45593999997E+02  0.45594000000E+02  0.51100000000E-03 0.  1.
         23    2    1    2    0    0  0.00000000000E+00 -0.35527136788E-14  0.88817841970E-15  0.91188000000E+02  0.91188000000E+02 0.  0.
    9900012    2    3    3    0    0 -0.19124877273E+02  0.30439995869E+02 -0.79641810334E+01  0.54367048644E+02  0.39999918995E+02 0.  0.
         12    1    3    3    0    0  0.19124877273E+02 -0.30439995869E+02  0.79641810334E+01  0.36820951356E+02  0.00000000000E+00 0. -1.
         11    1    4    4    0    0 -0.76199159424E+01  0.14743490699E+02 -0.80027379862E+01  0.18424913907E+02  0.51100000000E-03 0. -1.
        -11    1    4    4    0    0 -0.19980174699E+02  0.17605571409E+02 -0.28612303399E+01  0.26783393455E+02  0.51100000000E-03 0.  1.
         12    1    4    4    0    0  0.84752133680E+01 -0.19090662392E+01  0.28997872927E+01  0.91587412826E+01  0.00000000000E+00 0. -1.
</event>
<event>
 8    1  0.2401501E-006  0.9118800E+02  0.7816164E-02  0.1184000E+00
        -11   -1    0    0    0    0  0.00000000000E+00  0.00000000000E+00  0.45593999997E+02  0.45594000000E+02  0.51100000000E-03 0. -1.
         11   -1    0    0    0    0 -0.00000000000E+00 -0.00000000000E+00 -0.45593999997E+02  0.45594000000E+02  0.51100000000E-03 0.  1.
         23    2    1    2    0    0  0.17763568394E-14  0.28033131372E-14  0.00000000000E+00  0.91188000000E+02  0.91188000000E+02 0.  0.
    9900012    2    3    3    0    0 -0.13913561875E+02 -0.12177804927E+00  0.34090725409E+02  0.54367087561E+02  0.40000007713E+02 0.  0.
        -12    1    3    3    0    0  0.13913561875E+02  0.12177804927E+00 -0.34090725409E+02  0.36820912439E+02  0.00000000000E+00 0.  1.
         11    1    4    4    0    0 -0.21109463924E+01  0.77322968425E+01  0.10707283094E+02  0.13374992361E+02  0.51100000000E-03 0. -1.
        -11    1    4    4    0    0 -0.30655895680E+01 -0.88175468909E+01 -0.54766065918E+01  0.10823132291E+02  0.51100000000E-03 0.  1.
        -12    1    4    4    0    0 -0.87370259142E+01  0.96347199914E+00  0.28860048906E+02  0.30168962909E+02  0.00000000000E+00 0.  1.
</event>
<event>
 8    1  0.2401501E-006  0.9118800E+02  0.7816164E-02  0.1184000E+00
        -11   -1    0    0    0    0  0.00000000000E+00  0.00000000000E+00  0.45593999997E+02  0.45594000000E+02  0.51100000000E-03 0.  1.
         11   -1    0    0    0    0 -0.00000000000E+00 -0.00000000000E+00 -0.45593999997E+02  0.45594000000E+02  0.51100000000E-03 0. -1.
         23    2    1    2    0    0  0.17763568394E-14  0.71054273576E-14  0.00000000000E+00  0.91188000000E+02  0.91188000000E+02 0.  0.
    9900012    2    3    3    0    0  0.15523518146E+02  0.30544355080E+02 -0.13484920541E+02  0.54367077621E+02  0.39999985051E+02 0.  0.
        -12    1    3    3    0    0 -0.15523518146E+02 -0.30544355080E+02  0.13484920541E+02  0.36820922379E+02  0.00000000000E+00 0.  1.
         11    1    4    4    0    0  0.29229355645E+01  0.14454062709E+01 -0.11712622980E+02  0.12158054488E+02  0.51100000000E-03 0. -1.
        -11    1    4    4    0    0  0.89217682781E+01 -0.32191263435E+01 -0.19432794392E+01  0.96817900651E+01  0.51100000000E-03 0.  1.
        -12    1    4    4    0    0  0.36788143031E+01  0.32318075153E+02  0.17098187746E+00  0.32527233068E+02  0.00000000000E+00 0.  1.
</event>
<event>
 8    1  0.2401501E-006  0.9118800E+02  0.7816164E-02  0.1184000E+00
        -11   -1    0    0    0    0  0.00000000000E+00  0.00000000000E+00  0.45593999997E+02  0.45594000000E+02  0.51100000000E-03 0.  1.
         11   -1    0    0    0    0 -0.00000000000E+00 -0.00000000000E+00 -0.45593999997E+02  0.45594000000E+02  0.51100000000E-03 0. -1.
         23    2    1    2    0    0  0.00000000000E+00  0.35527136788E-14  0.00000000000E+00  0.91188000000E+02  0.91188000000E+02 0.  0.
    9900012    2    3    3    0    0 -0.24596167464E+01  0.21770208963E+02  0.29593715767E+02  0.54367085756E+02  0.40000003599E+02 0.  0.
         12    1    3    3    0    0  0.24596167464E+01 -0.21770208963E+02 -0.29593715767E+02  0.36820914244E+02  0.00000000000E+00 0. -1.
         11    1    4    4    0    0 -0.75918100201E+01  0.12184700862E+02  0.44822182461E+01  0.15039707283E+02  0.51100000000E-03 0. -1.
        -11    1    4    4    0    0 -0.31750966920E+00 -0.94835535282E+01  0.38169563706E+01  0.10227793316E+02  0.51100000000E-03 0.  1.
        -12    1    4    4    0    0  0.54497029429E+01  0.19069061629E+02  0.21294541150E+02  0.29099585158E+02  0.00000000000E+00 0.  1.
</event>
<event>
 8    1  0.2401501E-006  0.9118800E+02  0.7816164E-02  0.1184000E+00
        -11   -1    0    0    0    0  0.00000000000E+00  0.00000000000E+00  0.45593999997E+02  0.45594000000E+02  0.51100000000E-03 0. -1.
         11   -1    0    0    0    0 -0.00000000000E+00 -0.00000000000E+00 -0.45593999997E+02  0.45594000000E+02  0.51100000000E-03 0.  1.
         23    2    1    2    0    0  0.00000000000E+00  0.00000000000E+00  0.00000000000E+00  0.91188000000E+02  0.91188000000E+02 0.  0.
    9900012    2    3    3    0    0  0.16810100050E+02 -0.27315599889E+02 -0.18084760626E+02  0.54367081654E+02  0.39999994246E+02 0.  0.
         12    1    3    3    0    0 -0.16810100050E+02  0.27315599889E+02  0.18084760626E+02  0.36820918346E+02  0.00000000000E+00 0. -1.
         11    1    4    4    0    0  0.16160599517E+02 -0.26542730465E+01 -0.15319752923E+02  0.22425542849E+02  0.51100000000E-03 0. -1.
        -11    1    4    4    0    0  0.12365573252E+01 -0.95968181579E+01 -0.11091519674E+02  0.14719028559E+02  0.51100000000E-03 0.  1.
        -12    1    4    4    0    0 -0.58705679307E+00 -0.15064508684E+02  0.83265119708E+01  0.17222510246E+02  0.00000000000E+00 0.  1.
</event>
<event>
 8    1  0.2401501E-006  0.9118800E+02  0.7816164E-02  0.1184000E+00
        -11   -1    0    0    0    0  0.00000000000E+00  0.00000000000E+00  0.45593999997E+02  0.45594000000E+02  0.51100000000E-03 0.  1.
         11   -1    0    0    0    0 -0.00000000000E+00 -0.00000000000E+00 -0.45593999997E+02  0.45594000000E+02  0.51100000000E-03 0. -1.
         23    2    1    2    0    0 -0.71054273576E-14  0.00000000000E+00  0.44408920985E-15  0.91188000000E+02  0.91188000000E+02 0.  0.
    9900012    2    3    3    0    0 -0.35121435131E+02 -0.10476705499E+02  0.35360207591E+01  0.54367081942E+02  0.39999994904E+02 0.  0.
         12    1    3    3    0    0  0.35121435131E+02  0.10476705499E+02 -0.35360207591E+01  0.36820918058E+02  0.00000000000E+00 0. -1.
         11    1    4    4    0    0 -0.26266737541E+01 -0.16370225516E+02  0.27237144989E-01  0.16579639338E+02  0.51100000000E-03 0. -1.
        -11    1    4    4    0    0 -0.18310944614E+02 -0.36382987639E+01 -0.40470167918E+01  0.19102519618E+02  0.51100000000E-03 0.  1.
         12    1    4    4    0    0 -0.14183816763E+02  0.95318187813E+01  0.75558004059E+01  0.18684922987E+02  0.00000000000E+00 0. -1.
</event>
<event>
 8    1  0.2401501E-006  0.9118800E+02  0.7816164E-02  0.1184000E+00
        -11   -1    0    0    0    0  0.00000000000E+00  0.00000000000E+00  0.45593999997E+02  0.45594000000E+02  0.51100000000E-03 0. -1.
         11   -1    0    0    0    0 -0.00000000000E+00 -0.00000000000E+00 -0.45593999997E+02  0.45594000000E+02  0.51100000000E-03 0.  1.
         23    2    1    2    0    0  0.00000000000E+00  0.00000000000E+00 -0.35527136788E-14  0.91188000000E+02  0.91188000000E+02 0.  0.
    9900012    2    3    3    0    0  0.19598224367E+02 -0.83787433789E+01 -0.30024758089E+02  0.54367084242E+02  0.40000000147E+02 0.  0.
         12    1    3    3    0    0 -0.19598224367E+02  0.83787433789E+01  0.30024758089E+02  0.36820915758E+02  0.00000000000E+00 0. -1.
         11    1    4    4    0    0 -0.10261928811E+02 -0.45787684978E+01 -0.47741544971E+01  0.12209211903E+02  0.51100000000E-03 0. -1.
        -11    1    4    4    0    0  0.31658574932E+01 -0.59922382610E+01 -0.33506182544E+01  0.75601730133E+01  0.51100000000E-03 0.  1.
        -12    1    4    4    0    0  0.26694295685E+02  0.21922633798E+01 -0.21899985337E+02  0.34597699325E+02  0.00000000000E+00 0.  1.
</event>
<event>
 8    1  0.2401501E-006  0.9118800E+02  0.7816164E-02  0.1184000E+00
        -11   -1    0    0    0    0  0.00000000000E+00  0.00000000000E+00  0.45593999997E+02  0.45594000000E+02  0.51100000000E-03 0. -1.
         11   -1    0    0    0    0 -0.00000000000E+00 -0.00000000000E+00 -0.45593999997E+02  0.45594000000E+02  0.51100000000E-03 0.  1.
         23    2    1    2    0    0  0.00000000000E+00  0.17763568394E-14 -0.17763568394E-14  0.91188000000E+02  0.91188000000E+02 0.  0.
    9900012    2    3    3    0    0  0.34325641002E+02 -0.91162388492E+01 -0.97171295305E+01  0.54367108549E+02  0.40000055558E+02 0.  0.
        -12    1    3    3    0    0 -0.34325641002E+02  0.91162388492E+01  0.97171295305E+01  0.36820891451E+02  0.00000000000E+00 0.  1.
         11    1    4    4    0    0  0.34565683316E+02 -0.18136275963E+02  0.19155834388E+01  0.39081714766E+02  0.51100000000E-03 0. -1.
        -11    1    4    4    0    0 -0.33935369409E+00  0.77893015270E+01 -0.11687532962E+02  0.14049441491E+02  0.51100000000E-03 0.  1.
         12    1    4    4    0    0  0.99311380433E-01  0.12307355868E+01  0.54819993004E-01  0.12359522914E+01  0.00000000000E+00 0. -1.
</event>
<event>
 8    1  0.2401501E-006  0.9118800E+02  0.7816164E-02  0.1184000E+00
        -11   -1    0    0    0    0  0.00000000000E+00  0.00000000000E+00  0.45593999997E+02  0.45594000000E+02  0.51100000000E-03 0. -1.
         11   -1    0    0    0    0 -0.00000000000E+00 -0.00000000000E+00 -0.45593999997E+02  0.45594000000E+02  0.51100000000E-03 0.  1.
         23    2    1    2    0    0  0.00000000000E+00 -0.88817841970E-15  0.00000000000E+00  0.91188000000E+02  0.91188000000E+02 0.  0.
    9900012    2    3    3    0    0 -0.31438271560E+02  0.30330439083E+01  0.18926586357E+02  0.54367082777E+02  0.39999996806E+02 0.  0.
         12    1    3    3    0    0  0.31438271560E+02 -0.30330439083E+01 -0.18926586357E+02  0.36820917223E+02  0.00000000000E+00 0. -1.
         11    1    4    4    0    0 -0.84720600462E+01 -0.84862258847E+01 -0.36983412041E+00  0.11997024995E+02  0.51100000000E-03 0. -1.
        -11    1    4    4    0    0 -0.77175600261E+01 -0.78444683797E+01 -0.10203899646E+00  0.11004854798E+02  0.51100000000E-03 0.  1.
         12    1    4    4    0    0 -0.15248651488E+02  0.19363738173E+02  0.19398459474E+02  0.31365202983E+02  0.00000000000E+00 0. -1.
</event>
<event>
 8    1  0.2401501E-006  0.9118800E+02  0.7816164E-02  0.1184000E+00
        -11   -1    0    0    0    0  0.00000000000E+00  0.00000000000E+00  0.45593999997E+02  0.45594000000E+02  0.51100000000E-03 0.  1.
         11   -1    0    0    0    0 -0.00000000000E+00 -0.00000000000E+00 -0.45593999997E+02  0.45594000000E+02  0.51100000000E-03 0. -1.
         23    2    1    2    0    0  0.35527136788E-14 -0.35527136788E-14  0.35527136788E-14  0.91188000000E+02  0.91188000000E+02 0.  0.
    9900012    2    3    3    0    0 -0.20335067429E+02  0.16012509107E+02 -0.26188935704E+02  0.54367139492E+02  0.40000126099E+02 0.  0.
        -12    1    3    3    0    0  0.20335067429E+02 -0.16012509107E+02  0.26188935704E+02  0.36820860508E+02  0.00000000000E+00 0.  1.
         11    1    4    4    0    0 -0.44621120368E+01  0.17694384216E+02 -0.29463477451E+02  0.34656863395E+02  0.51100000000E-03 0.  1.
        -11    1    4    4    0    0 -0.46222206898E+01  0.14313559440E+01 -0.37183926023E+01  0.61024706267E+01  0.51100000000E-03 0. -1.
        -12    1    4    4    0    0 -0.11250734702E+02 -0.31132310525E+01  0.69929343488E+01  0.13607805471E+02  0.00000000000E+00 0.  1.
</event>
<event>
 8    1  0.2401501E-006  0.9118800E+02  0.7816164E-02  0.1184000E+00
        -11   -1    0    0    0    0  0.00000000000E+00  0.00000000000E+00  0.45593999997E+02  0.45594000000E+02  0.51100000000E-03 0.  1.
         11   -1    0    0    0    0 -0.00000000000E+00 -0.00000000000E+00 -0.45593999997E+02  0.45594000000E+02  0.51100000000E-03 0. -1.
         23    2    1    2    0    0  0.35527136788E-14  0.35527136788E-14 -0.35527136788E-14  0.91188000000E+02  0.91188000000E+02 0.  0.
    9900012    2    3    3    0    0  0.21577929890E+02  0.28350156159E+02 -0.92973049617E+01  0.54367105224E+02  0.40000047979E+02 0.  0.
        -12    1    3    3    0    0 -0.21577929890E+02 -0.28350156159E+02  0.92973049617E+01  0.36820894776E+02  0.00000000000E+00 0.  1.
         11    1    4    4    0    0 -0.62301006098E+01 -0.13317282924E+01 -0.73455876617E-01  0.63712675253E+01  0.51100000000E-03 0. -1.
        -11    1    4    4    0    0  0.15839685884E+02  0.23372157368E+02 -0.16430233357E+02  0.32666587782E+02  0.51100000000E-03 0.  1.
        -12    1    4    4    0    0  0.11968344616E+02  0.63097270837E+01  0.72063842721E+01  0.15329249916E+02  0.00000000000E+00 0.  1.
</event>
<event>
 8    1  0.2401501E-006  0.9118800E+02  0.7816164E-02  0.1184000E+00
        -11   -1    0    0    0    0  0.00000000000E+00  0.00000000000E+00  0.45593999997E+02  0.45594000000E+02  0.51100000000E-03 0.  1.
         11   -1    0    0    0    0 -0.00000000000E+00 -0.00000000000E+00 -0.45593999997E+02  0.45594000000E+02  0.51100000000E-03 0. -1.
         23    2    1    2    0    0  0.00000000000E+00  0.00000000000E+00  0.35527136788E-14  0.91188000000E+02  0.91188000000E+02 0.  0.
    9900012    2    3    3    0    0  0.30472925806E+02  0.44669783633E+01 -0.20179884892E+02  0.54367070393E+02  0.39999968575E+02 0.  0.
        -12    1    3    3    0    0 -0.30472925806E+02 -0.44669783633E+01  0.20179884892E+02  0.36820929607E+02  0.00000000000E+00 0.  1.
         11    1    4    4    0    0  0.18283075589E+02  0.71288120882E+01  0.67771168137E+01  0.20761024236E+02  0.51100000000E-03 0.  1.
        -11    1    4    4    0    0  0.77660742225E+01 -0.18910950380E+01 -0.19880562196E+01  0.82365355014E+01  0.51100000000E-03 0. -1.
        -12    1    4    4    0    0  0.44237759944E+01 -0.77073868695E+00 -0.24968945486E+02  0.25369510655E+02  0.00000000000E+00 0.  1.
</event>
<event>
 8    1  0.2401501E-006  0.9118800E+02  0.7816164E-02  0.1184000E+00
        -11   -1    0    0    0    0  0.00000000000E+00  0.00000000000E+00  0.45593999997E+02  0.45594000000E+02  0.51100000000E-03 0.  1.
         11   -1    0    0    0    0 -0.00000000000E+00 -0.00000000000E+00 -0.45593999997E+02  0.45594000000E+02  0.51100000000E-03 0. -1.
         23    2    1    2    0    0 -0.35527136788E-14  0.00000000000E+00  0.00000000000E+00  0.91188000000E+02  0.91188000000E+02 0.  0.
    9900012    2    3    3    0    0 -0.25009853890E+02 -0.16326644010E+02  0.21534371092E+02  0.54367065267E+02  0.39999956890E+02 0.  0.
         12    1    3    3    0    0  0.25009853890E+02  0.16326644010E+02 -0.21534371092E+02  0.36820934733E+02  0.00000000000E+00 0. -1.
         11    1    4    4    0    0 -0.33670668279E+00 -0.28584708692E+01  0.11105884025E+02  0.11472788995E+02  0.51100000000E-03 0. -1.
        -11    1    4    4    0    0 -0.20888685571E+02 -0.21231920517E+02  0.14749463238E+02  0.33236701097E+02  0.51100000000E-03 0.  1.
         12    1    4    4    0    0 -0.37844616362E+01  0.77637473759E+01 -0.43209761710E+01  0.96575751751E+01  0.00000000000E+00 0. -1.
</event>
<event>
 8    1  0.2401501E-006  0.9118800E+02  0.7816164E-02  0.1184000E+00
        -11   -1    0    0    0    0  0.00000000000E+00  0.00000000000E+00  0.45593999997E+02  0.45594000000E+02  0.51100000000E-03 0. -1.
         11   -1    0    0    0    0 -0.00000000000E+00 -0.00000000000E+00 -0.45593999997E+02  0.45594000000E+02  0.51100000000E-03 0.  1.
         23    2    1    2    0    0 -0.35527136788E-14 -0.35527136788E-14  0.00000000000E+00  0.91188000000E+02  0.91188000000E+02 0.  0.
    9900012    2    3    3    0    0  0.23721874997E+02  0.19761863702E+02  0.20062976429E+02  0.54367059850E+02  0.39999944540E+02 0.  0.
        -12    1    3    3    0    0 -0.23721874997E+02 -0.19761863702E+02 -0.20062976429E+02  0.36820940150E+02  0.00000000000E+00 0.  1.
         11    1    4    4    0    0 -0.21107863810E+01 -0.47725766812E+01  0.72716273446E+01  0.89503894789E+01  0.51100000000E-03 0. -1.
        -11    1    4    4    0    0 -0.15333771894E+01  0.11891378242E+02 -0.14488365626E+01  0.12077054681E+02  0.51100000000E-03 0.  1.
         12    1    4    4    0    0  0.27366038567E+02  0.12643062140E+02  0.14240185647E+02  0.33339615691E+02  0.00000000000E+00 0. -1.
</event>
<event>
 8    1  0.2401501E-006  0.9118800E+02  0.7816164E-02  0.1184000E+00
        -11   -1    0    0    0    0  0.00000000000E+00  0.00000000000E+00  0.45593999997E+02  0.45594000000E+02  0.51100000000E-03 0.  1.
         11   -1    0    0    0    0 -0.00000000000E+00 -0.00000000000E+00 -0.45593999997E+02  0.45594000000E+02  0.51100000000E-03 0. -1.
         23    2    1    2    0    0  0.00000000000E+00 -0.35527136788E-14 -0.44408920985E-15  0.91188000000E+02  0.91188000000E+02 0.  0.
    9900012    2    3    3    0    0 -0.20519705398E+02  0.30490674386E+02 -0.22451300048E+01  0.54367080092E+02  0.39999990685E+02 0.  0.
         12    1    3    3    0    0  0.20519705398E+02 -0.30490674386E+02  0.22451300048E+01  0.36820919908E+02  0.00000000000E+00 0. -1.
         11    1    4    4    0    0 -0.19886389084E+02  0.28039333310E+02 -0.31629220062E+00  0.34376921390E+02  0.51100000000E-03 0. -1.
        -11    1    4    4    0    0 -0.31209364939E+01  0.34240944207E+01 -0.10251276618E+02  0.11249592871E+02  0.51100000000E-03 0.  1.
        -12    1    4    4    0    0  0.24876201796E+01 -0.97275334389E+00  0.83224388140E+01  0.87405658306E+01  0.00000000000E+00 0.  1.
</event>
<event>
 8    1  0.2401501E-006  0.9118800E+02  0.7816164E-02  0.1184000E+00
        -11   -1    0    0    0    0  0.00000000000E+00  0.00000000000E+00  0.45593999997E+02  0.45594000000E+02  0.51100000000E-03 0. -1.
         11   -1    0    0    0    0 -0.00000000000E+00 -0.00000000000E+00 -0.45593999997E+02  0.45594000000E+02  0.51100000000E-03 0.  1.
         23    2    1    2    0    0  0.88817841970E-15  0.00000000000E+00  0.00000000000E+00  0.91188000000E+02  0.91188000000E+02 0.  0.
    9900012    2    3    3    0    0  0.36789187530E+01 -0.94531965216E+01  0.35395989727E+02  0.54367170889E+02  0.40000197676E+02 0.  0.
        -12    1    3    3    0    0 -0.36789187530E+01  0.94531965216E+01 -0.35395989727E+02  0.36820829111E+02  0.00000000000E+00 0.  1.
         11    1    4    4    0    0  0.12739920261E+02  0.51680066061E+01  0.73273684092E+01  0.15578966224E+02  0.51100000000E-03 0. -1.
        -11    1    4    4    0    0  0.35715308101E+01 -0.10714032619E+02  0.53387673466E+01  0.12491947980E+02  0.51100000000E-03 0.  1.
        -12    1    4    4    0    0 -0.12632532318E+02 -0.39071705086E+01  0.22729853971E+02  0.26296256686E+02  0.00000000000E+00 0.  1.
</event>
<event>
 8    1  0.2401501E-006  0.9118800E+02  0.7816164E-02  0.1184000E+00
        -11   -1    0    0    0    0  0.00000000000E+00  0.00000000000E+00  0.45593999997E+02  0.45594000000E+02  0.51100000000E-03 0. -1.
         11   -1    0    0    0    0 -0.00000000000E+00 -0.00000000000E+00 -0.45593999997E+02  0.45594000000E+02  0.51100000000E-03 0.  1.
         23    2    1    2    0    0  0.00000000000E+00  0.00000000000E+00  0.00000000000E+00  0.91188000000E+02  0.91188000000E+02 0.  0.
    9900012    2    3    3    0    0  0.16548674278E+02  0.29255843093E+02  0.15033854455E+02  0.54367085356E+02  0.40000002685E+02 0.  0.
         12    1    3    3    0    0 -0.16548674278E+02 -0.29255843093E+02 -0.15033854455E+02  0.36820914644E+02  0.00000000000E+00 0. -1.
         11    1    4    4    0    0  0.11073383748E+02 -0.24380408991E+01 -0.19893365106E+00  0.11340345935E+02  0.51100000000E-03 0.  1.
        -11    1    4    4    0    0 -0.23440096043E+01 -0.19521185864E+00  0.93862916415E+01  0.96765158882E+01  0.51100000000E-03 0. -1.
         12    1    4    4    0    0  0.78193001347E+01  0.31889095851E+02  0.58464964650E+01  0.33350223533E+02  0.00000000000E+00 0. -1.
</event>
<event>
 8    1  0.2401501E-006  0.9118800E+02  0.7816164E-02  0.1184000E+00
        -11   -1    0    0    0    0  0.00000000000E+00  0.00000000000E+00  0.45593999997E+02  0.45594000000E+02  0.51100000000E-03 0.  1.
         11   -1    0    0    0    0 -0.00000000000E+00 -0.00000000000E+00 -0.45593999997E+02  0.45594000000E+02  0.51100000000E-03 0. -1.
         23    2    1    2    0    0  0.00000000000E+00  0.00000000000E+00 -0.71054273576E-14  0.91188000000E+02  0.91188000000E+02 0.  0.
    9900012    2    3    3    0    0 -0.22068349975E+02 -0.16049889321E+02 -0.24721854721E+02  0.54367066842E+02  0.39999960479E+02 0.  0.
        -12    1    3    3    0    0  0.22068349975E+02  0.16049889321E+02  0.24721854721E+02  0.36820933158E+02  0.00000000000E+00 0.  1.
         11    1    4    4    0    0  0.22319336210E+01 -0.90303478489E+00 -0.19903640056E+01  0.31238675784E+01  0.51100000000E-03 0. -1.
        -11    1    4    4    0    0 -0.18861074460E+02 -0.24126275671E+02 -0.55714498091E+01  0.31126489696E+02  0.51100000000E-03 0.  1.
        -12    1    4    4    0    0 -0.54392091353E+01  0.89794211350E+01 -0.17160040906E+02  0.20116709568E+02  0.00000000000E+00 0.  1.
</event>
<event>
 8    1  0.2401501E-006  0.9118800E+02  0.7816164E-02  0.1184000E+00
        -11   -1    0    0    0    0  0.00000000000E+00  0.00000000000E+00  0.45593999997E+02  0.45594000000E+02  0.51100000000E-03 0.  1.
         11   -1    0    0    0    0 -0.00000000000E+00 -0.00000000000E+00 -0.45593999997E+02  0.45594000000E+02  0.51100000000E-03 0. -1.
         23    2    1    2    0    0 -0.35527136788E-14  0.00000000000E+00  0.00000000000E+00  0.91188000000E+02  0.91188000000E+02 0.  0.
    9900012    2    3    3    0    0 -0.17526820875E+02  0.16691178635E+02 -0.27748767894E+02  0.54367095424E+02  0.40000025638E+02 0.  0.
        -12    1    3    3    0    0  0.17526820875E+02 -0.16691178635E+02  0.27748767894E+02  0.36820904576E+02  0.00000000000E+00 0.  1.
         11    1    4    4    0    0 -0.21905017297E+01  0.19782322331E+01 -0.11792365026E+01  0.31784114878E+01  0.51100000000E-03 0. -1.
        -11    1    4    4    0    0 -0.12589606503E+01  0.24432920532E+02 -0.23273632501E+02  0.33767063208E+02  0.51100000000E-03 0.  1.
        -12    1    4    4    0    0 -0.14077358495E+02 -0.97199741305E+01 -0.32958988897E+01  0.17421620728E+02  0.00000000000E+00 0.  1.
</event>
<event>
 8    1  0.2401501E-006  0.9118800E+02  0.7816164E-02  0.1184000E+00
        -11   -1    0    0    0    0  0.00000000000E+00  0.00000000000E+00  0.45593999997E+02  0.45594000000E+02  0.51100000000E-03 0. -1.
         11   -1    0    0    0    0 -0.00000000000E+00 -0.00000000000E+00 -0.45593999997E+02  0.45594000000E+02  0.51100000000E-03 0.  1.
         23    2    1    2    0    0  0.71054273576E-14  0.17763568394E-14  0.00000000000E+00  0.91188000000E+02  0.91188000000E+02 0.  0.
    9900012    2    3    3    0    0  0.30972807442E+02  0.12482755988E+02 -0.15512739213E+02  0.54367094582E+02  0.40000023720E+02 0.  0.
         12    1    3    3    0    0 -0.30972807442E+02 -0.12482755988E+02  0.15512739213E+02  0.36820905418E+02  0.00000000000E+00 0. -1.
         11    1    4    4    0    0  0.87982111062E+01  0.12569728782E+02 -0.24940643888E+01  0.15544354530E+02  0.51100000000E-03 0.  1.
        -11    1    4    4    0    0 -0.46113415645E+01  0.17688498921E+01 -0.10806449725E+02  0.11881610029E+02  0.51100000000E-03 0. -1.
         12    1    4    4    0    0  0.26785937900E+02 -0.18558226862E+01 -0.22122250993E+01  0.26941130023E+02  0.00000000000E+00 0. -1.
</event>
<event>
 8    1  0.2401501E-006  0.9118800E+02  0.7816164E-02  0.1184000E+00
        -11   -1    0    0    0    0  0.00000000000E+00  0.00000000000E+00  0.45593999997E+02  0.45594000000E+02  0.51100000000E-03 0. -1.
         11   -1    0    0    0    0 -0.00000000000E+00 -0.00000000000E+00 -0.45593999997E+02  0.45594000000E+02  0.51100000000E-03 0.  1.
         23    2    1    2    0    0 -0.71054273576E-14  0.00000000000E+00 -0.17763568394E-14  0.91188000000E+02  0.91188000000E+02 0.  0.
    9900012    2    3    3    0    0 -0.34006872257E+02 -0.40571875867E+01 -0.13522271344E+02  0.54367082655E+02  0.39999996528E+02 0.  0.
         12    1    3    3    0    0  0.34006872257E+02  0.40571875867E+01  0.13522271344E+02  0.36820917345E+02  0.00000000000E+00 0. -1.
         11    1    4    4    0    0  0.51158621825E+01 -0.30797291178E+01  0.18416078286E+01  0.62488636539E+01  0.51100000000E-03 0. -1.
        -11    1    4    4    0    0  0.16426581784E+01  0.41440162386E+01 -0.80932345997E+00  0.45305850837E+01  0.51100000000E-03 0.  1.
        -12    1    4    4    0    0 -0.40765392618E+02 -0.51214747075E+01 -0.14554555713E+02  0.43587633917E+02  0.00000000000E+00 0.  1.
</event>
<event>
 8    1  0.2401501E-006  0.9118800E+02  0.7816164E-02  0.1184000E+00
        -11   -1    0    0    0    0  0.00000000000E+00  0.00000000000E+00  0.45593999997E+02  0.45594000000E+02  0.51100000000E-03 0. -1.
         11   -1    0    0    0    0 -0.00000000000E+00 -0.00000000000E+00 -0.45593999997E+02  0.45594000000E+02  0.51100000000E-03 0.  1.
         23    2    1    2    0    0  0.35527136788E-14  0.35527136788E-14  0.00000000000E+00  0.91188000000E+02  0.91188000000E+02 0.  0.
    9900012    2    3    3    0    0  0.28461507050E+02  0.17445715036E+02 -0.15536325506E+02  0.54366976564E+02  0.39999754672E+02 0.  0.
         12    1    3    3    0    0 -0.28461507050E+02 -0.17445715036E+02  0.15536325506E+02  0.36821023436E+02  0.00000000000E+00 0. -1.
         11    1    4    4    0    0  0.11556699228E+02 -0.89428803144E+01 -0.49305448267E+01  0.15422148940E+02  0.51100000000E-03 0. -1.
        -11    1    4    4    0    0  0.16651977908E+01  0.37242877046E+01 -0.10892961574E+02  0.11631844854E+02  0.51100000000E-03 0.  1.
         12    1    4    4    0    0  0.15239610031E+02  0.22664307646E+02  0.28718089504E+00  0.27312982770E+02  0.00000000000E+00 0. -1.
</event>
<event>
 8    1  0.2401501E-006  0.9118800E+02  0.7816164E-02  0.1184000E+00
        -11   -1    0    0    0    0  0.00000000000E+00  0.00000000000E+00  0.45593999997E+02  0.45594000000E+02  0.51100000000E-03 0. -1.
         11   -1    0    0    0    0 -0.00000000000E+00 -0.00000000000E+00 -0.45593999997E+02  0.45594000000E+02  0.51100000000E-03 0.  1.
         23    2    1    2    0    0  0.00000000000E+00  0.00000000000E+00  0.00000000000E+00  0.91188000000E+02  0.91188000000E+02 0.  0.
    9900012    2    3    3    0    0 -0.12514520666E+02  0.32754246018E+02 -0.11239650811E+02  0.54367033011E+02  0.39999883354E+02 0.  0.
         12    1    3    3    0    0  0.12514520666E+02 -0.32754246018E+02  0.11239650811E+02  0.36820966989E+02  0.00000000000E+00 0. -1.
         11    1    4    4    0    0 -0.47031646406E+01 -0.27290446973E+01 -0.11846535580E+02  0.13034870468E+02  0.51100000000E-03 0. -1.
        -11    1    4    4    0    0 -0.38322656146E+01 -0.83774231959E+00 -0.25165022522E+01  0.46605638910E+01  0.51100000000E-03 0.  1.
         12    1    4    4    0    0 -0.39790904104E+01  0.36321033035E+02  0.31233870218E+01  0.36671598652E+02  0.00000000000E+00 0. -1.
</event>
<event>
 8    1  0.2401501E-006  0.9118800E+02  0.7816164E-02  0.1184000E+00
        -11   -1    0    0    0    0  0.00000000000E+00  0.00000000000E+00  0.45593999997E+02  0.45594000000E+02  0.51100000000E-03 0. -1.
         11   -1    0    0    0    0 -0.00000000000E+00 -0.00000000000E+00 -0.45593999997E+02  0.45594000000E+02  0.51100000000E-03 0.  1.
         23    2    1    2    0    0  0.71054273576E-14 -0.17763568394E-14  0.35527136788E-14  0.91188000000E+02  0.91188000000E+02 0.  0.
    9900012    2    3    3    0    0  0.28893364712E+02 -0.10989807273E+02  0.20004420121E+02  0.54367092724E+02  0.40000019482E+02 0.  0.
        -12    1    3    3    0    0 -0.28893364712E+02  0.10989807273E+02 -0.20004420121E+02  0.36820907276E+02  0.00000000000E+00 0.  1.
         11    1    4    4    0    0  0.25206432765E+02 -0.83546540850E+01  0.22586735371E+02  0.34861513343E+02  0.51100000000E-03 0. -1.
        -11    1    4    4    0    0  0.80303522980E+01  0.57593869644E+01 -0.13485058143E+01  0.99737437519E+01  0.51100000000E-03 0.  1.
        -12    1    4    4    0    0 -0.43434203505E+01 -0.83945401527E+01 -0.12338094365E+01  0.95318356281E+01  0.00000000000E+00 0.  1.
</event>
<event>
 8    1  0.2401501E-006  0.9118800E+02  0.7816164E-02  0.1184000E+00
        -11   -1    0    0    0    0  0.00000000000E+00  0.00000000000E+00  0.45593999997E+02  0.45594000000E+02  0.51100000000E-03 0. -1.
         11   -1    0    0    0    0 -0.00000000000E+00 -0.00000000000E+00 -0.45593999997E+02  0.45594000000E+02  0.51100000000E-03 0.  1.
         23    2    1    2    0    0  0.00000000000E+00 -0.88817841970E-15  0.71054273576E-14  0.91188000000E+02  0.91188000000E+02 0.  0.
    9900012    2    3    3    0    0  0.81674795603E+01  0.77655784889E+01  0.35053707026E+02  0.54367159326E+02  0.40000171316E+02 0.  0.
        -12    1    3    3    0    0 -0.81674795603E+01 -0.77655784889E+01 -0.35053707026E+02  0.36820840674E+02  0.00000000000E+00 0.  1.
         11    1    4    4    0    0 -0.14378753955E+01 -0.10000185940E+02  0.22481551058E+02  0.24647339465E+02  0.51100000000E-03 0. -1.
        -11    1    4    4    0    0  0.13785264262E+02  0.76346738091E+01  0.55664066736E+01  0.16712469550E+02  0.51100000000E-03 0.  1.
         12    1    4    4    0    0 -0.41799093058E+01  0.10131090619E+02  0.70057492952E+01  0.13007350312E+02  0.00000000000E+00 0. -1.
</event>
<event>
 8    1  0.2401501E-006  0.9118800E+02  0.7816164E-02  0.1184000E+00
        -11   -1    0    0    0    0  0.00000000000E+00  0.00000000000E+00  0.45593999997E+02  0.45594000000E+02  0.51100000000E-03 0. -1.
         11   -1    0    0    0    0 -0.00000000000E+00 -0.00000000000E+00 -0.45593999997E+02  0.45594000000E+02  0.51100000000E-03 0.  1.
         23    2    1    2    0    0 -0.35527136788E-14 -0.17763568394E-14 -0.17763568394E-14  0.91188000000E+02  0.91188000000E+02 0.  0.
    9900012    2    3    3    0    0 -0.31040555345E+02 -0.12805553916E+02 -0.15108982643E+02  0.54367086870E+02  0.40000006138E+02 0.  0.
         12    1    3    3    0    0  0.31040555345E+02  0.12805553916E+02  0.15108982643E+02  0.36820913130E+02  0.00000000000E+00 0. -1.
         11    1    4    4    0    0 -0.10458463037E+01 -0.29562236224E+01  0.51773944799E+01  0.60529717047E+01  0.51100000000E-03 0. -1.
        -11    1    4    4    0    0 -0.11886751967E+02  0.54510039591E+01 -0.20837724205E+02  0.24601200515E+02  0.51100000000E-03 0.  1.
        -12    1    4    4    0    0 -0.18107957074E+02 -0.15300334252E+02  0.55134708170E+00  0.23712914651E+02  0.00000000000E+00 0.  1.
</event>
<event>
 8    1  0.2401501E-006  0.9118800E+02  0.7816164E-02  0.1184000E+00
        -11   -1    0    0    0    0  0.00000000000E+00  0.00000000000E+00  0.45593999997E+02  0.45594000000E+02  0.51100000000E-03 0.  1.
         11   -1    0    0    0    0 -0.00000000000E+00 -0.00000000000E+00 -0.45593999997E+02  0.45594000000E+02  0.51100000000E-03 0. -1.
         23    2    1    2    0    0  0.00000000000E+00  0.00000000000E+00 -0.35527136788E-14  0.91188000000E+02  0.91188000000E+02 0.  0.
    9900012    2    3    3    0    0 -0.22742188103E+02  0.19636101446E+02 -0.21283711604E+02  0.54367082312E+02  0.39999995748E+02 0.  0.
        -12    1    3    3    0    0  0.22742188103E+02 -0.19636101446E+02  0.21283711604E+02  0.36820917688E+02  0.00000000000E+00 0.  1.
         11    1    4    4    0    0 -0.90100358468E+01  0.22869696446E+02 -0.18480534235E+02  0.30752786985E+02  0.51100000000E-03 0. -1.
        -11    1    4    4    0    0 -0.15091798674E+02  0.37770800979E+01  0.87413194134E+00  0.15581810813E+02  0.51100000000E-03 0.  1.
         12    1    4    4    0    0  0.13596464186E+01 -0.70106750975E+01 -0.36773093101E+01  0.80324845140E+01  0.00000000000E+00 0. -1.
</event>
<event>
 8    1  0.2401501E-006  0.9118800E+02  0.7816164E-02  0.1184000E+00
        -11   -1    0    0    0    0  0.00000000000E+00  0.00000000000E+00  0.45593999997E+02  0.45594000000E+02  0.51100000000E-03 0. -1.
         11   -1    0    0    0    0 -0.00000000000E+00 -0.00000000000E+00 -0.45593999997E+02  0.45594000000E+02  0.51100000000E-03 0.  1.
         23    2    1    2    0    0 -0.35527136788E-14  0.00000000000E+00  0.35527136788E-14  0.91188000000E+02  0.91188000000E+02 0.  0.
    9900012    2    3    3    0    0  0.23252561959E+02  0.17421618370E+02  0.22618252596E+02  0.54367085091E+02  0.40000002082E+02 0.  0.
        -12    1    3    3    0    0 -0.23252561959E+02 -0.17421618370E+02 -0.22618252596E+02  0.36820914909E+02  0.00000000000E+00 0.  1.
         11    1    4    4    0    0  0.62361252266E+01  0.30007345912E+01  0.13832760997E+02  0.15467350872E+02  0.51100000000E-03 0. -1.
        -11    1    4    4    0    0  0.24963025676E+02  0.16147317621E+02  0.75552304543E+01  0.30675234713E+02  0.51100000000E-03 0.  1.
        -12    1    4    4    0    0 -0.79465889432E+01 -0.17264338424E+01  0.12302611443E+01  0.82244995062E+01  0.00000000000E+00 0.  1.
</event>
<event>
 8    1  0.2426575E-006  0.9118800E+02  0.7816164E-02  0.1184000E+00
        -11   -1    0    0    0    0  0.00000000000E+00  0.00000000000E+00  0.45593999997E+02  0.45594000000E+02  0.51100000000E-03 0.  1.
         11   -1    0    0    0    0 -0.00000000000E+00 -0.00000000000E+00 -0.45593999997E+02  0.45594000000E+02  0.51100000000E-03 0. -1.
         23    2    1    2    0    0  0.00000000000E+00  0.00000000000E+00  0.00000000000E+00  0.91188000000E+02  0.91188000000E+02 0.  0.
    9900012    2    3    3    0    0  0.29105161847E+02  0.15852228134E+02  0.16042998640E+02  0.54367063180E+02  0.39999952132E+02 0.  0.
         12    1    3    3    0    0 -0.29105161847E+02 -0.15852228134E+02 -0.16042998640E+02  0.36820936820E+02  0.00000000000E+00 0. -1.
         11    1    4    4    0    0  0.23942388335E+01 -0.23035653889E+01 -0.84183060748E+01  0.90502304127E+01  0.51100000000E-03 0. -1.
        -11    1    4    4    0    0  0.67635732112E+01 -0.23051066105E+01  0.12376662440E+02  0.14291298488E+02  0.51100000000E-03 0.  1.
        -12    1    4    4    0    0  0.19947349802E+02  0.20460900134E+02  0.12084642275E+02  0.31025534279E+02  0.00000000000E+00 0.  1.
</event>
<event>
 8    1  0.2401501E-006  0.9118800E+02  0.7816164E-02  0.1184000E+00
        -11   -1    0    0    0    0  0.00000000000E+00  0.00000000000E+00  0.45593999997E+02  0.45594000000E+02  0.51100000000E-03 0.  1.
         11   -1    0    0    0    0 -0.00000000000E+00 -0.00000000000E+00 -0.45593999997E+02  0.45594000000E+02  0.51100000000E-03 0. -1.
         23    2    1    2    0    0  0.00000000000E+00  0.00000000000E+00  0.88817841970E-15  0.91188000000E+02  0.91188000000E+02 0.  0.
    9900012    2    3    3    0    0  0.23991375002E+02 -0.27848465791E+02 -0.21579822950E+01  0.54367081910E+02  0.39999994830E+02 0.  0.
        -12    1    3    3    0    0 -0.23991375002E+02  0.27848465791E+02  0.21579822950E+01  0.36820918090E+02  0.00000000000E+00 0.  1.
         11    1    4    4    0    0  0.13082695669E+02 -0.31314203380E+02  0.11003953636E+02  0.35676648598E+02  0.51100000000E-03 0. -1.
        -11    1    4    4    0    0  0.33763964439E+00  0.26238709068E+01 -0.22285425934E+01  0.34590607709E+01  0.51100000000E-03 0.  1.
         12    1    4    4    0    0  0.10571039688E+02  0.84186668230E+00 -0.10933393338E+02  0.15231372541E+02  0.00000000000E+00 0. -1.
</event>
<event>
 8    1  0.2401501E-006  0.9118800E+02  0.7816164E-02  0.1184000E+00
        -11   -1    0    0    0    0  0.00000000000E+00  0.00000000000E+00  0.45593999997E+02  0.45594000000E+02  0.51100000000E-03 0.  1.
         11   -1    0    0    0    0 -0.00000000000E+00 -0.00000000000E+00 -0.45593999997E+02  0.45594000000E+02  0.51100000000E-03 0. -1.
         23    2    1    2    0    0  0.71054273576E-14 -0.35527136788E-14  0.00000000000E+00  0.91188000000E+02  0.91188000000E+02 0.  0.
    9900012    2    3    3    0    0 -0.25844960350E+02  0.18595026570E+02 -0.18494389649E+02  0.54367089676E+02  0.40000012534E+02 0.  0.
        -12    1    3    3    0    0  0.25844960350E+02 -0.18595026570E+02  0.18494389649E+02  0.36820910324E+02  0.00000000000E+00 0.  1.
         11    1    4    4    0    0 -0.87494515196E+01  0.21303856484E+02 -0.23145261299E+02  0.32651344901E+02  0.51100000000E-03 0. -1.
        -11    1    4    4    0    0  0.86653351936E+00  0.81205208319E+00  0.31312718857E+01  0.33489062109E+01  0.51100000000E-03 0.  1.
        -12    1    4    4    0    0 -0.17962042349E+02 -0.35208819977E+01  0.15195997636E+01  0.18366838564E+02  0.00000000000E+00 0.  1.
</event>
<event>
 8    1  0.2401501E-006  0.9118800E+02  0.7816164E-02  0.1184000E+00
        -11   -1    0    0    0    0  0.00000000000E+00  0.00000000000E+00  0.45593999997E+02  0.45594000000E+02  0.51100000000E-03 0. -1.
         11   -1    0    0    0    0 -0.00000000000E+00 -0.00000000000E+00 -0.45593999997E+02  0.45594000000E+02  0.51100000000E-03 0.  1.
         23    2    1    2    0    0 -0.35527136788E-14  0.00000000000E+00  0.35527136788E-14  0.91188000000E+02  0.91188000000E+02 0.  0.
    9900012    2    3    3    0    0 -0.19934071063E+02 -0.29298498533E+02 -0.10000565631E+02  0.54367074993E+02  0.39999979061E+02 0.  0.
         12    1    3    3    0    0  0.19934071063E+02  0.29298498533E+02  0.10000565631E+02  0.36820925007E+02  0.00000000000E+00 0. -1.
         11    1    4    4    0    0 -0.16139780514E+02 -0.65792191065E+01  0.64371694675E+01  0.18579983587E+02  0.51100000000E-03 0. -1.
        -11    1    4    4    0    0 -0.12988990723E+02 -0.12399608028E+02 -0.97257114125E+01  0.20421890755E+02  0.51100000000E-03 0.  1.
         12    1    4    4    0    0  0.91947001741E+01 -0.10319671399E+02 -0.67120236862E+01  0.15365200651E+02  0.00000000000E+00 0. -1.
</event>
<event>
 8    1  0.2401501E-006  0.9118800E+02  0.7816164E-02  0.1184000E+00
        -11   -1    0    0    0    0  0.00000000000E+00  0.00000000000E+00  0.45593999997E+02  0.45594000000E+02  0.51100000000E-03 0.  1.
         11   -1    0    0    0    0 -0.00000000000E+00 -0.00000000000E+00 -0.45593999997E+02  0.45594000000E+02  0.51100000000E-03 0. -1.
         23    2    1    2    0    0 -0.26645352591E-14  0.00000000000E+00  0.00000000000E+00  0.91188000000E+02  0.91188000000E+02 0.  0.
    9900012    2    3    3    0    0  0.69989073408E+01 -0.55763737515E+01  0.35716923509E+02  0.54367091902E+02  0.40000017610E+02 0.  0.
         12    1    3    3    0    0 -0.69989073408E+01  0.55763737515E+01 -0.35716923509E+02  0.36820908098E+02  0.00000000000E+00 0. -1.
         11    1    4    4    0    0  0.10861386347E+01  0.59667685666E+01 -0.10150174745E+00  0.60656679045E+01  0.51100000000E-03 0. -1.
        -11    1    4    4    0    0 -0.76709100386E+01 -0.15888053681E+02  0.23952895814E+02  0.29749190388E+02  0.51100000000E-03 0.  1.
        -12    1    4    4    0    0  0.13583678745E+02  0.43449113625E+01  0.11865529442E+02  0.18552233610E+02  0.00000000000E+00 0.  1.
</event>
<event>
 8    1  0.2401501E-006  0.9118800E+02  0.7816164E-02  0.1184000E+00
        -11   -1    0    0    0    0  0.00000000000E+00  0.00000000000E+00  0.45593999997E+02  0.45594000000E+02  0.51100000000E-03 0.  1.
         11   -1    0    0    0    0 -0.00000000000E+00 -0.00000000000E+00 -0.45593999997E+02  0.45594000000E+02  0.51100000000E-03 0. -1.
         23    2    1    2    0    0  0.00000000000E+00  0.00000000000E+00  0.00000000000E+00  0.91188000000E+02  0.91188000000E+02 0.  0.
    9900012    2    3    3    0    0  0.32352810540E+02  0.54146086914E+01 -0.16726008236E+02  0.54367059101E+02  0.39999942834E+02 0.  0.
        -12    1    3    3    0    0 -0.32352810540E+02 -0.54146086914E+01  0.16726008236E+02  0.36820940899E+02  0.00000000000E+00 0.  1.
         11    1    4    4    0    0  0.16317140447E+02 -0.28227079282E+01 -0.15315616301E+02  0.22556259782E+02  0.51100000000E-03 0. -1.
        -11    1    4    4    0    0 -0.62605833438E+01 -0.28130189243E+01 -0.88982277386E+00  0.69209655470E+01  0.51100000000E-03 0.  1.
        -12    1    4    4    0    0  0.22296253437E+02  0.11050335544E+02 -0.52056916135E+00  0.24889833773E+02  0.00000000000E+00 0.  1.
</event>
<event>
 8    1  0.2401501E-006  0.9118800E+02  0.7816164E-02  0.1184000E+00
        -11   -1    0    0    0    0  0.00000000000E+00  0.00000000000E+00  0.45593999997E+02  0.45594000000E+02  0.51100000000E-03 0.  1.
         11   -1    0    0    0    0 -0.00000000000E+00 -0.00000000000E+00 -0.45593999997E+02  0.45594000000E+02  0.51100000000E-03 0. -1.
         23    2    1    2    0    0  0.00000000000E+00  0.00000000000E+00  0.00000000000E+00  0.91188000000E+02  0.91188000000E+02 0.  0.
    9900012    2    3    3    0    0 -0.32193513063E+02 -0.25616652614E+01  0.17685983658E+02  0.54367103349E+02  0.40000043704E+02 0.  0.
        -12    1    3    3    0    0  0.32193513063E+02  0.25616652614E+01 -0.17685983658E+02  0.36820896651E+02  0.00000000000E+00 0.  1.
         11    1    4    4    0    0  0.46484864875E-01  0.11205086321E+02  0.34266443541E+01  0.11717423441E+02  0.51100000000E-03 0.  1.
        -11    1    4    4    0    0 -0.30457798106E+02 -0.63978893205E+01  0.64854592126E+01  0.31791062183E+02  0.51100000000E-03 0. -1.
         12    1    4    4    0    0 -0.17821998218E+01 -0.73688622617E+01  0.77738800908E+01  0.10858617725E+02  0.00000000000E+00 0. -1.
</event>
<event>
 8    1  0.2401501E-006  0.9118800E+02  0.7816164E-02  0.1184000E+00
        -11   -1    0    0    0    0  0.00000000000E+00  0.00000000000E+00  0.45593999997E+02  0.45594000000E+02  0.51100000000E-03 0.  1.
         11   -1    0    0    0    0 -0.00000000000E+00 -0.00000000000E+00 -0.45593999997E+02  0.45594000000E+02  0.51100000000E-03 0. -1.
         23    2    1    2    0    0 -0.35527136788E-14 -0.35527136788E-14 -0.17763568394E-14  0.91188000000E+02  0.91188000000E+02 0.  0.
    9900012    2    3    3    0    0  0.20996336792E+02  0.26038293270E+02  0.15392892515E+02  0.54367081827E+02  0.39999994641E+02 0.  0.
         12    1    3    3    0    0 -0.20996336792E+02 -0.26038293270E+02 -0.15392892515E+02  0.36820918173E+02  0.00000000000E+00 0. -1.
         11    1    4    4    0    0  0.17119649562E+01 -0.70369710473E+01  0.21940397976E+01  0.75672713990E+01  0.51100000000E-03 0. -1.
        -11    1    4    4    0    0 -0.17018952250E+01  0.20154964374E+02  0.67831258888E+01  0.21333772132E+02  0.51100000000E-03 0.  1.
        -12    1    4    4    0    0  0.20986267061E+02  0.12920299943E+02  0.64157268288E+01  0.25466038296E+02  0.00000000000E+00 0.  1.
</event>
<event>
 8    1  0.2401501E-006  0.9118800E+02  0.7816164E-02  0.1184000E+00
        -11   -1    0    0    0    0  0.00000000000E+00  0.00000000000E+00  0.45593999997E+02  0.45594000000E+02  0.51100000000E-03 0.  1.
         11   -1    0    0    0    0 -0.00000000000E+00 -0.00000000000E+00 -0.45593999997E+02  0.45594000000E+02  0.51100000000E-03 0. -1.
         23    2    1    2    0    0  0.00000000000E+00  0.17763568394E-14  0.00000000000E+00  0.91188000000E+02  0.91188000000E+02 0.  0.
    9900012    2    3    3    0    0 -0.46283515555E+01 -0.13642469149E+02 -0.33885693753E+02  0.54367097734E+02  0.40000030904E+02 0.  0.
        -12    1    3    3    0    0  0.46283515555E+01  0.13642469149E+02  0.33885693753E+02  0.36820902266E+02  0.00000000000E+00 0.  1.
         11    1    4    4    0    0  0.67615020328E+01  0.52784278259E+01 -0.14766286314E+02  0.17076970511E+02  0.51100000000E-03 0. -1.
        -11    1    4    4    0    0 -0.59485219970E+01 -0.23898414779E+02 -0.14253057533E+02  0.28454679618E+02  0.51100000000E-03 0.  1.
        -12    1    4    4    0    0 -0.54413315913E+01  0.49775178037E+01 -0.48663499048E+01  0.88354476043E+01  0.00000000000E+00 0.  1.
</event>
<event>
 8    1  0.2401501E-006  0.9118800E+02  0.7816164E-02  0.1184000E+00
        -11   -1    0    0    0    0  0.00000000000E+00  0.00000000000E+00  0.45593999997E+02  0.45594000000E+02  0.51100000000E-03 0. -1.
         11   -1    0    0    0    0 -0.00000000000E+00 -0.00000000000E+00 -0.45593999997E+02  0.45594000000E+02  0.51100000000E-03 0.  1.
         23    2    1    2    0    0  0.00000000000E+00 -0.17763568394E-14  0.00000000000E+00  0.91188000000E+02  0.91188000000E+02 0.  0.
    9900012    2    3    3    0    0 -0.28992176567E+02  0.11748694438E+02  0.19421673069E+02  0.54367088715E+02  0.40000010343E+02 0.  0.
        -12    1    3    3    0    0  0.28992176567E+02 -0.11748694438E+02 -0.19421673069E+02  0.36820911285E+02  0.00000000000E+00 0.  1.
         11    1    4    4    0    0 -0.22325909398E+02  0.10671203008E+02  0.10354682896E+02  0.26824247655E+02  0.51100000000E-03 0.  1.
        -11    1    4    4    0    0 -0.55237232031E+01  0.45495586792E+01 -0.76239685215E+01  0.10456332937E+02  0.51100000000E-03 0. -1.
         12    1    4    4    0    0 -0.11425439654E+01 -0.34720672496E+01  0.16690958695E+02  0.17086508123E+02  0.00000000000E+00 0. -1.
</event>
<event>
 8    1  0.2401501E-006  0.9118800E+02  0.7816164E-02  0.1184000E+00
        -11   -1    0    0    0    0  0.00000000000E+00  0.00000000000E+00  0.45593999997E+02  0.45594000000E+02  0.51100000000E-03 0. -1.
         11   -1    0    0    0    0 -0.00000000000E+00 -0.00000000000E+00 -0.45593999997E+02  0.45594000000E+02  0.51100000000E-03 0.  1.
         23    2    1    2    0    0  0.35527136788E-14  0.00000000000E+00  0.00000000000E+00  0.91188000000E+02  0.91188000000E+02 0.  0.
    9900012    2    3    3    0    0 -0.28387803671E+02  0.19269564821E+02 -0.13364043776E+02  0.54367065850E+02  0.39999958218E+02 0.  0.
        -12    1    3    3    0    0  0.28387803671E+02 -0.19269564821E+02  0.13364043776E+02  0.36820934150E+02  0.00000000000E+00 0.  1.
         11    1    4    4    0    0 -0.16105186751E+02  0.75934675157E+01  0.10945259892E+00  0.17805891422E+02  0.51100000000E-03 0. -1.
        -11    1    4    4    0    0 -0.96209039648E+01  0.53076378461E+01 -0.22593498220E+02  0.25123673591E+02  0.51100000000E-03 0.  1.
         12    1    4    4    0    0 -0.26617129547E+01  0.63684594593E+01  0.91200018455E+01  0.11437500837E+02  0.00000000000E+00 0. -1.
</event>
<event>
 8    1  0.2401501E-006  0.9118800E+02  0.7816164E-02  0.1184000E+00
        -11   -1    0    0    0    0  0.00000000000E+00  0.00000000000E+00  0.45593999997E+02  0.45594000000E+02  0.51100000000E-03 0.  1.
         11   -1    0    0    0    0 -0.00000000000E+00 -0.00000000000E+00 -0.45593999997E+02  0.45594000000E+02  0.51100000000E-03 0. -1.
         23    2    1    2    0    0  0.35527136788E-14  0.00000000000E+00  0.35527136788E-14  0.91188000000E+02  0.91188000000E+02 0.  0.
    9900012    2    3    3    0    0  0.28899430907E+02 -0.70497724067E+01  0.21700289223E+02  0.54367096289E+02  0.40000027610E+02 0.  0.
         12    1    3    3    0    0 -0.28899430907E+02  0.70497724067E+01 -0.21700289223E+02  0.36820903711E+02  0.00000000000E+00 0. -1.
         11    1    4    4    0    0  0.21415050924E+01  0.97732852696E+01  0.28378692777E+00  0.10009180002E+02  0.51100000000E-03 0. -1.
        -11    1    4    4    0    0  0.15800598559E+02 -0.93356118839E+01  0.24618012103E+02  0.30706010556E+02  0.51100000000E-03 0.  1.
        -12    1    4    4    0    0  0.10957327255E+02 -0.74874457924E+01 -0.32015098077E+01  0.13651905732E+02  0.00000000000E+00 0.  1.
</event>
<event>
 8    1  0.2401501E-006  0.9118800E+02  0.7816164E-02  0.1184000E+00
        -11   -1    0    0    0    0  0.00000000000E+00  0.00000000000E+00  0.45593999997E+02  0.45594000000E+02  0.51100000000E-03 0.  1.
         11   -1    0    0    0    0 -0.00000000000E+00 -0.00000000000E+00 -0.45593999997E+02  0.45594000000E+02  0.51100000000E-03 0. -1.
         23    2    1    2    0    0  0.35527136788E-14 -0.35527136788E-14  0.26645352591E-14  0.91188000000E+02  0.91188000000E+02 0.  0.
    9900012    2    3    3    0    0 -0.27130954882E+02  0.23607463197E+02 -0.78980058195E+01  0.54367088450E+02  0.40000009740E+02 0.  0.
        -12    1    3    3    0    0  0.27130954882E+02 -0.23607463197E+02  0.78980058195E+01  0.36820911550E+02  0.00000000000E+00 0.  1.
         11    1    4    4    0    0 -0.23835563677E+02  0.86696688606E+01 -0.16213352677E+02  0.30102658674E+02  0.51100000000E-03 0. -1.
        -11    1    4    4    0    0  0.40642971490E+01  0.98879939515E+01 -0.17265413998E+01  0.10829214245E+02  0.51100000000E-03 0.  1.
        -12    1    4    4    0    0 -0.73596883543E+01  0.50498003851E+01  0.10041888257E+02  0.13435215531E+02  0.00000000000E+00 0.  1.
</event>
<event>
 8    1  0.2401501E-006  0.9118800E+02  0.7816164E-02  0.1184000E+00
        -11   -1    0    0    0    0  0.00000000000E+00  0.00000000000E+00  0.45593999997E+02  0.45594000000E+02  0.51100000000E-03 0. -1.
         11   -1    0    0    0    0 -0.00000000000E+00 -0.00000000000E+00 -0.45593999997E+02  0.45594000000E+02  0.51100000000E-03 0.  1.
         23    2    1    2    0    0 -0.88817841970E-15  0.35527136788E-14  0.00000000000E+00  0.91188000000E+02  0.91188000000E+02 0.  0.
    9900012    2    3    3    0    0 -0.69549145962E+01 -0.19896950092E+02  0.30191576424E+02  0.54366936096E+02  0.39999662418E+02 0.  0.
        -12    1    3    3    0    0  0.69549145962E+01  0.19896950092E+02 -0.30191576424E+02  0.36821063904E+02  0.00000000000E+00 0.  1.
         11    1    4    4    0    0  0.56835820174E+01 -0.81976826355E+01  0.12027809190E+02  0.15626045543E+02  0.51100000000E-03 0. -1.
        -11    1    4    4    0    0 -0.23190275861E+01 -0.18808502434E+02  0.31936258844E+01  0.19218139850E+02  0.51100000000E-03 0.  1.
        -12    1    4    4    0    0 -0.10319469028E+02  0.71092349776E+01  0.14970141350E+02  0.19522750703E+02  0.00000000000E+00 0.  1.
</event>
<event>
 8    1  0.2401501E-006  0.9118800E+02  0.7816164E-02  0.1184000E+00
        -11   -1    0    0    0    0  0.00000000000E+00  0.00000000000E+00  0.45593999997E+02  0.45594000000E+02  0.51100000000E-03 0. -1.
         11   -1    0    0    0    0 -0.00000000000E+00 -0.00000000000E+00 -0.45593999997E+02  0.45594000000E+02  0.51100000000E-03 0.  1.
         23    2    1    2    0    0  0.35527136788E-14  0.00000000000E+00  0.71054273576E-14  0.91188000000E+02  0.91188000000E+02 0.  0.
    9900012    2    3    3    0    0 -0.26458445238E+02  0.10082339788E+02 -0.23538818023E+02  0.54367097595E+02  0.40000030588E+02 0.  0.
         12    1    3    3    0    0  0.26458445238E+02 -0.10082339788E+02  0.23538818023E+02  0.36820902405E+02  0.00000000000E+00 0. -1.
         11    1    4    4    0    0 -0.27017265723E+02  0.19902550316E+02 -0.16561626699E+02  0.37421005270E+02  0.51100000000E-03 0.  1.
        -11    1    4    4    0    0  0.52513545254E+01 -0.10847715201E+01 -0.12911406142E+01  0.55154780345E+01  0.51100000000E-03 0. -1.
        -12    1    4    4    0    0 -0.46925340401E+01 -0.87354390086E+01 -0.56860507102E+01  0.11430614291E+02  0.00000000000E+00 0.  1.
</event>
<event>
 8    1  0.2401501E-006  0.9118800E+02  0.7816164E-02  0.1184000E+00
        -11   -1    0    0    0    0  0.00000000000E+00  0.00000000000E+00  0.45593999997E+02  0.45594000000E+02  0.51100000000E-03 0. -1.
         11   -1    0    0    0    0 -0.00000000000E+00 -0.00000000000E+00 -0.45593999997E+02  0.45594000000E+02  0.51100000000E-03 0.  1.
         23    2    1    2    0    0 -0.71054273576E-14  0.00000000000E+00  0.13322676296E-14  0.91188000000E+02  0.91188000000E+02 0.  0.
    9900012    2    3    3    0    0  0.32329997749E+02  0.17216598634E+02 -0.37601803982E+01  0.54367095888E+02  0.40000026696E+02 0.  0.
        -12    1    3    3    0    0 -0.32329997749E+02 -0.17216598634E+02  0.37601803982E+01  0.36820904112E+02  0.00000000000E+00 0.  1.
         11    1    4    4    0    0  0.13958913010E+02  0.54452243673E+01  0.55923644762E+01  0.15993006645E+02  0.51100000000E-03 0. -1.
        -11    1    4    4    0    0 -0.27765360109E+01 -0.19252970180E+01  0.73880540192E+01  0.81239930624E+01  0.51100000000E-03 0.  1.
        -12    1    4    4    0    0  0.21147620750E+02  0.13696671284E+02 -0.16740598894E+02  0.30250096181E+02  0.00000000000E+00 0.  1.
</event>
<event>
 8    1  0.2401501E-006  0.9118800E+02  0.7816164E-02  0.1184000E+00
        -11   -1    0    0    0    0  0.00000000000E+00  0.00000000000E+00  0.45593999997E+02  0.45594000000E+02  0.51100000000E-03 0.  1.
         11   -1    0    0    0    0 -0.00000000000E+00 -0.00000000000E+00 -0.45593999997E+02  0.45594000000E+02  0.51100000000E-03 0. -1.
         23    2    1    2    0    0  0.00000000000E+00  0.11102230246E-15  0.00000000000E+00  0.91188000000E+02  0.91188000000E+02 0.  0.
    9900012    2    3    3    0    0  0.36611848643E+02 -0.81803233880E+00  0.38319484551E+01  0.54367075692E+02  0.39999980655E+02 0.  0.
         12    1    3    3    0    0 -0.36611848643E+02  0.81803233880E+00 -0.38319484551E+01  0.36820924308E+02  0.00000000000E+00 0. -1.
         11    1    4    4    0    0  0.13893942746E+02  0.13957704944E+02 -0.46118440901E+00  0.19699539681E+02  0.51100000000E-03 0. -1.
        -11    1    4    4    0    0 -0.37086017841E+01  0.62420010962E+00  0.10812454552E+01  0.39131119285E+01  0.51100000000E-03 0.  1.
        -12    1    4    4    0    0  0.26426507681E+02 -0.15399937392E+02  0.32118874089E+01  0.30754424082E+02  0.00000000000E+00 0.  1.
</event>
<event>
 8    1  0.2401501E-006  0.9118800E+02  0.7816164E-02  0.1184000E+00
        -11   -1    0    0    0    0  0.00000000000E+00  0.00000000000E+00  0.45593999997E+02  0.45594000000E+02  0.51100000000E-03 0.  1.
         11   -1    0    0    0    0 -0.00000000000E+00 -0.00000000000E+00 -0.45593999997E+02  0.45594000000E+02  0.51100000000E-03 0. -1.
         23    2    1    2    0    0  0.00000000000E+00  0.00000000000E+00  0.35527136788E-14  0.91188000000E+02  0.91188000000E+02 0.  0.
    9900012    2    3    3    0    0 -0.24028343568E+02  0.67969283462E+01  0.27059571455E+02  0.54367082889E+02  0.39999997062E+02 0.  0.
         12    1    3    3    0    0  0.24028343568E+02 -0.67969283462E+01 -0.27059571455E+02  0.36820917111E+02  0.00000000000E+00 0. -1.
         11    1    4    4    0    0 -0.95935805915E+01  0.18840391940E+02  0.86930693048E+00  0.21160171356E+02  0.51100000000E-03 0. -1.
        -11    1    4    4    0    0 -0.10076527134E+02 -0.39303619603E+01  0.17323300644E+02  0.20422558353E+02  0.51100000000E-03 0.  1.
        -12    1    4    4    0    0 -0.43582358425E+01 -0.81131016334E+01  0.88669638801E+01  0.12784353180E+02  0.00000000000E+00 0.  1.
</event>
<event>
 8    1  0.3086560E-006  0.9118800E+02  0.7816164E-02  0.1184000E+00
        -11   -1    0    0    0    0  0.00000000000E+00  0.00000000000E+00  0.45593999997E+02  0.45594000000E+02  0.51100000000E-03 0.  1.
         11   -1    0    0    0    0 -0.00000000000E+00 -0.00000000000E+00 -0.45593999997E+02  0.45594000000E+02  0.51100000000E-03 0. -1.
         23    2    1    2    0    0  0.00000000000E+00  0.00000000000E+00  0.00000000000E+00  0.91188000000E+02  0.91188000000E+02 0.  0.
    9900012    2    3    3    0    0 -0.28801936637E+02  0.35269067105E+01  0.22666716406E+02  0.54367208895E+02  0.40000284317E+02 0.  0.
         12    1    3    3    0    0  0.28801936637E+02 -0.35269067105E+01 -0.22666716406E+02  0.36820791105E+02  0.00000000000E+00 0. -1.
         11    1    4    4    0    0 -0.92491573818E+01  0.25512967582E+01 -0.72895423984E+01  0.12049624727E+02  0.51100000000E-03 0. -1.
        -11    1    4    4    0    0 -0.53559309586E+01 -0.75382777550E+01  0.14597771806E+01  0.93617614594E+01  0.51100000000E-03 0.  1.
        -12    1    4    4    0    0 -0.14196848296E+02  0.85138877074E+01  0.28496481624E+02  0.32955822709E+02  0.00000000000E+00 0.  1.
</event>
<event>
 8    1  0.2401501E-006  0.9118800E+02  0.7816164E-02  0.1184000E+00
        -11   -1    0    0    0    0  0.00000000000E+00  0.00000000000E+00  0.45593999997E+02  0.45594000000E+02  0.51100000000E-03 0. -1.
         11   -1    0    0    0    0 -0.00000000000E+00 -0.00000000000E+00 -0.45593999997E+02  0.45594000000E+02  0.51100000000E-03 0.  1.
         23    2    1    2    0    0 -0.17763568394E-14  0.00000000000E+00  0.00000000000E+00  0.91188000000E+02  0.91188000000E+02 0.  0.
    9900012    2    3    3    0    0 -0.37015025637E+01  0.34448963235E+02  0.12463833587E+02  0.54367091036E+02  0.40000015636E+02 0.  0.
         12    1    3    3    0    0  0.37015025637E+01 -0.34448963235E+02 -0.12463833587E+02  0.36820908964E+02  0.00000000000E+00 0. -1.
         11    1    4    4    0    0 -0.10873174128E+02  0.47326305894E+01  0.15994442483E+02  0.19910949212E+02  0.51100000000E-03 0. -1.
        -11    1    4    4    0    0  0.31984006645E+01  0.13424333981E+02  0.61329877869E+01  0.15101524727E+02  0.51100000000E-03 0.  1.
         12    1    4    4    0    0  0.39732708998E+01  0.16291998665E+02 -0.96635966823E+01  0.19354617098E+02  0.00000000000E+00 0. -1.
</event>
<event>
 8    1  0.2401501E-006  0.9118800E+02  0.7816164E-02  0.1184000E+00
        -11   -1    0    0    0    0  0.00000000000E+00  0.00000000000E+00  0.45593999997E+02  0.45594000000E+02  0.51100000000E-03 0.  1.
         11   -1    0    0    0    0 -0.00000000000E+00 -0.00000000000E+00 -0.45593999997E+02  0.45594000000E+02  0.51100000000E-03 0. -1.
         23    2    1    2    0    0  0.00000000000E+00  0.00000000000E+00 -0.17763568394E-14  0.91188000000E+02  0.91188000000E+02 0.  0.
    9900012    2    3    3    0    0  0.34290959750E+02 -0.33464595670E+01 -0.12988874642E+02  0.54367087781E+02  0.40000008214E+02 0.  0.
        -12    1    3    3    0    0 -0.34290959750E+02  0.33464595670E+01  0.12988874642E+02  0.36820912219E+02  0.00000000000E+00 0.  1.
         11    1    4    4    0    0  0.68829369920E+01 -0.29629890792E+01 -0.15081786313E+02  0.16840855221E+02  0.51100000000E-03 0. -1.
        -11    1    4    4    0    0  0.71453723063E+01  0.73689513853E+01  0.10100445982E+02  0.14400583294E+02  0.51100000000E-03 0.  1.
         12    1    4    4    0    0  0.20262650451E+02 -0.77524218731E+01 -0.80075343109E+01  0.23125649265E+02  0.00000000000E+00 0. -1.
</event>
<event>
 8    1  0.2401501E-006  0.9118800E+02  0.7816164E-02  0.1184000E+00
        -11   -1    0    0    0    0  0.00000000000E+00  0.00000000000E+00  0.45593999997E+02  0.45594000000E+02  0.51100000000E-03 0.  1.
         11   -1    0    0    0    0 -0.00000000000E+00 -0.00000000000E+00 -0.45593999997E+02  0.45594000000E+02  0.51100000000E-03 0. -1.
         23    2    1    2    0    0  0.00000000000E+00  0.00000000000E+00  0.00000000000E+00  0.91188000000E+02  0.91188000000E+02 0.  0.
    9900012    2    3    3    0    0  0.27989637100E+02  0.10460596762E+02  0.21515860776E+02  0.54367134522E+02  0.40000114769E+02 0.  0.
         12    1    3    3    0    0 -0.27989637100E+02 -0.10460596762E+02 -0.21515860776E+02  0.36820865478E+02  0.00000000000E+00 0. -1.
         11    1    4    4    0    0  0.54567080483E+01 -0.93612149693E+01  0.42041892142E+01  0.11622530518E+02  0.51100000000E-03 0. -1.
        -11    1    4    4    0    0  0.21319073907E+01  0.16478210405E+02  0.14163577123E+02  0.21833079591E+02  0.51100000000E-03 0.  1.
         12    1    4    4    0    0  0.20401021661E+02  0.33436013270E+01  0.31480944394E+01  0.20911524413E+02  0.00000000000E+00 0. -1.
</event>
<event>
 8    1  0.2401501E-006  0.9118800E+02  0.7816164E-02  0.1184000E+00
        -11   -1    0    0    0    0  0.00000000000E+00  0.00000000000E+00  0.45593999997E+02  0.45594000000E+02  0.51100000000E-03 0.  1.
         11   -1    0    0    0    0 -0.00000000000E+00 -0.00000000000E+00 -0.45593999997E+02  0.45594000000E+02  0.51100000000E-03 0. -1.
         23    2    1    2    0    0  0.00000000000E+00  0.00000000000E+00  0.00000000000E+00  0.91188000000E+02  0.91188000000E+02 0.  0.
    9900012    2    3    3    0    0 -0.31823511814E+02  0.67823369340E+01  0.17234959086E+02  0.54367084569E+02  0.40000000892E+02 0.  0.
         12    1    3    3    0    0  0.31823511814E+02 -0.67823369340E+01 -0.17234959086E+02  0.36820915431E+02  0.00000000000E+00 0. -1.
         11    1    4    4    0    0  0.44158453123E+01  0.63558939759E+01  0.13048337927E+02  0.15170899808E+02  0.51100000000E-03 0. -1.
        -11    1    4    4    0    0 -0.24961025189E+02  0.69521665292E+01  0.20511157013E+01  0.25992161777E+02  0.51100000000E-03 0.  1.
        -12    1    4    4    0    0 -0.11278331937E+02 -0.65257235710E+01  0.21355054581E+01  0.13204022985E+02  0.00000000000E+00 0.  1.
</event>
<event>
 8    1  0.2401501E-006  0.9118800E+02  0.7816164E-02  0.1184000E+00
        -11   -1    0    0    0    0  0.00000000000E+00  0.00000000000E+00  0.45593999997E+02  0.45594000000E+02  0.51100000000E-03 0.  1.
         11   -1    0    0    0    0 -0.00000000000E+00 -0.00000000000E+00 -0.45593999997E+02  0.45594000000E+02  0.51100000000E-03 0. -1.
         23    2    1    2    0    0  0.00000000000E+00 -0.88817841970E-15  0.44408920985E-15  0.91188000000E+02  0.91188000000E+02 0.  0.
    9900012    2    3    3    0    0 -0.36497220739E+02  0.47065543839E+01  0.12580334990E+01  0.54367062693E+02  0.39999951022E+02 0.  0.
         12    1    3    3    0    0  0.36497220739E+02 -0.47065543839E+01 -0.12580334990E+01  0.36820937307E+02  0.00000000000E+00 0. -1.
         11    1    4    4    0    0 -0.43358806224E+01 -0.31601278308E+01 -0.56486694342E+01  0.77906184168E+01  0.51100000000E-03 0. -1.
        -11    1    4    4    0    0 -0.15963516109E+02  0.12810318749E+01  0.19348326455E+02  0.25116381629E+02  0.51100000000E-03 0.  1.
         12    1    4    4    0    0 -0.16197824008E+02  0.65856503399E+01 -0.12441623522E+02  0.21460062648E+02  0.00000000000E+00 0. -1.
</event>
<event>
 8    1  0.2401501E-006  0.9118800E+02  0.7816164E-02  0.1184000E+00
        -11   -1    0    0    0    0  0.00000000000E+00  0.00000000000E+00  0.45593999997E+02  0.45594000000E+02  0.51100000000E-03 0. -1.
         11   -1    0    0    0    0 -0.00000000000E+00 -0.00000000000E+00 -0.45593999997E+02  0.45594000000E+02  0.51100000000E-03 0.  1.
         23    2    1    2    0    0  0.00000000000E+00  0.00000000000E+00  0.71054273576E-14  0.91188000000E+02  0.91188000000E+02 0.  0.
    9900012    2    3    3    0    0  0.97263090476E+01 -0.93931736570E+01 -0.34248314041E+02  0.54367084562E+02  0.40000000877E+02 0.  0.
         12    1    3    3    0    0 -0.97263090476E+01  0.93931736570E+01  0.34248314041E+02  0.36820915438E+02  0.00000000000E+00 0. -1.
         11    1    4    4    0    0  0.65012740034E+01  0.61996802138E+01  0.11953752043E+01  0.90626442367E+01  0.51100000000E-03 0. -1.
        -11    1    4    4    0    0 -0.97515615323E+01 -0.71415178303E+01 -0.20415274824E+02  0.23725043217E+02  0.51100000000E-03 0.  1.
        -12    1    4    4    0    0  0.12976596577E+02 -0.84513360405E+01 -0.15028414421E+02  0.21579397109E+02  0.00000000000E+00 0.  1.
</event>
<event>
 8    1  0.2401501E-006  0.9118800E+02  0.7816164E-02  0.1184000E+00
        -11   -1    0    0    0    0  0.00000000000E+00  0.00000000000E+00  0.45593999997E+02  0.45594000000E+02  0.51100000000E-03 0.  1.
         11   -1    0    0    0    0 -0.00000000000E+00 -0.00000000000E+00 -0.45593999997E+02  0.45594000000E+02  0.51100000000E-03 0. -1.
         23    2    1    2    0    0 -0.11102230246E-15  0.00000000000E+00  0.00000000000E+00  0.91188000000E+02  0.91188000000E+02 0.  0.
    9900012    2    3    3    0    0 -0.59137523831E+00 -0.92427730988E+01  0.35637090256E+02  0.54367071425E+02  0.39999970928E+02 0.  0.
         12    1    3    3    0    0  0.59137523831E+00  0.92427730988E+01 -0.35637090256E+02  0.36820928575E+02  0.00000000000E+00 0. -1.
         11    1    4    4    0    0 -0.45223440993E+01 -0.79028373436E+01  0.10003498644E+02  0.13526877674E+02  0.51100000000E-03 0. -1.
        -11    1    4    4    0    0  0.13814544630E+02 -0.10685703265E+02  0.10030933891E+02  0.20140643798E+02  0.51100000000E-03 0.  1.
         12    1    4    4    0    0 -0.98835757691E+01  0.93457675094E+01  0.15602657721E+02  0.20699549953E+02  0.00000000000E+00 0. -1.
</event>
<event>
 8    1  0.2401501E-006  0.9118800E+02  0.7816164E-02  0.1184000E+00
        -11   -1    0    0    0    0  0.00000000000E+00  0.00000000000E+00  0.45593999997E+02  0.45594000000E+02  0.51100000000E-03 0.  1.
         11   -1    0    0    0    0 -0.00000000000E+00 -0.00000000000E+00 -0.45593999997E+02  0.45594000000E+02  0.51100000000E-03 0. -1.
         23    2    1    2    0    0 -0.17763568394E-14  0.00000000000E+00 -0.35527136788E-14  0.91188000000E+02  0.91188000000E+02 0.  0.
    9900012    2    3    3    0    0 -0.12912551810E+02  0.20238708971E+02 -0.27918363659E+02  0.54367158559E+02  0.40000169565E+02 0.  0.
        -12    1    3    3    0    0  0.12912551810E+02 -0.20238708971E+02  0.27918363659E+02  0.36820841441E+02  0.00000000000E+00 0.  1.
         11    1    4    4    0    0  0.20145604740E+01  0.44542171534E+01 -0.13881693044E+02  0.14717333536E+02  0.51100000000E-03 0.  1.
        -11    1    4    4    0    0 -0.75461701783E+01  0.23818111917E+02 -0.14201654730E+02  0.28739069870E+02  0.51100000000E-03 0. -1.
        -12    1    4    4    0    0 -0.73809421054E+01 -0.80336200990E+01  0.16498411524E+00  0.10910755153E+02  0.00000000000E+00 0.  1.
</event>
<event>
 8    1  0.2401501E-006  0.9118800E+02  0.7816164E-02  0.1184000E+00
        -11   -1    0    0    0    0  0.00000000000E+00  0.00000000000E+00  0.45593999997E+02  0.45594000000E+02  0.51100000000E-03 0. -1.
         11   -1    0    0    0    0 -0.00000000000E+00 -0.00000000000E+00 -0.45593999997E+02  0.45594000000E+02  0.51100000000E-03 0.  1.
         23    2    1    2    0    0  0.35527136788E-14  0.71054273576E-14 -0.13322676296E-14  0.91188000000E+02  0.91188000000E+02 0.  0.
    9900012    2    3    3    0    0 -0.24181030689E+02 -0.27525171644E+02  0.36636658852E+01  0.54367085196E+02  0.40000002322E+02 0.  0.
        -12    1    3    3    0    0  0.24181030689E+02  0.27525171644E+02 -0.36636658852E+01  0.36820914804E+02  0.00000000000E+00 0.  1.
         11    1    4    4    0    0 -0.92080591270E+01 -0.18006391214E+02  0.18942487125E+02  0.27709859188E+02  0.51100000000E-03 0. -1.
        -11    1    4    4    0    0 -0.48450522744E+01 -0.13746618917E+00 -0.11291297249E+02  0.12287669524E+02  0.51100000000E-03 0.  1.
        -12    1    4    4    0    0 -0.10127919288E+02 -0.93813142408E+01 -0.39875239907E+01  0.14369556485E+02  0.00000000000E+00 0.  1.
</event>
<event>
 8    1  0.2401501E-006  0.9118800E+02  0.7816164E-02  0.1184000E+00
        -11   -1    0    0    0    0  0.00000000000E+00  0.00000000000E+00  0.45593999997E+02  0.45594000000E+02  0.51100000000E-03 0. -1.
         11   -1    0    0    0    0 -0.00000000000E+00 -0.00000000000E+00 -0.45593999997E+02  0.45594000000E+02  0.51100000000E-03 0.  1.
         23    2    1    2    0    0  0.00000000000E+00  0.00000000000E+00  0.00000000000E+00  0.91188000000E+02  0.91188000000E+02 0.  0.
    9900012    2    3    3    0    0 -0.34553761195E+02  0.81986863703E+01 -0.97263401525E+01  0.54367047219E+02  0.39999915745E+02 0.  0.
         12    1    3    3    0    0  0.34553761195E+02 -0.81986863703E+01  0.97263401525E+01  0.36820952781E+02  0.00000000000E+00 0. -1.
         11    1    4    4    0    0  0.75151915448E+00 -0.30922004971E+00  0.60989321366E+01  0.61528344319E+01  0.51100000000E-03 0. -1.
        -11    1    4    4    0    0 -0.14904150339E+02  0.13887599246E+02  0.21660267521E+01  0.20486356003E+02  0.51100000000E-03 0.  1.
         12    1    4    4    0    0 -0.20401130011E+02 -0.53796928258E+01 -0.17991299041E+02  0.27727856784E+02  0.00000000000E+00 0. -1.
</event>
<event>
 8    1  0.2401501E-006  0.9118800E+02  0.7816164E-02  0.1184000E+00
        -11   -1    0    0    0    0  0.00000000000E+00  0.00000000000E+00  0.45593999997E+02  0.45594000000E+02  0.51100000000E-03 0.  1.
         11   -1    0    0    0    0 -0.00000000000E+00 -0.00000000000E+00 -0.45593999997E+02  0.45594000000E+02  0.51100000000E-03 0. -1.
         23    2    1    2    0    0  0.44408920985E-15  0.26645352591E-14 -0.71054273576E-14  0.91188000000E+02  0.91188000000E+02 0.  0.
    9900012    2    3    3    0    0 -0.26482271943E+01 -0.71681926960E+01  0.36019213548E+02  0.54367084227E+02  0.40000000111E+02 0.  0.
         12    1    3    3    0    0  0.26482271943E+01  0.71681926960E+01 -0.36019213548E+02  0.36820915773E+02  0.00000000000E+00 0. -1.
         11    1    4    4    0    0 -0.12172408607E+02 -0.14980116483E+02  0.20553706579E+02  0.28196210305E+02  0.51100000000E-03 0. -1.
        -11    1    4    4    0    0 -0.18682735226E+01  0.69621080592E+00  0.12180911694E+02  0.12343004715E+02  0.51100000000E-03 0.  1.
        -12    1    4    4    0    0  0.11392454935E+02  0.71157129814E+01  0.32845952750E+01  0.13827869207E+02  0.00000000000E+00 0.  1.
</event>
<event>
 8    1  0.2401501E-006  0.9118800E+02  0.7816164E-02  0.1184000E+00
        -11   -1    0    0    0    0  0.00000000000E+00  0.00000000000E+00  0.45593999997E+02  0.45594000000E+02  0.51100000000E-03 0.  1.
         11   -1    0    0    0    0 -0.00000000000E+00 -0.00000000000E+00 -0.45593999997E+02  0.45594000000E+02  0.51100000000E-03 0. -1.
         23    2    1    2    0    0 -0.71054273576E-14  0.35527136788E-14 -0.17763568394E-14  0.91188000000E+02  0.91188000000E+02 0.  0.
    9900012    2    3    3    0    0  0.19567040365E+02 -0.27427759309E+02  0.14853575882E+02  0.54367085212E+02  0.40000002358E+02 0.  0.
         12    1    3    3    0    0 -0.19567040365E+02  0.27427759309E+02 -0.14853575882E+02  0.36820914788E+02  0.00000000000E+00 0. -1.
         11    1    4    4    0    0 -0.20551077042E+01  0.62427964155E+01  0.64713307913E+01  0.92235620686E+01  0.51100000000E-03 0. -1.
        -11    1    4    4    0    0  0.83240988683E+01 -0.19668446827E+00  0.20102703671E+01  0.85656578241E+01  0.51100000000E-03 0.  1.
        -12    1    4    4    0    0  0.13298049200E+02 -0.33473871257E+02  0.63719747235E+01  0.36577865319E+02  0.00000000000E+00 0.  1.
</event>
<event>
 8    1  0.2401501E-006  0.9118800E+02  0.7816164E-02  0.1184000E+00
        -11   -1    0    0    0    0  0.00000000000E+00  0.00000000000E+00  0.45593999997E+02  0.45594000000E+02  0.51100000000E-03 0. -1.
         11   -1    0    0    0    0 -0.00000000000E+00 -0.00000000000E+00 -0.45593999997E+02  0.45594000000E+02  0.51100000000E-03 0.  1.
         23    2    1    2    0    0  0.00000000000E+00  0.35527136788E-14 -0.35527136788E-14  0.91188000000E+02  0.91188000000E+02 0.  0.
    9900012    2    3    3    0    0 -0.19145755559E+02 -0.20965923903E+02 -0.23444614513E+02  0.54367083788E+02  0.39999999111E+02 0.  0.
         12    1    3    3    0    0  0.19145755559E+02  0.20965923903E+02  0.23444614513E+02  0.36820916212E+02  0.00000000000E+00 0. -1.
         11    1    4    4    0    0  0.12313197676E+01  0.97959692313E+01 -0.31847931966E+01  0.10374009327E+02  0.51100000000E-03 0. -1.
        -11    1    4    4    0    0 -0.10682071231E+02 -0.10134807488E+02 -0.21471656706E+01  0.14880567505E+02  0.51100000000E-03 0.  1.
         12    1    4    4    0    0 -0.96950040951E+01 -0.20627085647E+02 -0.18112655646E+02  0.29112506955E+02  0.00000000000E+00 0. -1.
</event>
<event>
 8    1  0.2401501E-006  0.9118800E+02  0.7816164E-02  0.1184000E+00
        -11   -1    0    0    0    0  0.00000000000E+00  0.00000000000E+00  0.45593999997E+02  0.45594000000E+02  0.51100000000E-03 0.  1.
         11   -1    0    0    0    0 -0.00000000000E+00 -0.00000000000E+00 -0.45593999997E+02  0.45594000000E+02  0.51100000000E-03 0. -1.
         23    2    1    2    0    0 -0.71054273576E-14  0.17763568394E-14  0.88817841970E-15  0.91188000000E+02  0.91188000000E+02 0.  0.
    9900012    2    3    3    0    0 -0.34109808659E+02  0.12551578087E+02 -0.58958829057E+01  0.54367046801E+02  0.39999914793E+02 0.  0.
         12    1    3    3    0    0  0.34109808659E+02 -0.12551578087E+02  0.58958829057E+01  0.36820953199E+02  0.00000000000E+00 0. -1.
         11    1    4    4    0    0 -0.11327874614E+01  0.31588529381E+01  0.24782597194E+00  0.33649631930E+01  0.51100000000E-03 0. -1.
        -11    1    4    4    0    0 -0.24224248646E+02 -0.61838806173E+01  0.99951445277E+01  0.26925035123E+02  0.51100000000E-03 0.  1.
         12    1    4    4    0    0 -0.87527725514E+01  0.15576605766E+02 -0.16138853405E+02  0.24077048486E+02  0.00000000000E+00 0. -1.
</event>
<event>
 8    1  0.2401501E-006  0.9118800E+02  0.7816164E-02  0.1184000E+00
        -11   -1    0    0    0    0  0.00000000000E+00  0.00000000000E+00  0.45593999997E+02  0.45594000000E+02  0.51100000000E-03 0.  1.
         11   -1    0    0    0    0 -0.00000000000E+00 -0.00000000000E+00 -0.45593999997E+02  0.45594000000E+02  0.51100000000E-03 0. -1.
         23    2    1    2    0    0 -0.44408920985E-15  0.35527136788E-14 -0.71054273576E-14  0.91188000000E+02  0.91188000000E+02 0.  0.
    9900012    2    3    3    0    0 -0.25732556226E+01 -0.20805230286E+02  0.30270466891E+02  0.54367076362E+02  0.39999982183E+02 0.  0.
         12    1    3    3    0    0  0.25732556226E+01  0.20805230286E+02 -0.30270466891E+02  0.36820923638E+02  0.00000000000E+00 0. -1.
         11    1    4    4    0    0  0.67729132646E+01 -0.14525360942E+02 -0.44270472652E+00  0.16032917774E+02  0.51100000000E-03 0. -1.
        -11    1    4    4    0    0 -0.85450332767E+01  0.19036638215E+01  0.27336116481E+01  0.91713773529E+01  0.51100000000E-03 0.  1.
        -12    1    4    4    0    0 -0.80113561046E+00 -0.81835331649E+01  0.27979559969E+02  0.29162781236E+02  0.00000000000E+00 0.  1.
</event>
<event>
 8    1  0.2401501E-006  0.9118800E+02  0.7816164E-02  0.1184000E+00
        -11   -1    0    0    0    0  0.00000000000E+00  0.00000000000E+00  0.45593999997E+02  0.45594000000E+02  0.51100000000E-03 0. -1.
         11   -1    0    0    0    0 -0.00000000000E+00 -0.00000000000E+00 -0.45593999997E+02  0.45594000000E+02  0.51100000000E-03 0.  1.
         23    2    1    2    0    0  0.00000000000E+00  0.17763568394E-14  0.00000000000E+00  0.91188000000E+02  0.91188000000E+02 0.  0.
    9900012    2    3    3    0    0 -0.32915366551E+02  0.15210089479E+02  0.64040493727E+01  0.54367081686E+02  0.39999994319E+02 0.  0.
        -12    1    3    3    0    0  0.32915366551E+02 -0.15210089479E+02 -0.64040493727E+01  0.36820918314E+02  0.00000000000E+00 0.  1.
         11    1    4    4    0    0 -0.68706890262E+01  0.39894454735E+01 -0.43159035076E+01  0.90415190222E+01  0.51100000000E-03 0. -1.
        -11    1    4    4    0    0 -0.21511798012E+02 -0.75206800723E+01 -0.91233571790E+00  0.22806806861E+02  0.51100000000E-03 0.  1.
         12    1    4    4    0    0 -0.45328795126E+01  0.18741324078E+02  0.11632288598E+02  0.22518755802E+02  0.00000000000E+00 0. -1.
</event>
<event>
 8    1  0.2401501E-006  0.9118800E+02  0.7816164E-02  0.1184000E+00
        -11   -1    0    0    0    0  0.00000000000E+00  0.00000000000E+00  0.45593999997E+02  0.45594000000E+02  0.51100000000E-03 0. -1.
         11   -1    0    0    0    0 -0.00000000000E+00 -0.00000000000E+00 -0.45593999997E+02  0.45594000000E+02  0.51100000000E-03 0.  1.
         23    2    1    2    0    0  0.00000000000E+00  0.71054273576E-14  0.71054273576E-14  0.91188000000E+02  0.91188000000E+02 0.  0.
    9900012    2    3    3    0    0 -0.70940060555E+01 -0.17777353952E+02 -0.31455056277E+02  0.54367084737E+02  0.40000001274E+02 0.  0.
         12    1    3    3    0    0  0.70940060555E+01  0.17777353952E+02  0.31455056277E+02  0.36820915263E+02  0.00000000000E+00 0. -1.
         11    1    4    4    0    0 -0.30675815994E+01  0.11636660779E+02 -0.54352352667E+01  0.13204685290E+02  0.51100000000E-03 0. -1.
        -11    1    4    4    0    0 -0.52027467015E+01 -0.22001667665E+02 -0.12852344891E+02  0.26006243918E+02  0.51100000000E-03 0.  1.
         12    1    4    4    0    0  0.11763222453E+01 -0.74123470662E+01 -0.13167476119E+02  0.15156155528E+02  0.00000000000E+00 0. -1.
</event>
<event>
 8    1  0.2401501E-006  0.9118800E+02  0.7816164E-02  0.1184000E+00
        -11   -1    0    0    0    0  0.00000000000E+00  0.00000000000E+00  0.45593999997E+02  0.45594000000E+02  0.51100000000E-03 0.  1.
         11   -1    0    0    0    0 -0.00000000000E+00 -0.00000000000E+00 -0.45593999997E+02  0.45594000000E+02  0.51100000000E-03 0. -1.
         23    2    1    2    0    0  0.35527136788E-14  0.35527136788E-14  0.00000000000E+00  0.91188000000E+02  0.91188000000E+02 0.  0.
    9900012    2    3    3    0    0 -0.26563660556E+02  0.19301709526E+02 -0.16661202213E+02  0.54367085944E+02  0.40000004027E+02 0.  0.
        -12    1    3    3    0    0  0.26563660556E+02 -0.19301709526E+02  0.16661202213E+02  0.36820914056E+02  0.00000000000E+00 0.  1.
         11    1    4    4    0    0 -0.16708782382E+02  0.58177058827E+01 -0.71590051463E+01  0.19086132803E+02  0.51100000000E-03 0. -1.
        -11    1    4    4    0    0 -0.49385557968E+01 -0.63640544165E+01  0.56427722014E+01  0.98352122678E+01  0.51100000000E-03 0.  1.
         12    1    4    4    0    0 -0.49163223766E+01  0.19848058059E+02 -0.15144969268E+02  0.25445740873E+02  0.00000000000E+00 0. -1.
</event>
<event>
 8    1  0.2401501E-006  0.9118800E+02  0.7816164E-02  0.1184000E+00
        -11   -1    0    0    0    0  0.00000000000E+00  0.00000000000E+00  0.45593999997E+02  0.45594000000E+02  0.51100000000E-03 0.  1.
         11   -1    0    0    0    0 -0.00000000000E+00 -0.00000000000E+00 -0.45593999997E+02  0.45594000000E+02  0.51100000000E-03 0. -1.
         23    2    1    2    0    0  0.00000000000E+00  0.00000000000E+00  0.00000000000E+00  0.91188000000E+02  0.91188000000E+02 0.  0.
    9900012    2    3    3    0    0  0.21896365433E+02 -0.28164706880E+02  0.91147209594E+01  0.54367086500E+02  0.40000005294E+02 0.  0.
         12    1    3    3    0    0 -0.21896365433E+02  0.28164706880E+02 -0.91147209594E+01  0.36820913500E+02  0.00000000000E+00 0. -1.
         11    1    4    4    0    0  0.29149949541E+02 -0.18075697364E+02  0.33504011507E+01  0.34462669391E+02  0.51100000000E-03 0. -1.
        -11    1    4    4    0    0  0.14040797128E+00 -0.99362337234E+01  0.73259517645E+01  0.12345769499E+02  0.51100000000E-03 0.  1.
         12    1    4    4    0    0 -0.73939920798E+01 -0.15277579286E+00 -0.15616319558E+01  0.75586476095E+01  0.00000000000E+00 0. -1.
</event>
<event>
 8    1  0.2401501E-006  0.9118800E+02  0.7816164E-02  0.1184000E+00
        -11   -1    0    0    0    0  0.00000000000E+00  0.00000000000E+00  0.45593999997E+02  0.45594000000E+02  0.51100000000E-03 0. -1.
         11   -1    0    0    0    0 -0.00000000000E+00 -0.00000000000E+00 -0.45593999997E+02  0.45594000000E+02  0.51100000000E-03 0.  1.
         23    2    1    2    0    0  0.00000000000E+00  0.00000000000E+00  0.44408920985E-15  0.91188000000E+02  0.91188000000E+02 0.  0.
    9900012    2    3    3    0    0 -0.35536978059E+02  0.90971860426E+01  0.31851227289E+01  0.54367073745E+02  0.39999976217E+02 0.  0.
        -12    1    3    3    0    0  0.35536978059E+02 -0.90971860426E+01 -0.31851227289E+01  0.36820926255E+02  0.00000000000E+00 0.  1.
         11    1    4    4    0    0 -0.22708108694E+02  0.98384129503E+01  0.14070293663E+02  0.28467977340E+02  0.51100000000E-03 0. -1.
        -11    1    4    4    0    0  0.50149081921E-01  0.60832515162E+01  0.20419132152E+01  0.64169988141E+01  0.51100000000E-03 0.  1.
         12    1    4    4    0    0 -0.12879018447E+02 -0.68244784239E+01 -0.12927084149E+02  0.19482097591E+02  0.00000000000E+00 0. -1.
</event>
<event>
 8    1  0.2401501E-006  0.9118800E+02  0.7816164E-02  0.1184000E+00
        -11   -1    0    0    0    0  0.00000000000E+00  0.00000000000E+00  0.45593999997E+02  0.45594000000E+02  0.51100000000E-03 0.  1.
         11   -1    0    0    0    0 -0.00000000000E+00 -0.00000000000E+00 -0.45593999997E+02  0.45594000000E+02  0.51100000000E-03 0. -1.
         23    2    1    2    0    0  0.17763568394E-14 -0.35527136788E-14 -0.35527136788E-14  0.91188000000E+02  0.91188000000E+02 0.  0.
    9900012    2    3    3    0    0 -0.30638982185E+01  0.25119713776E+02  0.26746668273E+02  0.54367193976E+02  0.40000250307E+02 0.  0.
         12    1    3    3    0    0  0.30638982185E+01 -0.25119713776E+02 -0.26746668273E+02  0.36820806024E+02  0.00000000000E+00 0. -1.
         11    1    4    4    0    0 -0.17588267887E+02  0.22148854272E+02  0.13748312231E+02  0.31447336967E+02  0.51100000000E-03 0. -1.
        -11    1    4    4    0    0  0.14204115441E+02  0.95230849561E+00  0.14548331655E+02  0.20354796514E+02  0.51100000000E-03 0.  1.
        -12    1    4    4    0    0  0.32025422771E+00  0.20185510085E+01 -0.15499756124E+01  0.25650604950E+01  0.00000000000E+00 0.  1.
</event>
<event>
 8    1  0.2401501E-006  0.9118800E+02  0.7816164E-02  0.1184000E+00
        -11   -1    0    0    0    0  0.00000000000E+00  0.00000000000E+00  0.45593999997E+02  0.45594000000E+02  0.51100000000E-03 0.  1.
         11   -1    0    0    0    0 -0.00000000000E+00 -0.00000000000E+00 -0.45593999997E+02  0.45594000000E+02  0.51100000000E-03 0. -1.
         23    2    1    2    0    0  0.00000000000E+00  0.88817841970E-15  0.00000000000E+00  0.91188000000E+02  0.91188000000E+02 0.  0.
    9900012    2    3    3    0    0 -0.11525169682E+02  0.33650643996E+01  0.34808425576E+02  0.54367086300E+02  0.40000004838E+02 0.  0.
         12    1    3    3    0    0  0.11525169682E+02 -0.33650643996E+01 -0.34808425576E+02  0.36820913700E+02  0.00000000000E+00 0. -1.
         11    1    4    4    0    0 -0.66599553825E+01  0.59451614446E+01  0.12836907465E+01  0.90193022177E+01  0.51100000000E-03 0. -1.
        -11    1    4    4    0    0 -0.11846694674E+02 -0.75396336441E+01  0.33984783850E+02  0.36771670941E+02  0.51100000000E-03 0.  1.
        -12    1    4    4    0    0  0.69814803751E+01  0.49595365992E+01 -0.46004902069E+00  0.85761131410E+01  0.00000000000E+00 0.  1.
</event>
<event>
 8    1  0.2401501E-006  0.9118800E+02  0.7816164E-02  0.1184000E+00
        -11   -1    0    0    0    0  0.00000000000E+00  0.00000000000E+00  0.45593999997E+02  0.45594000000E+02  0.51100000000E-03 0. -1.
         11   -1    0    0    0    0 -0.00000000000E+00 -0.00000000000E+00 -0.45593999997E+02  0.45594000000E+02  0.51100000000E-03 0.  1.
         23    2    1    2    0    0  0.00000000000E+00 -0.35527136788E-14  0.35527136788E-14  0.91188000000E+02  0.91188000000E+02 0.  0.
    9900012    2    3    3    0    0  0.25307167408E+02  0.20305468346E+02  0.17407359571E+02  0.54367069347E+02  0.39999966190E+02 0.  0.
        -12    1    3    3    0    0 -0.25307167408E+02 -0.20305468346E+02 -0.17407359571E+02  0.36820930653E+02  0.00000000000E+00 0.  1.
         11    1    4    4    0    0  0.39538328014E+00  0.40935623860E+00  0.91598142758E+01  0.91774777743E+01  0.51100000000E-03 0. -1.
        -11    1    4    4    0    0  0.17103013764E+02  0.90546151671E+01  0.19683155174E+02  0.27603002255E+02  0.51100000000E-03 0.  1.
        -12    1    4    4    0    0  0.78087703635E+01  0.10841496940E+02 -0.11435609879E+02  0.17586589317E+02  0.00000000000E+00 0.  1.
</event>
<event>
 8    1  0.2401501E-006  0.9118800E+02  0.7816164E-02  0.1184000E+00
        -11   -1    0    0    0    0  0.00000000000E+00  0.00000000000E+00  0.45593999997E+02  0.45594000000E+02  0.51100000000E-03 0.  1.
         11   -1    0    0    0    0 -0.00000000000E+00 -0.00000000000E+00 -0.45593999997E+02  0.45594000000E+02  0.51100000000E-03 0. -1.
         23    2    1    2    0    0  0.71054273576E-14 -0.35527136788E-14  0.17763568394E-14  0.91188000000E+02  0.91188000000E+02 0.  0.
    9900012    2    3    3    0    0  0.24316029457E+02 -0.23186971818E+02  0.15062414593E+02  0.54367064596E+02  0.39999955358E+02 0.  0.
         12    1    3    3    0    0 -0.24316029457E+02  0.23186971818E+02 -0.15062414593E+02  0.36820935404E+02  0.00000000000E+00 0. -1.
         11    1    4    4    0    0 -0.44596902648E+01  0.78134985705E+00  0.11107552232E+02  0.11994876477E+02  0.51100000000E-03 0. -1.
        -11    1    4    4    0    0  0.10293488615E+02 -0.20697767897E+02  0.46957046422E+01  0.23588199298E+02  0.51100000000E-03 0.  1.
         12    1    4    4    0    0  0.18482231107E+02 -0.32705537788E+01 -0.74084228075E+00  0.18783988820E+02  0.00000000000E+00 0. -1.
</event>
<event>
 8    1  0.2401501E-006  0.9118800E+02  0.7816164E-02  0.1184000E+00
        -11   -1    0    0    0    0  0.00000000000E+00  0.00000000000E+00  0.45593999997E+02  0.45594000000E+02  0.51100000000E-03 0.  1.
         11   -1    0    0    0    0 -0.00000000000E+00 -0.00000000000E+00 -0.45593999997E+02  0.45594000000E+02  0.51100000000E-03 0. -1.
         23    2    1    2    0    0 -0.26645352591E-14  0.44408920985E-15  0.00000000000E+00  0.91188000000E+02  0.91188000000E+02 0.  0.
    9900012    2    3    3    0    0 -0.45181504418E+01 -0.23474289306E+01  0.36467194824E+02  0.54367076541E+02  0.39999982591E+02 0.  0.
         12    1    3    3    0    0  0.45181504418E+01  0.23474289306E+01 -0.36467194824E+02  0.36820923459E+02  0.00000000000E+00 0. -1.
         11    1    4    4    0    0  0.42994388852E+01 -0.42238501253E+01  0.20545302466E+01  0.63676667158E+01  0.51100000000E-03 0. -1.
        -11    1    4    4    0    0  0.86623032035E+01 -0.92831175846E+01  0.14006154389E+02  0.18904606050E+02  0.51100000000E-03 0.  1.
         12    1    4    4    0    0 -0.17479892530E+02  0.11159538779E+02  0.20406510189E+02  0.29094803776E+02  0.00000000000E+00 0. -1.
</event>
<event>
 8    1  0.2401501E-006  0.9118800E+02  0.7816164E-02  0.1184000E+00
        -11   -1    0    0    0    0  0.00000000000E+00  0.00000000000E+00  0.45593999997E+02  0.45594000000E+02  0.51100000000E-03 0. -1.
         11   -1    0    0    0    0 -0.00000000000E+00 -0.00000000000E+00 -0.45593999997E+02  0.45594000000E+02  0.51100000000E-03 0.  1.
         23    2    1    2    0    0 -0.66613381478E-15  0.35527136788E-14  0.35527136788E-14  0.91188000000E+02  0.91188000000E+02 0.  0.
    9900012    2    3    3    0    0  0.14331613959E+01  0.25923070560E+02 -0.26109794188E+02  0.54367069927E+02  0.39999967514E+02 0.  0.
         12    1    3    3    0    0 -0.14331613959E+01 -0.25923070560E+02  0.26109794188E+02  0.36820930073E+02  0.00000000000E+00 0. -1.
         11    1    4    4    0    0 -0.37308381770E+01  0.12803419120E+02  0.44423349322E+00  0.13343314368E+02  0.51100000000E-03 0. -1.
        -11    1    4    4    0    0  0.96063158217E+01  0.20095951080E+02 -0.23013062738E+02  0.32027013759E+02  0.51100000000E-03 0.  1.
        -12    1    4    4    0    0 -0.44423162488E+01 -0.69762996390E+01 -0.35409649435E+01  0.89967418012E+01  0.00000000000E+00 0.  1.
</event>
<event>
 8    1  0.2401501E-006  0.9118800E+02  0.7816164E-02  0.1184000E+00
        -11   -1    0    0    0    0  0.00000000000E+00  0.00000000000E+00  0.45593999997E+02  0.45594000000E+02  0.51100000000E-03 0.  1.
         11   -1    0    0    0    0 -0.00000000000E+00 -0.00000000000E+00 -0.45593999997E+02  0.45594000000E+02  0.51100000000E-03 0. -1.
         23    2    1    2    0    0  0.00000000000E+00  0.88817841970E-15  0.00000000000E+00  0.91188000000E+02  0.91188000000E+02 0.  0.
    9900012    2    3    3    0    0 -0.30412500510E+02  0.67274984910E+01 -0.19636650443E+02  0.54367116471E+02  0.40000073619E+02 0.  0.
         12    1    3    3    0    0  0.30412500510E+02 -0.67274984910E+01  0.19636650443E+02  0.36820883529E+02  0.00000000000E+00 0. -1.
         11    1    4    4    0    0  0.22603636342E+01 -0.53887742939E+01 -0.77795175557E+01  0.97298009132E+01  0.51100000000E-03 0. -1.
        -11    1    4    4    0    0 -0.18935473021E+02 -0.91660217736E-01  0.51223311297E+01  0.19616289572E+02  0.51100000000E-03 0.  1.
         12    1    4    4    0    0 -0.13737391123E+02  0.12207933003E+02 -0.16979464017E+02  0.25021025986E+02  0.00000000000E+00 0. -1.
</event>
<event>
 8    1  0.2401501E-006  0.9118800E+02  0.7816164E-02  0.1184000E+00
        -11   -1    0    0    0    0  0.00000000000E+00  0.00000000000E+00  0.45593999997E+02  0.45594000000E+02  0.51100000000E-03 0. -1.
         11   -1    0    0    0    0 -0.00000000000E+00 -0.00000000000E+00 -0.45593999997E+02  0.45594000000E+02  0.51100000000E-03 0.  1.
         23    2    1    2    0    0 -0.17763568394E-14  0.00000000000E+00 -0.35527136788E-14  0.91188000000E+02  0.91188000000E+02 0.  0.
    9900012    2    3    3    0    0 -0.98421255117E+01 -0.21081198678E+02 -0.28539356270E+02  0.54367092507E+02  0.40000018987E+02 0.  0.
         12    1    3    3    0    0  0.98421255117E+01  0.21081198678E+02  0.28539356270E+02  0.36820907493E+02  0.00000000000E+00 0. -1.
         11    1    4    4    0    0 -0.14230149236E+02 -0.75074417251E+01 -0.97065610228E+01  0.18790320798E+02  0.51100000000E-03 0. -1.
        -11    1    4    4    0    0  0.12854760791E+02 -0.30581526672E+01 -0.10574263155E+01  0.13255765667E+02  0.51100000000E-03 0.  1.
         12    1    4    4    0    0 -0.84667370674E+01 -0.10515604286E+02 -0.17775368932E+02  0.22321006042E+02  0.00000000000E+00 0. -1.
</event>
<event>
 8    1  0.2401501E-006  0.9118800E+02  0.7816164E-02  0.1184000E+00
        -11   -1    0    0    0    0  0.00000000000E+00  0.00000000000E+00  0.45593999997E+02  0.45594000000E+02  0.51100000000E-03 0.  1.
         11   -1    0    0    0    0 -0.00000000000E+00 -0.00000000000E+00 -0.45593999997E+02  0.45594000000E+02  0.51100000000E-03 0. -1.
         23    2    1    2    0    0 -0.17763568394E-14  0.00000000000E+00  0.00000000000E+00  0.91188000000E+02  0.91188000000E+02 0.  0.
    9900012    2    3    3    0    0 -0.99053023226E+01 -0.14020358550E+02 -0.32574434168E+02  0.54367092497E+02  0.40000018965E+02 0.  0.
        -12    1    3    3    0    0  0.99053023226E+01  0.14020358550E+02  0.32574434168E+02  0.36820907503E+02  0.00000000000E+00 0.  1.
         11    1    4    4    0    0 -0.18186749428E+02 -0.39529464209E+01  0.16482579647E+00  0.18612114549E+02  0.51100000000E-03 0. -1.
        -11    1    4    4    0    0  0.31694587127E+01 -0.37210272024E+01 -0.56717294496E+01  0.74873244342E+01  0.51100000000E-03 0.  1.
         12    1    4    4    0    0  0.51119883931E+01 -0.63463849271E+01 -0.27067530515E+02  0.28267653514E+02  0.00000000000E+00 0. -1.
</event>
<event>
 8    1  0.2401501E-006  0.9118800E+02  0.7816164E-02  0.1184000E+00
        -11   -1    0    0    0    0  0.00000000000E+00  0.00000000000E+00  0.45593999997E+02  0.45594000000E+02  0.51100000000E-03 0. -1.
         11   -1    0    0    0    0 -0.00000000000E+00 -0.00000000000E+00 -0.45593999997E+02  0.45594000000E+02  0.51100000000E-03 0.  1.
         23    2    1    2    0    0 -0.17763568394E-14  0.00000000000E+00  0.35527136788E-14  0.91188000000E+02  0.91188000000E+02 0.  0.
    9900012    2    3    3    0    0 -0.10393898188E+02  0.18420525029E+02  0.30140138323E+02  0.54367125485E+02  0.40000094169E+02 0.  0.
        -12    1    3    3    0    0  0.10393898188E+02 -0.18420525029E+02 -0.30140138323E+02  0.36820874515E+02  0.00000000000E+00 0.  1.
         11    1    4    4    0    0  0.10104873504E+02  0.11523587274E+02  0.92131598667E+01  0.17882501145E+02  0.51100000000E-03 0. -1.
        -11    1    4    4    0    0 -0.44201138736E+01  0.67139691970E+01 -0.21843806125E+01  0.83298444136E+01  0.51100000000E-03 0.  1.
         12    1    4    4    0    0 -0.16078657819E+02  0.18296855853E+00  0.23111359069E+02  0.28154779927E+02  0.00000000000E+00 0. -1.
</event>
<event>
 8    1  0.2401501E-006  0.9118800E+02  0.7816164E-02  0.1184000E+00
        -11   -1    0    0    0    0  0.00000000000E+00  0.00000000000E+00  0.45593999997E+02  0.45594000000E+02  0.51100000000E-03 0.  1.
         11   -1    0    0    0    0 -0.00000000000E+00 -0.00000000000E+00 -0.45593999997E+02  0.45594000000E+02  0.51100000000E-03 0. -1.
         23    2    1    2    0    0  0.00000000000E+00  0.00000000000E+00  0.00000000000E+00  0.91188000000E+02  0.91188000000E+02 0.  0.
    9900012    2    3    3    0    0 -0.77679666380E+01  0.38988924116E+01 -0.35780403794E+02  0.54367082529E+02  0.39999996241E+02 0.  0.
        -12    1    3    3    0    0  0.77679666380E+01 -0.38988924116E+01  0.35780403794E+02  0.36820917471E+02  0.00000000000E+00 0.  1.
         11    1    4    4    0    0 -0.13700115418E+02  0.15551264012E+02 -0.19484678327E+02  0.28446224084E+02  0.51100000000E-03 0. -1.
        -11    1    4    4    0    0  0.19268080242E+01  0.85440351414E+00  0.23229787516E+01  0.31366901455E+01  0.51100000000E-03 0.  1.
         12    1    4    4    0    0  0.40053407559E+01 -0.12506775114E+02 -0.18618704219E+02  0.22784168300E+02  0.00000000000E+00 0. -1.
</event>
<event>
 8    1  0.2466598E-006  0.9118800E+02  0.7816164E-02  0.1184000E+00
        -11   -1    0    0    0    0  0.00000000000E+00  0.00000000000E+00  0.45593999997E+02  0.45594000000E+02  0.51100000000E-03 0. -1.
         11   -1    0    0    0    0 -0.00000000000E+00 -0.00000000000E+00 -0.45593999997E+02  0.45594000000E+02  0.51100000000E-03 0.  1.
         23    2    1    2    0    0  0.44408920985E-15  0.00000000000E+00 -0.35527136788E-14  0.91188000000E+02  0.91188000000E+02 0.  0.
    9900012    2    3    3    0    0 -0.33501538215E+01 -0.20034896748E+02 -0.30710912980E+02  0.54367071245E+02  0.39999970518E+02 0.  0.
         12    1    3    3    0    0  0.33501538215E+01  0.20034896748E+02  0.30710912980E+02  0.36820928755E+02  0.00000000000E+00 0. -1.
         11    1    4    4    0    0 -0.55663731491E+01  0.63304345981E+01 -0.63636069110E+01  0.10561931898E+02  0.51100000000E-03 0. -1.
        -11    1    4    4    0    0 -0.24940067301E+00  0.46451941244E+01 -0.63309612099E+01  0.78562776969E+01  0.51100000000E-03 0.  1.
        -12    1    4    4    0    0  0.24656200006E+01 -0.31010525470E+02 -0.18016344859E+02  0.35948861651E+02  0.00000000000E+00 0.  1.
</event>
<event>
 8    1  0.2401501E-006  0.9118800E+02  0.7816164E-02  0.1184000E+00
        -11   -1    0    0    0    0  0.00000000000E+00  0.00000000000E+00  0.45593999997E+02  0.45594000000E+02  0.51100000000E-03 0.  1.
         11   -1    0    0    0    0 -0.00000000000E+00 -0.00000000000E+00 -0.45593999997E+02  0.45594000000E+02  0.51100000000E-03 0. -1.
         23    2    1    2    0    0  0.00000000000E+00  0.00000000000E+00  0.00000000000E+00  0.91188000000E+02  0.91188000000E+02 0.  0.
    9900012    2    3    3    0    0  0.18900527855E+02 -0.24059731024E+02  0.20486393488E+02  0.54366906476E+02  0.39999594891E+02 0.  0.
         12    1    3    3    0    0 -0.18900527855E+02  0.24059731024E+02 -0.20486393488E+02  0.36821093524E+02  0.00000000000E+00 0. -1.
         11    1    4    4    0    0  0.12768836363E+02 -0.49053092871E+01  0.24902174385E+02  0.28411679476E+02  0.51100000000E-03 0. -1.
        -11    1    4    4    0    0  0.69076193902E+01 -0.10091261155E+02  0.46776858090E+01  0.13093108956E+02  0.51100000000E-03 0.  1.
         12    1    4    4    0    0 -0.77592789815E+00 -0.90631605817E+01 -0.90934667063E+01  0.12862118044E+02  0.00000000000E+00 0. -1.
</event>
<event>
 8    1  0.2401501E-006  0.9118800E+02  0.7816164E-02  0.1184000E+00
        -11   -1    0    0    0    0  0.00000000000E+00  0.00000000000E+00  0.45593999997E+02  0.45594000000E+02  0.51100000000E-03 0. -1.
         11   -1    0    0    0    0 -0.00000000000E+00 -0.00000000000E+00 -0.45593999997E+02  0.45594000000E+02  0.51100000000E-03 0.  1.
         23    2    1    2    0    0  0.00000000000E+00 -0.71054273576E-14  0.00000000000E+00  0.91188000000E+02  0.91188000000E+02 0.  0.
    9900012    2    3    3    0    0 -0.27782823025E+01  0.26407540820E+02 -0.25508807431E+02  0.54367131987E+02  0.40000108990E+02 0.  0.
         12    1    3    3    0    0  0.27782823025E+01 -0.26407540820E+02  0.25508807431E+02  0.36820868013E+02  0.00000000000E+00 0. -1.
         11    1    4    4    0    0 -0.52590165341E+01 -0.82347465920E+01 -0.12434834258E+02  0.15814341897E+02  0.51100000000E-03 0. -1.
        -11    1    4    4    0    0  0.22396145802E+01  0.12147159702E+02 -0.99079626591E+01  0.15834679871E+02  0.51100000000E-03 0.  1.
         12    1    4    4    0    0  0.24111965144E+00  0.22495127709E+02 -0.31660105145E+01  0.22718110219E+02  0.00000000000E+00 0. -1.
</event>
<event>
 8    1  0.2401501E-006  0.9118800E+02  0.7816164E-02  0.1184000E+00
        -11   -1    0    0    0    0  0.00000000000E+00  0.00000000000E+00  0.45593999997E+02  0.45594000000E+02  0.51100000000E-03 0. -1.
         11   -1    0    0    0    0 -0.00000000000E+00 -0.00000000000E+00 -0.45593999997E+02  0.45594000000E+02  0.51100000000E-03 0.  1.
         23    2    1    2    0    0  0.88817841970E-15  0.00000000000E+00 -0.35527136788E-14  0.91188000000E+02  0.91188000000E+02 0.  0.
    9900012    2    3    3    0    0  0.75159595267E+01 -0.17627811909E+02  0.31441253065E+02  0.54367057663E+02  0.39999939555E+02 0.  0.
        -12    1    3    3    0    0 -0.75159595267E+01  0.17627811909E+02 -0.31441253065E+02  0.36820942337E+02  0.00000000000E+00 0.  1.
         11    1    4    4    0    0  0.35922476224E+01 -0.26502123569E+02  0.28617583992E+02  0.39169285294E+02  0.51100000000E-03 0. -1.
        -11    1    4    4    0    0  0.54137869948E+01 -0.50168642139E+00  0.11624461351E+01  0.55598615243E+01  0.51100000000E-03 0.  1.
        -12    1    4    4    0    0 -0.14900750906E+01  0.93759980817E+01  0.16612229376E+01  0.96379108448E+01  0.00000000000E+00 0.  1.
</event>
<event>
 8    1  0.2401501E-006  0.9118800E+02  0.7816164E-02  0.1184000E+00
        -11   -1    0    0    0    0  0.00000000000E+00  0.00000000000E+00  0.45593999997E+02  0.45594000000E+02  0.51100000000E-03 0. -1.
         11   -1    0    0    0    0 -0.00000000000E+00 -0.00000000000E+00 -0.45593999997E+02  0.45594000000E+02  0.51100000000E-03 0.  1.
         23    2    1    2    0    0  0.35527136788E-14  0.00000000000E+00 -0.35527136788E-14  0.91188000000E+02  0.91188000000E+02 0.  0.
    9900012    2    3    3    0    0  0.17929292598E+02  0.22210715395E+02  0.23259526059E+02  0.54367068943E+02  0.39999965269E+02 0.  0.
         12    1    3    3    0    0 -0.17929292598E+02 -0.22210715395E+02 -0.23259526059E+02  0.36820931057E+02  0.00000000000E+00 0. -1.
         11    1    4    4    0    0  0.13783285763E+02  0.20704187931E+02  0.89202431905E+01  0.26423722356E+02  0.51100000000E-03 0. -1.
        -11    1    4    4    0    0  0.12444233868E+02  0.64079840858E+01  0.10788478853E+02  0.17672365230E+02  0.51100000000E-03 0.  1.
        -12    1    4    4    0    0 -0.82982270326E+01 -0.49014566210E+01  0.35508040155E+01  0.10270981358E+02  0.00000000000E+00 0.  1.
</event>
<event>
 8    1  0.2401501E-006  0.9118800E+02  0.7816164E-02  0.1184000E+00
        -11   -1    0    0    0    0  0.00000000000E+00  0.00000000000E+00  0.45593999997E+02  0.45594000000E+02  0.51100000000E-03 0.  1.
         11   -1    0    0    0    0 -0.00000000000E+00 -0.00000000000E+00 -0.45593999997E+02  0.45594000000E+02  0.51100000000E-03 0. -1.
         23    2    1    2    0    0  0.00000000000E+00 -0.71054273576E-14  0.88817841970E-15  0.91188000000E+02  0.91188000000E+02 0.  0.
    9900012    2    3    3    0    0 -0.14177893440E+01 -0.35973045635E+02 -0.77280912743E+01  0.54366898256E+02  0.39999576152E+02 0.  0.
         12    1    3    3    0    0  0.14177893440E+01  0.35973045635E+02  0.77280912743E+01  0.36821101744E+02  0.00000000000E+00 0. -1.
         11    1    4    4    0    0  0.24798484969E+00 -0.14913396606E+01 -0.17709356871E+02  0.17773770324E+02  0.51100000000E-03 0. -1.
        -11    1    4    4    0    0 -0.39833242185E+01 -0.28627472707E+02  0.79355842111E+01  0.29972863768E+02  0.51100000000E-03 0.  1.
         12    1    4    4    0    0  0.23175500248E+01 -0.58542332674E+01  0.20456813861E+01  0.66202641640E+01  0.00000000000E+00 0. -1.
</event>
<event>
 8    1  0.2401501E-006  0.9118800E+02  0.7816164E-02  0.1184000E+00
        -11   -1    0    0    0    0  0.00000000000E+00  0.00000000000E+00  0.45593999997E+02  0.45594000000E+02  0.51100000000E-03 0. -1.
         11   -1    0    0    0    0 -0.00000000000E+00 -0.00000000000E+00 -0.45593999997E+02  0.45594000000E+02  0.51100000000E-03 0.  1.
         23    2    1    2    0    0  0.00000000000E+00  0.00000000000E+00  0.00000000000E+00  0.91188000000E+02  0.91188000000E+02 0.  0.
    9900012    2    3    3    0    0  0.16332393731E+02  0.16754272772E+02 -0.28431090725E+02  0.54367086637E+02  0.40000005607E+02 0.  0.
         12    1    3    3    0    0 -0.16332393731E+02 -0.16754272772E+02  0.28431090725E+02  0.36820913363E+02  0.00000000000E+00 0. -1.
         11    1    4    4    0    0 -0.50881190532E+01  0.11835734098E+02  0.42853381262E+01  0.13577101320E+02  0.51100000000E-03 0. -1.
        -11    1    4    4    0    0  0.17972726798E+02  0.74645161210E+01 -0.29850570723E+02  0.35634175762E+02  0.51100000000E-03 0.  1.
        -12    1    4    4    0    0  0.34477859857E+01 -0.25459774468E+01 -0.28658581281E+01  0.51558095556E+01  0.00000000000E+00 0.  1.
</event>
<event>
 8    1  0.2401501E-006  0.9118800E+02  0.7816164E-02  0.1184000E+00
        -11   -1    0    0    0    0  0.00000000000E+00  0.00000000000E+00  0.45593999997E+02  0.45594000000E+02  0.51100000000E-03 0. -1.
         11   -1    0    0    0    0 -0.00000000000E+00 -0.00000000000E+00 -0.45593999997E+02  0.45594000000E+02  0.51100000000E-03 0.  1.
         23    2    1    2    0    0  0.88817841970E-15  0.00000000000E+00 -0.35527136788E-14  0.91188000000E+02  0.91188000000E+02 0.  0.
    9900012    2    3    3    0    0  0.35526574096E+01 -0.26276521905E+02 -0.25548046879E+02  0.54367086413E+02  0.40000005095E+02 0.  0.
         12    1    3    3    0    0 -0.35526574096E+01  0.26276521905E+02  0.25548046879E+02  0.36820913587E+02  0.00000000000E+00 0. -1.
         11    1    4    4    0    0 -0.24725614770E+01 -0.19860220212E+02  0.39495324597E+01  0.20399527300E+02  0.51100000000E-03 0. -1.
        -11    1    4    4    0    0  0.27779523684E+01 -0.95958960429E+01 -0.10742442623E+02  0.14669639191E+02  0.51100000000E-03 0.  1.
         12    1    4    4    0    0  0.32472665183E+01  0.31795943506E+01 -0.18755136716E+02  0.19297919922E+02  0.00000000000E+00 0. -1.
</event>
<event>
 8    1  0.2401501E-006  0.9118800E+02  0.7816164E-02  0.1184000E+00
        -11   -1    0    0    0    0  0.00000000000E+00  0.00000000000E+00  0.45593999997E+02  0.45594000000E+02  0.51100000000E-03 0. -1.
         11   -1    0    0    0    0 -0.00000000000E+00 -0.00000000000E+00 -0.45593999997E+02  0.45594000000E+02  0.51100000000E-03 0.  1.
         23    2    1    2    0    0  0.00000000000E+00  0.35527136788E-14 -0.35527136788E-14  0.91188000000E+02  0.91188000000E+02 0.  0.
    9900012    2    3    3    0    0  0.16888151810E+02  0.20328309663E+02 -0.25638376299E+02  0.54367133843E+02  0.40000113221E+02 0.  0.
         12    1    3    3    0    0 -0.16888151810E+02 -0.20328309663E+02  0.25638376299E+02  0.36820866157E+02  0.00000000000E+00 0. -1.
         11    1    4    4    0    0  0.19957360937E+01  0.34540965042E+01  0.60539234903E+01  0.72500851791E+01  0.51100000000E-03 0. -1.
        -11    1    4    4    0    0  0.58427825506E+01  0.38151595382E+01  0.40035214664E+01  0.80449819533E+01  0.51100000000E-03 0.  1.
         12    1    4    4    0    0  0.90496331655E+01  0.13059053621E+02 -0.35695821256E+02  0.39072066710E+02  0.00000000000E+00 0. -1.
</event>
<event>
 8    1  0.2401501E-006  0.9118800E+02  0.7816164E-02  0.1184000E+00
        -11   -1    0    0    0    0  0.00000000000E+00  0.00000000000E+00  0.45593999997E+02  0.45594000000E+02  0.51100000000E-03 0.  1.
         11   -1    0    0    0    0 -0.00000000000E+00 -0.00000000000E+00 -0.45593999997E+02  0.45594000000E+02  0.51100000000E-03 0. -1.
         23    2    1    2    0    0  0.35527136788E-14  0.00000000000E+00  0.00000000000E+00  0.91188000000E+02  0.91188000000E+02 0.  0.
    9900012    2    3    3    0    0  0.25448631125E+02 -0.13304051540E+02 -0.23046683368E+02  0.54367078939E+02  0.39999988057E+02 0.  0.
        -12    1    3    3    0    0 -0.25448631125E+02  0.13304051540E+02  0.23046683368E+02  0.36820921061E+02  0.00000000000E+00 0.  1.
         11    1    4    4    0    0 -0.50929419078E+00 -0.30086786071E+01 -0.10792541706E+02  0.11215635705E+02  0.51100000000E-03 0. -1.
        -11    1    4    4    0    0  0.26007494539E+02 -0.19288436145E+02 -0.94071602562E+01  0.33718365997E+02  0.51100000000E-03 0.  1.
         12    1    4    4    0    0 -0.49569223616E-01  0.89930632118E+01 -0.28469814057E+01  0.94330772373E+01  0.00000000000E+00 0. -1.
</event>
<event>
 8    1  0.2401501E-006  0.9118800E+02  0.7816164E-02  0.1184000E+00
        -11   -1    0    0    0    0  0.00000000000E+00  0.00000000000E+00  0.45593999997E+02  0.45594000000E+02  0.51100000000E-03 0.  1.
         11   -1    0    0    0    0 -0.00000000000E+00 -0.00000000000E+00 -0.45593999997E+02  0.45594000000E+02  0.51100000000E-03 0. -1.
         23    2    1    2    0    0 -0.71054273576E-14  0.71054273576E-14  0.71054273576E-14  0.91188000000E+02  0.91188000000E+02 0.  0.
    9900012    2    3    3    0    0  0.23559150433E+02 -0.24716344366E+02 -0.13778541815E+02  0.54367089331E+02  0.40000011748E+02 0.  0.
        -12    1    3    3    0    0 -0.23559150433E+02  0.24716344366E+02  0.13778541815E+02  0.36820910669E+02  0.00000000000E+00 0.  1.
         11    1    4    4    0    0  0.23702938356E+02 -0.10265719839E+02 -0.50561418261E+00  0.25835439545E+02  0.51100000000E-03 0. -1.
        -11    1    4    4    0    0  0.41883400767E+01 -0.10608572539E+02  0.25460941205E+01  0.11686171292E+02  0.51100000000E-03 0.  1.
        -12    1    4    4    0    0 -0.43321279992E+01 -0.38420519870E+01 -0.15819021753E+02  0.16845478494E+02  0.00000000000E+00 0.  1.
</event>
<event>
 8    1  0.2401501E-006  0.9118800E+02  0.7816164E-02  0.1184000E+00
        -11   -1    0    0    0    0  0.00000000000E+00  0.00000000000E+00  0.45593999997E+02  0.45594000000E+02  0.51100000000E-03 0. -1.
         11   -1    0    0    0    0 -0.00000000000E+00 -0.00000000000E+00 -0.45593999997E+02  0.45594000000E+02  0.51100000000E-03 0.  1.
         23    2    1    2    0    0 -0.35527136788E-14  0.00000000000E+00 -0.35527136788E-14  0.91188000000E+02  0.91188000000E+02 0.  0.
    9900012    2    3    3    0    0 -0.28059265139E+02  0.77672200150E+01  0.22541704052E+02  0.54367075400E+02  0.39999979988E+02 0.  0.
        -12    1    3    3    0    0  0.28059265139E+02 -0.77672200150E+01 -0.22541704052E+02  0.36820924600E+02  0.00000000000E+00 0.  1.
         11    1    4    4    0    0 -0.92560697176E+01 -0.10360208450E+02  0.17529109781E+02  0.22366904920E+02  0.51100000000E-03 0. -1.
        -11    1    4    4    0    0 -0.15213233131E+02  0.14076427614E+02  0.11378278262E+02  0.23644312067E+02  0.51100000000E-03 0.  1.
         12    1    4    4    0    0 -0.35899622904E+01  0.40510008505E+01 -0.63656839909E+01  0.83558584124E+01  0.00000000000E+00 0. -1.
</event>
<event>
 8    1  0.2401501E-006  0.9118800E+02  0.7816164E-02  0.1184000E+00
        -11   -1    0    0    0    0  0.00000000000E+00  0.00000000000E+00  0.45593999997E+02  0.45594000000E+02  0.51100000000E-03 0. -1.
         11   -1    0    0    0    0 -0.00000000000E+00 -0.00000000000E+00 -0.45593999997E+02  0.45594000000E+02  0.51100000000E-03 0.  1.
         23    2    1    2    0    0  0.00000000000E+00  0.13322676296E-14  0.00000000000E+00  0.91188000000E+02  0.91188000000E+02 0.  0.
    9900012    2    3    3    0    0  0.34062171700E+02 -0.35454662882E+01 -0.13527120937E+02  0.54367015861E+02  0.39999844258E+02 0.  0.
         12    1    3    3    0    0 -0.34062171700E+02  0.35454662882E+01  0.13527120937E+02  0.36820984139E+02  0.00000000000E+00 0. -1.
         11    1    4    4    0    0 -0.70903934344E+01 -0.67221438490E+01 -0.73852164217E+01  0.12247543380E+02  0.51100000000E-03 0.  1.
        -11    1    4    4    0    0  0.31766413891E+02  0.12688826585E+01 -0.25640903940E+01  0.31894978829E+02  0.51100000000E-03 0. -1.
        -12    1    4    4    0    0  0.93861512438E+01  0.19077949023E+01 -0.35778141209E+01  0.10224493652E+02  0.00000000000E+00 0.  1.
</event>
<event>
 8    1  0.2401501E-006  0.9118800E+02  0.7816164E-02  0.1184000E+00
        -11   -1    0    0    0    0  0.00000000000E+00  0.00000000000E+00  0.45593999997E+02  0.45594000000E+02  0.51100000000E-03 0.  1.
         11   -1    0    0    0    0 -0.00000000000E+00 -0.00000000000E+00 -0.45593999997E+02  0.45594000000E+02  0.51100000000E-03 0. -1.
         23    2    1    2    0    0  0.00000000000E+00  0.00000000000E+00  0.17763568394E-14  0.91188000000E+02  0.91188000000E+02 0.  0.
    9900012    2    3    3    0    0  0.22949644312E+02 -0.28534283530E+02 -0.38585600109E+01  0.54367082087E+02  0.39999995233E+02 0.  0.
        -12    1    3    3    0    0 -0.22949644312E+02  0.28534283530E+02  0.38585600109E+01  0.36820917913E+02  0.00000000000E+00 0.  1.
         11    1    4    4    0    0  0.10374511390E+02 -0.17820284227E+01  0.10481081552E+02  0.14854601396E+02  0.51100000000E-03 0. -1.
        -11    1    4    4    0    0  0.17479867617E+02 -0.25706327142E+02 -0.14888002091E+02  0.34467573654E+02  0.51100000000E-03 0.  1.
        -12    1    4    4    0    0 -0.49047346954E+01 -0.10459279658E+01  0.54836052838E+00  0.50449070369E+01  0.00000000000E+00 0.  1.
</event>
<event>
 8    1  0.2662758E-006  0.9118800E+02  0.7816164E-02  0.1184000E+00
        -11   -1    0    0    0    0  0.00000000000E+00  0.00000000000E+00  0.45593999997E+02  0.45594000000E+02  0.51100000000E-03 0.  1.
         11   -1    0    0    0    0 -0.00000000000E+00 -0.00000000000E+00 -0.45593999997E+02  0.45594000000E+02  0.51100000000E-03 0. -1.
         23    2    1    2    0    0  0.00000000000E+00  0.00000000000E+00  0.00000000000E+00  0.91188000000E+02  0.91188000000E+02 0.  0.
    9900012    2    3    3    0    0  0.35466143827E+02 -0.76330234714E+01  0.62971272780E+01  0.54367296350E+02  0.40000483687E+02 0.  0.
         12    1    3    3    0    0 -0.35466143827E+02  0.76330234714E+01 -0.62971272780E+01  0.36820703650E+02  0.00000000000E+00 0. -1.
         11    1    4    4    0    0  0.55903972610E+01 -0.11244896449E+02 -0.25353806761E+01  0.12811260403E+02  0.51100000000E-03 0. -1.
        -11    1    4    4    0    0  0.52361757751E+01 -0.84564166880E+01  0.99875878341E+01  0.14095404604E+02  0.51100000000E-03 0.  1.
        -12    1    4    4    0    0  0.24639570791E+02  0.12068289666E+02 -0.11550798801E+01  0.27460631343E+02  0.00000000000E+00 0.  1.
</event>
<event>
 8    1  0.2401501E-006  0.9118800E+02  0.7816164E-02  0.1184000E+00
        -11   -1    0    0    0    0  0.00000000000E+00  0.00000000000E+00  0.45593999997E+02  0.45594000000E+02  0.51100000000E-03 0.  1.
         11   -1    0    0    0    0 -0.00000000000E+00 -0.00000000000E+00 -0.45593999997E+02  0.45594000000E+02  0.51100000000E-03 0. -1.
         23    2    1    2    0    0  0.00000000000E+00  0.00000000000E+00  0.35527136788E-14  0.91188000000E+02  0.91188000000E+02 0.  0.
    9900012    2    3    3    0    0  0.29540963706E+01  0.33782325418E+02 -0.14346004873E+02  0.54367081328E+02  0.39999993503E+02 0.  0.
        -12    1    3    3    0    0 -0.29540963706E+01 -0.33782325418E+02  0.14346004873E+02  0.36820918672E+02  0.00000000000E+00 0.  1.
         11    1    4    4    0    0 -0.90074880845E+00  0.31711889412E+02  0.20270858599E+01  0.31789374889E+02  0.51100000000E-03 0. -1.
        -11    1    4    4    0    0 -0.17225578710E+01 -0.49348662223E+01 -0.19057942093E+01  0.55634667322E+01  0.51100000000E-03 0.  1.
         12    1    4    4    0    0  0.55774030500E+01  0.70053022286E+01 -0.14467296524E+02  0.17014239707E+02  0.00000000000E+00 0. -1.
</event>
<event>
 8    1  0.2401501E-006  0.9118800E+02  0.7816164E-02  0.1184000E+00
        -11   -1    0    0    0    0  0.00000000000E+00  0.00000000000E+00  0.45593999997E+02  0.45594000000E+02  0.51100000000E-03 0.  1.
         11   -1    0    0    0    0 -0.00000000000E+00 -0.00000000000E+00 -0.45593999997E+02  0.45594000000E+02  0.51100000000E-03 0. -1.
         23    2    1    2    0    0  0.00000000000E+00  0.00000000000E+00  0.17763568394E-14  0.91188000000E+02  0.91188000000E+02 0.  0.
    9900012    2    3    3    0    0 -0.32839102615E+02  0.12420351027E+02 -0.11095415353E+02  0.54367081733E+02  0.39999994426E+02 0.  0.
        -12    1    3    3    0    0  0.32839102615E+02 -0.12420351027E+02  0.11095415353E+02  0.36820918267E+02  0.00000000000E+00 0.  1.
         11    1    4    4    0    0 -0.24966718670E+02  0.91552856299E+01 -0.15093502795E+02  0.30577281158E+02  0.51100000000E-03 0. -1.
        -11    1    4    4    0    0  0.46680189669E+01  0.58540681262E+01 -0.42005023597E+01  0.85851461861E+01  0.51100000000E-03 0.  1.
        -12    1    4    4    0    0 -0.12540402913E+02 -0.25890027296E+01  0.81985898021E+01  0.15204654389E+02  0.00000000000E+00 0.  1.
</event>
<event>
 8    1  0.2401501E-006  0.9118800E+02  0.7816164E-02  0.1184000E+00
        -11   -1    0    0    0    0  0.00000000000E+00  0.00000000000E+00  0.45593999997E+02  0.45594000000E+02  0.51100000000E-03 0. -1.
         11   -1    0    0    0    0 -0.00000000000E+00 -0.00000000000E+00 -0.45593999997E+02  0.45594000000E+02  0.51100000000E-03 0.  1.
         23    2    1    2    0    0 -0.17763568394E-14  0.44408920985E-15  0.00000000000E+00  0.91188000000E+02  0.91188000000E+02 0.  0.
    9900012    2    3    3    0    0 -0.11360143738E+02  0.37171158795E+01  0.34826871380E+02  0.54367071354E+02  0.39999970767E+02 0.  0.
        -12    1    3    3    0    0  0.11360143738E+02 -0.37171158795E+01 -0.34826871380E+02  0.36820928646E+02  0.00000000000E+00 0.  1.
         11    1    4    4    0    0 -0.80825820250E+01  0.54557297635E+01  0.46259474281E+01  0.10793169567E+02  0.51100000000E-03 0. -1.
        -11    1    4    4    0    0 -0.43659837182E+01 -0.15219229702E+02  0.84123652111E+01  0.17929156569E+02  0.51100000000E-03 0.  1.
        -12    1    4    4    0    0  0.10884220050E+01  0.13480615818E+02  0.21788558741E+02  0.25644745218E+02  0.00000000000E+00 0.  1.
</event>
<event>
 8    1  0.2401501E-006  0.9118800E+02  0.7816164E-02  0.1184000E+00
        -11   -1    0    0    0    0  0.00000000000E+00  0.00000000000E+00  0.45593999997E+02  0.45594000000E+02  0.51100000000E-03 0. -1.
         11   -1    0    0    0    0 -0.00000000000E+00 -0.00000000000E+00 -0.45593999997E+02  0.45594000000E+02  0.51100000000E-03 0.  1.
         23    2    1    2    0    0  0.00000000000E+00 -0.35527136788E-14  0.00000000000E+00  0.91188000000E+02  0.91188000000E+02 0.  0.
    9900012    2    3    3    0    0 -0.20995771876E+01  0.24462321491E+02  0.27440239794E+02  0.54367079900E+02  0.39999990248E+02 0.  0.
        -12    1    3    3    0    0  0.20995771876E+01 -0.24462321491E+02 -0.27440239794E+02  0.36820920100E+02  0.00000000000E+00 0.  1.
         11    1    4    4    0    0  0.13384960902E+02  0.80132739634E+01  0.12841129731E+02  0.20205552479E+02  0.51100000000E-03 0. -1.
        -11    1    4    4    0    0  0.51279665606E+01  0.27979844942E+01  0.94178627693E+00  0.59170702150E+01  0.51100000000E-03 0.  1.
        -12    1    4    4    0    0 -0.20612504650E+02  0.13651063033E+02  0.13657323786E+02  0.28244457206E+02  0.00000000000E+00 0.  1.
</event>
<event>
 8    1  0.2401501E-006  0.9118800E+02  0.7816164E-02  0.1184000E+00
        -11   -1    0    0    0    0  0.00000000000E+00  0.00000000000E+00  0.45593999997E+02  0.45594000000E+02  0.51100000000E-03 0.  1.
         11   -1    0    0    0    0 -0.00000000000E+00 -0.00000000000E+00 -0.45593999997E+02  0.45594000000E+02  0.51100000000E-03 0. -1.
         23    2    1    2    0    0  0.00000000000E+00  0.00000000000E+00  0.00000000000E+00  0.91188000000E+02  0.91188000000E+02 0.  0.
    9900012    2    3    3    0    0  0.33084935789E+02 -0.14525543188E+02 -0.70835297646E+01  0.54367071508E+02  0.39999971117E+02 0.  0.
        -12    1    3    3    0    0 -0.33084935789E+02  0.14525543188E+02  0.70835297646E+01  0.36820928492E+02  0.00000000000E+00 0.  1.
         11    1    4    4    0    0 -0.30726797326E+01  0.29826414889E+00 -0.52688442489E+01  0.61066391921E+01  0.51100000000E-03 0. -1.
        -11    1    4    4    0    0 -0.34442811416E+01  0.14537970070E+01 -0.38876724631E+01  0.53935698532E+01  0.51100000000E-03 0.  1.
        -12    1    4    4    0    0  0.39601896663E+02 -0.16277604344E+02  0.20729869475E+01  0.42866862463E+02  0.00000000000E+00 0.  1.
</event>
<event>
 8    1  0.2401501E-006  0.9118800E+02  0.7816164E-02  0.1184000E+00
        -11   -1    0    0    0    0  0.00000000000E+00  0.00000000000E+00  0.45593999997E+02  0.45594000000E+02  0.51100000000E-03 0. -1.
         11   -1    0    0    0    0 -0.00000000000E+00 -0.00000000000E+00 -0.45593999997E+02  0.45594000000E+02  0.51100000000E-03 0.  1.
         23    2    1    2    0    0 -0.88817841970E-15  0.00000000000E+00  0.00000000000E+00  0.91188000000E+02  0.91188000000E+02 0.  0.
    9900012    2    3    3    0    0  0.65407609018E+01 -0.60979664961E+01 -0.35718528532E+02  0.54367081638E+02  0.39999994210E+02 0.  0.
         12    1    3    3    0    0 -0.65407609018E+01  0.60979664961E+01  0.35718528532E+02  0.36820918362E+02  0.00000000000E+00 0. -1.
         11    1    4    4    0    0  0.20516674072E+02 -0.58841749327E+01 -0.77402842077E+01  0.22703951847E+02  0.51100000000E-03 0. -1.
        -11    1    4    4    0    0 -0.89955855706E+01 -0.25119092672E+01 -0.17616858445E+02  0.19939507257E+02  0.51100000000E-03 0.  1.
         12    1    4    4    0    0 -0.49803275992E+01  0.22981177038E+01 -0.10361385879E+02  0.11723622534E+02  0.00000000000E+00 0. -1.
</event>
<event>
 8    1  0.2401501E-006  0.9118800E+02  0.7816164E-02  0.1184000E+00
        -11   -1    0    0    0    0  0.00000000000E+00  0.00000000000E+00  0.45593999997E+02  0.45594000000E+02  0.51100000000E-03 0.  1.
         11   -1    0    0    0    0 -0.00000000000E+00 -0.00000000000E+00 -0.45593999997E+02  0.45594000000E+02  0.51100000000E-03 0. -1.
         23    2    1    2    0    0  0.35527136788E-14  0.00000000000E+00 -0.71054273576E-14  0.91188000000E+02  0.91188000000E+02 0.  0.
    9900012    2    3    3    0    0  0.16036698103E+02 -0.17899979880E+01 -0.33096826236E+02  0.54367086299E+02  0.40000004837E+02 0.  0.
        -12    1    3    3    0    0 -0.16036698103E+02  0.17899979880E+01  0.33096826236E+02  0.36820913701E+02  0.00000000000E+00 0.  1.
         11    1    4    4    0    0 -0.57050130907E+01  0.12882651443E+02 -0.11257236560E+02  0.18034280074E+02  0.51100000000E-03 0. -1.
        -11    1    4    4    0    0  0.65574484420E+01  0.15296150025E+01 -0.38621307082E+01  0.77624677773E+01  0.51100000000E-03 0.  1.
        -12    1    4    4    0    0  0.15184262752E+02 -0.16202264433E+02 -0.17977458968E+02  0.28570338448E+02  0.00000000000E+00 0.  1.
</event>
<event>
 8    1  0.2401501E-006  0.9118800E+02  0.7816164E-02  0.1184000E+00
        -11   -1    0    0    0    0  0.00000000000E+00  0.00000000000E+00  0.45593999997E+02  0.45594000000E+02  0.51100000000E-03 0.  1.
         11   -1    0    0    0    0 -0.00000000000E+00 -0.00000000000E+00 -0.45593999997E+02  0.45594000000E+02  0.51100000000E-03 0. -1.
         23    2    1    2    0    0  0.00000000000E+00  0.35527136788E-14  0.00000000000E+00  0.91188000000E+02  0.91188000000E+02 0.  0.
    9900012    2    3    3    0    0 -0.22396144831E+02 -0.28849242832E+02  0.46813501420E+01  0.54367066356E+02  0.39999959373E+02 0.  0.
         12    1    3    3    0    0  0.22396144831E+02  0.28849242832E+02 -0.46813501420E+01  0.36820933644E+02  0.00000000000E+00 0. -1.
         11    1    4    4    0    0 -0.28864778905E+02 -0.28360723323E+02 -0.43529006883E+01  0.40699555689E+02  0.51100000000E-03 0. -1.
        -11    1    4    4    0    0  0.61589667037E+01 -0.26082010132E+01  0.31260385938E+01  0.73829330847E+01  0.51100000000E-03 0.  1.
         12    1    4    4    0    0  0.30966737107E+00  0.21196815042E+01  0.59082122365E+01  0.62845775826E+01  0.00000000000E+00 0. -1.
</event>
<event>
 8    1  0.2401501E-006  0.9118800E+02  0.7816164E-02  0.1184000E+00
        -11   -1    0    0    0    0  0.00000000000E+00  0.00000000000E+00  0.45593999997E+02  0.45594000000E+02  0.51100000000E-03 0.  1.
         11   -1    0    0    0    0 -0.00000000000E+00 -0.00000000000E+00 -0.45593999997E+02  0.45594000000E+02  0.51100000000E-03 0. -1.
         23    2    1    2    0    0  0.35527136788E-14  0.00000000000E+00 -0.44408920985E-15  0.91188000000E+02  0.91188000000E+02 0.  0.
    9900012    2    3    3    0    0  0.30594791874E+02 -0.20232262592E+02 -0.32239519992E+01  0.54367087384E+02  0.40000007308E+02 0.  0.
        -12    1    3    3    0    0 -0.30594791874E+02  0.20232262592E+02  0.32239519992E+01  0.36820912616E+02  0.00000000000E+00 0.  1.
         11    1    4    4    0    0  0.20895805797E+02 -0.20510248059E+02 -0.45131038289E+01  0.29625547789E+02  0.51100000000E-03 0. -1.
        -11    1    4    4    0    0 -0.27508052300E+01 -0.48609521609E+01 -0.69779837017E+01  0.89380110834E+01  0.51100000000E-03 0.  1.
        -12    1    4    4    0    0  0.12449791307E+02  0.51389376275E+01  0.82671355315E+01  0.15803528511E+02  0.00000000000E+00 0.  1.
</event>
<event>
 8    1  0.2401501E-006  0.9118800E+02  0.7816164E-02  0.1184000E+00
        -11   -1    0    0    0    0  0.00000000000E+00  0.00000000000E+00  0.45593999997E+02  0.45594000000E+02  0.51100000000E-03 0.  1.
         11   -1    0    0    0    0 -0.00000000000E+00 -0.00000000000E+00 -0.45593999997E+02  0.45594000000E+02  0.51100000000E-03 0. -1.
         23    2    1    2    0    0  0.35527136788E-14  0.00000000000E+00  0.00000000000E+00  0.91188000000E+02  0.91188000000E+02 0.  0.
    9900012    2    3    3    0    0 -0.25554212458E+02 -0.24824873280E+02 -0.92998977593E+01  0.54367079234E+02  0.39999988730E+02 0.  0.
        -12    1    3    3    0    0  0.25554212458E+02  0.24824873280E+02  0.92998977593E+01  0.36820920766E+02  0.00000000000E+00 0.  1.
         11    1    4    4    0    0  0.12805153626E+01 -0.25593872480E+01 -0.11276904154E+01  0.30760150541E+01  0.51100000000E-03 0. -1.
        -11    1    4    4    0    0 -0.55218834245E+01  0.30508023886E+01  0.11265547460E+02  0.12911667267E+02  0.51100000000E-03 0.  1.
        -12    1    4    4    0    0 -0.21312844396E+02 -0.25316288421E+02 -0.19437754804E+02  0.38379396914E+02  0.00000000000E+00 0.  1.
</event>
<event>
 8    1  0.2401501E-006  0.9118800E+02  0.7816164E-02  0.1184000E+00
        -11   -1    0    0    0    0  0.00000000000E+00  0.00000000000E+00  0.45593999997E+02  0.45594000000E+02  0.51100000000E-03 0.  1.
         11   -1    0    0    0    0 -0.00000000000E+00 -0.00000000000E+00 -0.45593999997E+02  0.45594000000E+02  0.51100000000E-03 0. -1.
         23    2    1    2    0    0  0.66613381478E-15  0.00000000000E+00 -0.17763568394E-14  0.91188000000E+02  0.91188000000E+02 0.  0.
    9900012    2    3    3    0    0 -0.51462897854E+00  0.35062719496E+02 -0.11230300783E+02  0.54367098366E+02  0.40000032345E+02 0.  0.
        -12    1    3    3    0    0  0.51462897854E+00 -0.35062719496E+02  0.11230300783E+02  0.36820901634E+02  0.00000000000E+00 0.  1.
         11    1    4    4    0    0  0.23935749678E+01  0.18606449146E+02 -0.20133852353E+02  0.27519105396E+02  0.51100000000E-03 0. -1.
        -11    1    4    4    0    0  0.45469151523E+01 -0.15727803078E+01 -0.10819973950E+01  0.49314089186E+01  0.51100000000E-03 0.  1.
         12    1    4    4    0    0 -0.74551190986E+01  0.18029050657E+02  0.99855489644E+01  0.21916584052E+02  0.00000000000E+00 0. -1.
</event>
<event>
 8    1  0.2401501E-006  0.9118800E+02  0.7816164E-02  0.1184000E+00
        -11   -1    0    0    0    0  0.00000000000E+00  0.00000000000E+00  0.45593999997E+02  0.45594000000E+02  0.51100000000E-03 0. -1.
         11   -1    0    0    0    0 -0.00000000000E+00 -0.00000000000E+00 -0.45593999997E+02  0.45594000000E+02  0.51100000000E-03 0.  1.
         23    2    1    2    0    0  0.00000000000E+00  0.88817841970E-15  0.00000000000E+00  0.91188000000E+02  0.91188000000E+02 0.  0.
    9900012    2    3    3    0    0  0.34229826573E+02  0.53028345790E+01 -0.12489358284E+02  0.54367012071E+02  0.39999835617E+02 0.  0.
        -12    1    3    3    0    0 -0.34229826573E+02 -0.53028345790E+01  0.12489358284E+02  0.36820987929E+02  0.00000000000E+00 0.  1.
         11    1    4    4    0    0  0.18868745302E+02  0.17140333134E+02 -0.52420275196E+01  0.26024976887E+02  0.51100000000E-03 0. -1.
        -11    1    4    4    0    0  0.58529800656E+00 -0.83507023849E+01 -0.98631477636E+01  0.12936710870E+02  0.51100000000E-03 0.  1.
        -12    1    4    4    0    0  0.14775783264E+02 -0.34867961702E+01  0.26158169994E+01  0.15405324313E+02  0.00000000000E+00 0.  1.
</event>
<event>
 8    1  0.2401501E-006  0.9118800E+02  0.7816164E-02  0.1184000E+00
        -11   -1    0    0    0    0  0.00000000000E+00  0.00000000000E+00  0.45593999997E+02  0.45594000000E+02  0.51100000000E-03 0.  1.
         11   -1    0    0    0    0 -0.00000000000E+00 -0.00000000000E+00 -0.45593999997E+02  0.45594000000E+02  0.51100000000E-03 0. -1.
         23    2    1    2    0    0  0.00000000000E+00  0.17763568394E-14 -0.35527136788E-14  0.91188000000E+02  0.91188000000E+02 0.  0.
    9900012    2    3    3    0    0  0.18819090902E+02  0.63348318443E+01 -0.31007939846E+02  0.54367073744E+02  0.39999976214E+02 0.  0.
        -12    1    3    3    0    0 -0.18819090902E+02 -0.63348318443E+01  0.31007939846E+02  0.36820926256E+02  0.00000000000E+00 0.  1.
         11    1    4    4    0    0  0.18347641574E+02 -0.72081339737E+01 -0.16291714515E+02  0.25573680001E+02  0.51100000000E-03 0. -1.
        -11    1    4    4    0    0  0.68434368888E+01 -0.10062939187E+01  0.31627643423E+00  0.69242535298E+01  0.51100000000E-03 0.  1.
        -12    1    4    4    0    0 -0.63719875604E+01  0.14549259737E+02 -0.15032501765E+02  0.21869140213E+02  0.00000000000E+00 0.  1.
</event>
<event>
 8    1  0.2401501E-006  0.9118800E+02  0.7816164E-02  0.1184000E+00
        -11   -1    0    0    0    0  0.00000000000E+00  0.00000000000E+00  0.45593999997E+02  0.45594000000E+02  0.51100000000E-03 0. -1.
         11   -1    0    0    0    0 -0.00000000000E+00 -0.00000000000E+00 -0.45593999997E+02  0.45594000000E+02  0.51100000000E-03 0.  1.
         23    2    1    2    0    0  0.00000000000E+00  0.00000000000E+00  0.00000000000E+00  0.91188000000E+02  0.91188000000E+02 0.  0.
    9900012    2    3    3    0    0  0.21479996568E+02 -0.16709207239E+02  0.24803117972E+02  0.54367047809E+02  0.39999917090E+02 0.  0.
        -12    1    3    3    0    0 -0.21479996568E+02  0.16709207239E+02 -0.24803117972E+02  0.36820952191E+02  0.00000000000E+00 0.  1.
         11    1    4    4    0    0  0.15135609062E+02 -0.75865241023E+01  0.96843706618E+00  0.16958180334E+02  0.51100000000E-03 0. -1.
        -11    1    4    4    0    0 -0.11142463794E+00 -0.17624277181E+02  0.18211747110E+02  0.25343545424E+02  0.51100000000E-03 0.  1.
        -12    1    4    4    0    0  0.64558121439E+01  0.85015940436E+01  0.56229337962E+01  0.12065322051E+02  0.00000000000E+00 0.  1.
</event>
<event>
 8    1  0.2401501E-006  0.9118800E+02  0.7816164E-02  0.1184000E+00
        -11   -1    0    0    0    0  0.00000000000E+00  0.00000000000E+00  0.45593999997E+02  0.45594000000E+02  0.51100000000E-03 0. -1.
         11   -1    0    0    0    0 -0.00000000000E+00 -0.00000000000E+00 -0.45593999997E+02  0.45594000000E+02  0.51100000000E-03 0.  1.
         23    2    1    2    0    0 -0.17763568394E-14 -0.22204460493E-15  0.71054273576E-14  0.91188000000E+02  0.91188000000E+02 0.  0.
    9900012    2    3    3    0    0  0.10244435943E+02  0.15956371843E+01  0.35331083293E+02  0.54367082406E+02  0.39999995962E+02 0.  0.
        -12    1    3    3    0    0 -0.10244435943E+02 -0.15956371843E+01 -0.35331083293E+02  0.36820917594E+02  0.00000000000E+00 0.  1.
         11    1    4    4    0    0 -0.50143064498E+01 -0.10595598999E+02  0.29554732209E+01  0.12089036750E+02  0.51100000000E-03 0. -1.
        -11    1    4    4    0    0 -0.75522480433E+00  0.51653638398E+01 -0.28754000697E+00  0.52281954458E+01  0.51100000000E-03 0.  1.
        -12    1    4    4    0    0  0.16013967197E+02  0.70258723437E+01  0.32663150079E+02  0.37049850211E+02  0.00000000000E+00 0.  1.
</event>
<event>
 8    1  0.2401501E-006  0.9118800E+02  0.7816164E-02  0.1184000E+00
        -11   -1    0    0    0    0  0.00000000000E+00  0.00000000000E+00  0.45593999997E+02  0.45594000000E+02  0.51100000000E-03 0.  1.
         11   -1    0    0    0    0 -0.00000000000E+00 -0.00000000000E+00 -0.45593999997E+02  0.45594000000E+02  0.51100000000E-03 0. -1.
         23    2    1    2    0    0  0.00000000000E+00  0.00000000000E+00  0.35527136788E-14  0.91188000000E+02  0.91188000000E+02 0.  0.
    9900012    2    3    3    0    0  0.26524244221E+02 -0.53231798226E+01 -0.24978136685E+02  0.54367094428E+02  0.40000023367E+02 0.  0.
        -12    1    3    3    0    0 -0.26524244221E+02  0.53231798226E+01  0.24978136685E+02  0.36820905572E+02  0.00000000000E+00 0.  1.
         11    1    4    4    0    0  0.32663942332E+02 -0.11034301200E+02 -0.14033431169E+02  0.37223999279E+02  0.51100000000E-03 0. -1.
        -11    1    4    4    0    0 -0.31469587528E+01 -0.25984309131E+00  0.11221598127E+01  0.33511357373E+01  0.51100000000E-03 0.  1.
        -12    1    4    4    0    0 -0.29927393589E+01  0.59709644691E+01 -0.12066865329E+02  0.13791959412E+02  0.00000000000E+00 0.  1.
</event>
<event>
 8    1  0.2401501E-006  0.9118800E+02  0.7816164E-02  0.1184000E+00
        -11   -1    0    0    0    0  0.00000000000E+00  0.00000000000E+00  0.45593999997E+02  0.45594000000E+02  0.51100000000E-03 0. -1.
         11   -1    0    0    0    0 -0.00000000000E+00 -0.00000000000E+00 -0.45593999997E+02  0.45594000000E+02  0.51100000000E-03 0.  1.
         23    2    1    2    0    0  0.26645352591E-14 -0.35527136788E-14  0.00000000000E+00  0.91188000000E+02  0.91188000000E+02 0.  0.
    9900012    2    3    3    0    0 -0.48398660402E+01  0.31081062279E+02  0.19139501485E+02  0.54367119337E+02  0.40000080152E+02 0.  0.
        -12    1    3    3    0    0  0.48398660402E+01 -0.31081062279E+02 -0.19139501485E+02  0.36820880663E+02  0.00000000000E+00 0.  1.
         11    1    4    4    0    0  0.69650327570E+01  0.23500471433E+02  0.11663752685E+02  0.27144556836E+02  0.51100000000E-03 0. -1.
        -11    1    4    4    0    0  0.22497729930E+01 -0.59636053399E+01  0.36085705925E+01  0.73244692062E+01  0.51100000000E-03 0.  1.
         12    1    4    4    0    0 -0.14054671790E+02  0.13544196186E+02  0.38671782070E+01  0.19898093294E+02  0.00000000000E+00 0. -1.
</event>
<event>
 8    1  0.2401501E-006  0.9118800E+02  0.7816164E-02  0.1184000E+00
        -11   -1    0    0    0    0  0.00000000000E+00  0.00000000000E+00  0.45593999997E+02  0.45594000000E+02  0.51100000000E-03 0.  1.
         11   -1    0    0    0    0 -0.00000000000E+00 -0.00000000000E+00 -0.45593999997E+02  0.45594000000E+02  0.51100000000E-03 0. -1.
         23    2    1    2    0    0  0.00000000000E+00  0.00000000000E+00  0.00000000000E+00  0.91188000000E+02  0.91188000000E+02 0.  0.
    9900012    2    3    3    0    0  0.24142770756E+02 -0.94839878636E+01 -0.26133499597E+02  0.54367092804E+02  0.40000019665E+02 0.  0.
        -12    1    3    3    0    0 -0.24142770756E+02  0.94839878636E+01  0.26133499597E+02  0.36820907196E+02  0.00000000000E+00 0.  1.
         11    1    4    4    0    0  0.37693608707E+00 -0.27957942079E+01 -0.63365090883E+01  0.69361295946E+01  0.51100000000E-03 0. -1.
        -11    1    4    4    0    0  0.17085800664E+02  0.11819765026E+02 -0.18319472236E+02  0.27698998048E+02  0.51100000000E-03 0.  1.
        -12    1    4    4    0    0  0.66800340051E+01 -0.18507958682E+02 -0.14775182729E+01  0.19731965161E+02  0.00000000000E+00 0.  1.
</event>
<event>
 8    1  0.2401501E-006  0.9118800E+02  0.7816164E-02  0.1184000E+00
        -11   -1    0    0    0    0  0.00000000000E+00  0.00000000000E+00  0.45593999997E+02  0.45594000000E+02  0.51100000000E-03 0. -1.
         11   -1    0    0    0    0 -0.00000000000E+00 -0.00000000000E+00 -0.45593999997E+02  0.45594000000E+02  0.51100000000E-03 0.  1.
         23    2    1    2    0    0 -0.17763568394E-14  0.71054273576E-14  0.10658141036E-13  0.91188000000E+02  0.91188000000E+02 0.  0.
    9900012    2    3    3    0    0 -0.14545553252E+02  0.19050709384E+02  0.27951337586E+02  0.54367083114E+02  0.39999997575E+02 0.  0.
        -12    1    3    3    0    0  0.14545553252E+02 -0.19050709384E+02 -0.27951337586E+02  0.36820916886E+02  0.00000000000E+00 0.  1.
         11    1    4    4    0    0  0.10336621936E+02  0.82707890299E+01  0.66575616124E+01  0.14818057602E+02  0.51100000000E-03 0. -1.
        -11    1    4    4    0    0 -0.78895832212E-01  0.74751527839E+01  0.89073957832E+01  0.11628664308E+02  0.51100000000E-03 0.  1.
        -12    1    4    4    0    0 -0.24803279356E+02  0.33047675705E+01  0.12386380191E+02  0.27920361203E+02  0.00000000000E+00 0.  1.
</event>
<event>
 8    1  0.2401501E-006  0.9118800E+02  0.7816164E-02  0.1184000E+00
        -11   -1    0    0    0    0  0.00000000000E+00  0.00000000000E+00  0.45593999997E+02  0.45594000000E+02  0.51100000000E-03 0. -1.
         11   -1    0    0    0    0 -0.00000000000E+00 -0.00000000000E+00 -0.45593999997E+02  0.45594000000E+02  0.51100000000E-03 0.  1.
         23    2    1    2    0    0 -0.35527136788E-14  0.17763568394E-14  0.35527136788E-14  0.91188000000E+02  0.91188000000E+02 0.  0.
    9900012    2    3    3    0    0  0.20631095678E+02 -0.12310073777E+02  0.27903366411E+02  0.54367110788E+02  0.40000060664E+02 0.  0.
         12    1    3    3    0    0 -0.20631095678E+02  0.12310073777E+02 -0.27903366411E+02  0.36820889212E+02  0.00000000000E+00 0. -1.
         11    1    4    4    0    0 -0.20537890174E+01  0.77510119766E+01  0.11479113269E+02  0.14002366861E+02  0.51100000000E-03 0. -1.
        -11    1    4    4    0    0  0.15819616163E+02 -0.18820965722E+02  0.24026442294E+01  0.24703475582E+02  0.51100000000E-03 0.  1.
        -12    1    4    4    0    0  0.68652685323E+01 -0.12401200311E+01  0.14021608913E+02  0.15661268346E+02  0.00000000000E+00 0.  1.
</event>
<event>
 8    1  0.2401501E-006  0.9118800E+02  0.7816164E-02  0.1184000E+00
        -11   -1    0    0    0    0  0.00000000000E+00  0.00000000000E+00  0.45593999997E+02  0.45594000000E+02  0.51100000000E-03 0.  1.
         11   -1    0    0    0    0 -0.00000000000E+00 -0.00000000000E+00 -0.45593999997E+02  0.45594000000E+02  0.51100000000E-03 0. -1.
         23    2    1    2    0    0  0.00000000000E+00 -0.11102230246E-14 -0.17763568394E-14  0.91188000000E+02  0.91188000000E+02 0.  0.
    9900012    2    3    3    0    0 -0.33569783608E+02  0.17636998911E+01 -0.15024588411E+02  0.54367092003E+02  0.40000017839E+02 0.  0.
        -12    1    3    3    0    0  0.33569783608E+02 -0.17636998911E+01  0.15024588411E+02  0.36820907997E+02  0.00000000000E+00 0.  1.
         11    1    4    4    0    0 -0.24435341740E+02  0.67517779958E+01 -0.13347117589E+02  0.28649921121E+02  0.51100000000E-03 0. -1.
        -11    1    4    4    0    0 -0.11150731924E+01  0.92241606314E+01 -0.13998090953E+01  0.93961690781E+01  0.51100000000E-03 0.  1.
        -12    1    4    4    0    0 -0.80193686761E+01 -0.14212238736E+02 -0.27766172686E+00  0.16321001804E+02  0.00000000000E+00 0.  1.
</event>
<event>
 8    1  0.2401501E-006  0.9118800E+02  0.7816164E-02  0.1184000E+00
        -11   -1    0    0    0    0  0.00000000000E+00  0.00000000000E+00  0.45593999997E+02  0.45594000000E+02  0.51100000000E-03 0.  1.
         11   -1    0    0    0    0 -0.00000000000E+00 -0.00000000000E+00 -0.45593999997E+02  0.45594000000E+02  0.51100000000E-03 0. -1.
         23    2    1    2    0    0 -0.35527136788E-14  0.00000000000E+00  0.35527136788E-14  0.91188000000E+02  0.91188000000E+02 0.  0.
    9900012    2    3    3    0    0  0.27361647798E+02 -0.10755377528E+02 -0.22168492759E+02  0.54367082206E+02  0.39999995505E+02 0.  0.
        -12    1    3    3    0    0 -0.27361647798E+02  0.10755377528E+02  0.22168492759E+02  0.36820917794E+02  0.00000000000E+00 0.  1.
         11    1    4    4    0    0  0.66367012190E+01 -0.88124226756E+01 -0.13185099005E+02  0.17191609364E+02  0.51100000000E-03 0. -1.
        -11    1    4    4    0    0  0.13494414530E+02 -0.14303675597E+02  0.10461363348E+01  0.19692352845E+02  0.51100000000E-03 0.  1.
         12    1    4    4    0    0  0.72305320496E+01  0.12360720744E+02 -0.10029530089E+02  0.17483119997E+02  0.00000000000E+00 0. -1.
</event>
<event>
 8    1  0.2401501E-006  0.9118800E+02  0.7816164E-02  0.1184000E+00
        -11   -1    0    0    0    0  0.00000000000E+00  0.00000000000E+00  0.45593999997E+02  0.45594000000E+02  0.51100000000E-03 0.  1.
         11   -1    0    0    0    0 -0.00000000000E+00 -0.00000000000E+00 -0.45593999997E+02  0.45594000000E+02  0.51100000000E-03 0. -1.
         23    2    1    2    0    0  0.88817841970E-15  0.71054273576E-14  0.26645352591E-14  0.91188000000E+02  0.91188000000E+02 0.  0.
    9900012    2    3    3    0    0 -0.59816172543E+01 -0.35751694183E+02 -0.64666406866E+01  0.54367070847E+02  0.39999969609E+02 0.  0.
        -12    1    3    3    0    0  0.59816172543E+01  0.35751694183E+02  0.64666406866E+01  0.36820929153E+02  0.00000000000E+00 0.  1.
         11    1    4    4    0    0 -0.38680830276E+01 -0.12914352687E+02  0.23239334814E+01  0.13680030655E+02  0.51100000000E-03 0. -1.
        -11    1    4    4    0    0  0.19812245559E+01  0.74394614760E+01 -0.64526528019E+01  0.10045275817E+02  0.51100000000E-03 0.  1.
         12    1    4    4    0    0 -0.40947587826E+01 -0.30276802972E+02 -0.23379213661E+01  0.30641764375E+02  0.00000000000E+00 0. -1.
</event>
<event>
 8    1  0.2843994E-006  0.9118800E+02  0.7816164E-02  0.1184000E+00
        -11   -1    0    0    0    0  0.00000000000E+00  0.00000000000E+00  0.45593999997E+02  0.45594000000E+02  0.51100000000E-03 0.  1.
         11   -1    0    0    0    0 -0.00000000000E+00 -0.00000000000E+00 -0.45593999997E+02  0.45594000000E+02  0.51100000000E-03 0. -1.
         23    2    1    2    0    0  0.00000000000E+00  0.00000000000E+00 -0.44408920985E-15  0.91188000000E+02  0.91188000000E+02 0.  0.
    9900012    2    3    3    0    0 -0.10741956625E+02 -0.35123817589E+02  0.25897183813E+01  0.54367097846E+02  0.40000031160E+02 0.  0.
         12    1    3    3    0    0  0.10741956625E+02  0.35123817589E+02 -0.25897183813E+01  0.36820902154E+02  0.00000000000E+00 0. -1.
         11    1    4    4    0    0  0.37205149286E+01  0.41316060583E+01  0.18075103241E+01  0.58463230999E+01  0.51100000000E-03 0. -1.
        -11    1    4    4    0    0 -0.18649542293E+01 -0.13359409190E+01 -0.73886667217E+01  0.77366135099E+01  0.51100000000E-03 0.  1.
        -12    1    4    4    0    0 -0.12597517324E+02 -0.37919482728E+02  0.81708747789E+01  0.40784161236E+02  0.00000000000E+00 0.  1.
</event>
<event>
 8    1  0.2401501E-006  0.9118800E+02  0.7816164E-02  0.1184000E+00
        -11   -1    0    0    0    0  0.00000000000E+00  0.00000000000E+00  0.45593999997E+02  0.45594000000E+02  0.51100000000E-03 0.  1.
         11   -1    0    0    0    0 -0.00000000000E+00 -0.00000000000E+00 -0.45593999997E+02  0.45594000000E+02  0.51100000000E-03 0. -1.
         23    2    1    2    0    0  0.00000000000E+00  0.35527136788E-14  0.00000000000E+00  0.91188000000E+02  0.91188000000E+02 0.  0.
    9900012    2    3    3    0    0 -0.72099392309E+01  0.26566010766E+02 -0.24454909046E+02  0.54367099303E+02  0.40000034480E+02 0.  0.
        -12    1    3    3    0    0  0.72099392309E+01 -0.26566010766E+02  0.24454909046E+02  0.36820900697E+02  0.00000000000E+00 0.  1.
         11    1    4    4    0    0  0.21643413484E+01  0.24561949397E+02 -0.15324894070E+02  0.29031467586E+02  0.51100000000E-03 0. -1.
        -11    1    4    4    0    0 -0.15218640834E+00  0.60152745345E+01  0.51156351348E+01  0.78978738608E+01  0.51100000000E-03 0.  1.
         12    1    4    4    0    0 -0.92220941710E+01 -0.40112131662E+01 -0.14245650110E+02  0.17437757856E+02  0.00000000000E+00 0. -1.
</event>
<event>
 8    1  0.2401501E-006  0.9118800E+02  0.7816164E-02  0.1184000E+00
        -11   -1    0    0    0    0  0.00000000000E+00  0.00000000000E+00  0.45593999997E+02  0.45594000000E+02  0.51100000000E-03 0. -1.
         11   -1    0    0    0    0 -0.00000000000E+00 -0.00000000000E+00 -0.45593999997E+02  0.45594000000E+02  0.51100000000E-03 0.  1.
         23    2    1    2    0    0  0.35527136788E-14 -0.35527136788E-14  0.00000000000E+00  0.91188000000E+02  0.91188000000E+02 0.  0.
    9900012    2    3    3    0    0  0.25408931933E+02  0.23697907181E+02  0.12189408876E+02  0.54366996273E+02  0.39999799604E+02 0.  0.
        -12    1    3    3    0    0 -0.25408931933E+02 -0.23697907181E+02 -0.12189408876E+02  0.36821003727E+02  0.00000000000E+00 0.  1.
         11    1    4    4    0    0 -0.54815972200E+01  0.23944607638E+01  0.18697732564E+01  0.62671686369E+01  0.51100000000E-03 0. -1.
        -11    1    4    4    0    0  0.12492018640E+01  0.15387414843E+01 -0.78578257928E+01  0.81039284981E+01  0.51100000000E-03 0.  1.
        -12    1    4    4    0    0  0.29641327288E+02  0.19764704933E+02  0.18177461412E+02  0.39995899138E+02  0.00000000000E+00 0.  1.
</event>
<event>
 8    1  0.2401501E-006  0.9118800E+02  0.7816164E-02  0.1184000E+00
        -11   -1    0    0    0    0  0.00000000000E+00  0.00000000000E+00  0.45593999997E+02  0.45594000000E+02  0.51100000000E-03 0. -1.
         11   -1    0    0    0    0 -0.00000000000E+00 -0.00000000000E+00 -0.45593999997E+02  0.45594000000E+02  0.51100000000E-03 0.  1.
         23    2    1    2    0    0  0.88817841970E-15 -0.17763568394E-14  0.00000000000E+00  0.91188000000E+02  0.91188000000E+02 0.  0.
    9900012    2    3    3    0    0  0.79388983888E+01  0.15793710487E+01  0.35920166707E+02  0.54367097012E+02  0.40000029259E+02 0.  0.
        -12    1    3    3    0    0 -0.79388983888E+01 -0.15793710487E+01 -0.35920166707E+02  0.36820902988E+02  0.00000000000E+00 0.  1.
         11    1    4    4    0    0 -0.70646043133E+01 -0.54847261588E+01  0.15893079075E+02  0.18236798455E+02  0.51100000000E-03 0. -1.
        -11    1    4    4    0    0  0.81042875180E+01 -0.91203336973E+01  0.58260069319E+01  0.13520440820E+02  0.51100000000E-03 0.  1.
         12    1    4    4    0    0  0.68992151841E+01  0.16184430905E+02  0.14201080700E+02  0.22609857738E+02  0.00000000000E+00 0. -1.
</event>
<event>
 8    1  0.2401501E-006  0.9118800E+02  0.7816164E-02  0.1184000E+00
        -11   -1    0    0    0    0  0.00000000000E+00  0.00000000000E+00  0.45593999997E+02  0.45594000000E+02  0.51100000000E-03 0.  1.
         11   -1    0    0    0    0 -0.00000000000E+00 -0.00000000000E+00 -0.45593999997E+02  0.45594000000E+02  0.51100000000E-03 0. -1.
         23    2    1    2    0    0  0.00000000000E+00 -0.71054273576E-14 -0.88817841970E-15  0.91188000000E+02  0.91188000000E+02 0.  0.
    9900012    2    3    3    0    0  0.13697265277E+02 -0.33891666227E+02 -0.44180686903E+01  0.54367089546E+02  0.40000012237E+02 0.  0.
        -12    1    3    3    0    0 -0.13697265277E+02  0.33891666227E+02  0.44180686903E+01  0.36820910454E+02  0.00000000000E+00 0.  1.
         11    1    4    4    0    0  0.79695331676E+01 -0.16986508876E+02  0.75812964731E+01  0.20236872268E+02  0.51100000000E-03 0. -1.
        -11    1    4    4    0    0 -0.98506304825E+01 -0.19516406222E+01 -0.60820288796E+01  0.11740310795E+02  0.51100000000E-03 0.  1.
         12    1    4    4    0    0  0.15578362592E+02 -0.14953516729E+02 -0.59173362837E+01  0.22389906483E+02  0.00000000000E+00 0. -1.
</event>
<event>
 8    1  0.2401501E-006  0.9118800E+02  0.7816164E-02  0.1184000E+00
        -11   -1    0    0    0    0  0.00000000000E+00  0.00000000000E+00  0.45593999997E+02  0.45594000000E+02  0.51100000000E-03 0. -1.
         11   -1    0    0    0    0 -0.00000000000E+00 -0.00000000000E+00 -0.45593999997E+02  0.45594000000E+02  0.51100000000E-03 0.  1.
         23    2    1    2    0    0  0.00000000000E+00  0.00000000000E+00 -0.35527136788E-14  0.91188000000E+02  0.91188000000E+02 0.  0.
    9900012    2    3    3    0    0 -0.90852874231E+01 -0.27818665635E+02 -0.22346383210E+02  0.54367062371E+02  0.39999950287E+02 0.  0.
         12    1    3    3    0    0  0.90852874231E+01  0.27818665635E+02  0.22346383210E+02  0.36820937629E+02  0.00000000000E+00 0. -1.
         11    1    4    4    0    0  0.87260086998E+01 -0.11766145386E+02 -0.82936105861E+01  0.16833578998E+02  0.51100000000E-03 0. -1.
        -11    1    4    4    0    0 -0.72890934507E+00 -0.15186065391E+02  0.29773695341E+00  0.15206463706E+02  0.51100000000E-03 0.  1.
        -12    1    4    4    0    0 -0.17082386778E+02 -0.86645485816E+00 -0.14350509578E+02  0.22327019666E+02  0.00000000000E+00 0.  1.
</event>
<event>
 8    1  0.2401501E-006  0.9118800E+02  0.7816164E-02  0.1184000E+00
        -11   -1    0    0    0    0  0.00000000000E+00  0.00000000000E+00  0.45593999997E+02  0.45594000000E+02  0.51100000000E-03 0.  1.
         11   -1    0    0    0    0 -0.00000000000E+00 -0.00000000000E+00 -0.45593999997E+02  0.45594000000E+02  0.51100000000E-03 0. -1.
         23    2    1    2    0    0  0.22204460493E-15  0.00000000000E+00  0.00000000000E+00  0.91188000000E+02  0.91188000000E+02 0.  0.
    9900012    2    3    3    0    0  0.16154168317E+01  0.95006856652E+01  0.35537372207E+02  0.54367117025E+02  0.40000074883E+02 0.  0.
         12    1    3    3    0    0 -0.16154168317E+01 -0.95006856652E+01 -0.35537372207E+02  0.36820882975E+02  0.00000000000E+00 0. -1.
         11    1    4    4    0    0  0.16486722542E+01  0.54077480753E+01 -0.32054783765E+01  0.64989961787E+01  0.51100000000E-03 0. -1.
        -11    1    4    4    0    0 -0.58302342568E+01  0.11101741873E+02  0.36365954017E+02  0.38467166726E+02  0.51100000000E-03 0.  1.
         12    1    4    4    0    0  0.57969788343E+01 -0.70088042834E+01  0.23768965666E+01  0.94009541205E+01  0.00000000000E+00 0. -1.
</event>
<event>
 8    1  0.2401501E-006  0.9118800E+02  0.7816164E-02  0.1184000E+00
        -11   -1    0    0    0    0  0.00000000000E+00  0.00000000000E+00  0.45593999997E+02  0.45594000000E+02  0.51100000000E-03 0.  1.
         11   -1    0    0    0    0 -0.00000000000E+00 -0.00000000000E+00 -0.45593999997E+02  0.45594000000E+02  0.51100000000E-03 0. -1.
         23    2    1    2    0    0 -0.17763568394E-14  0.17763568394E-14  0.00000000000E+00  0.91188000000E+02  0.91188000000E+02 0.  0.
    9900012    2    3    3    0    0  0.15507908711E+02 -0.15476567607E+02 -0.29593267611E+02  0.54367070281E+02  0.39999968319E+02 0.  0.
        -12    1    3    3    0    0 -0.15507908711E+02  0.15476567607E+02  0.29593267611E+02  0.36820929719E+02  0.00000000000E+00 0.  1.
         11    1    4    4    0    0 -0.40183213592E+01 -0.80607636617E+00  0.48483149859E+01  0.63484505289E+01  0.51100000000E-03 0. -1.
        -11    1    4    4    0    0 -0.46855276855E+01  0.75335325588E+00 -0.45487023805E+01  0.65736142590E+01  0.51100000000E-03 0.  1.
         12    1    4    4    0    0  0.24211757755E+02 -0.15423844496E+02 -0.29892880217E+02  0.41445005493E+02  0.00000000000E+00 0. -1.
</event>
<event>
 8    1  0.2401501E-006  0.9118800E+02  0.7816164E-02  0.1184000E+00
        -11   -1    0    0    0    0  0.00000000000E+00  0.00000000000E+00  0.45593999997E+02  0.45594000000E+02  0.51100000000E-03 0.  1.
         11   -1    0    0    0    0 -0.00000000000E+00 -0.00000000000E+00 -0.45593999997E+02  0.45594000000E+02  0.51100000000E-03 0. -1.
         23    2    1    2    0    0  0.71054273576E-14 -0.17763568394E-14 -0.35527136788E-14  0.91188000000E+02  0.91188000000E+02 0.  0.
    9900012    2    3    3    0    0 -0.28398524457E+02 -0.14706320945E+02  0.18249224167E+02  0.54366997165E+02  0.39999801638E+02 0.  0.
         12    1    3    3    0    0  0.28398524457E+02  0.14706320945E+02 -0.18249224167E+02  0.36821002835E+02  0.00000000000E+00 0. -1.
         11    1    4    4    0    0  0.39817584421E+01 -0.12425198908E+01  0.63867497957E+01  0.76281602752E+01  0.51100000000E-03 0. -1.
        -11    1    4    4    0    0 -0.35151553911E+02 -0.41578163862E+01  0.10584503807E+02  0.36945241921E+02  0.51100000000E-03 0.  1.
        -12    1    4    4    0    0  0.27712710125E+01 -0.93059846679E+01  0.12779705639E+01  0.97935949695E+01  0.00000000000E+00 0.  1.
</event>
<event>
 8    1  0.2401501E-006  0.9118800E+02  0.7816164E-02  0.1184000E+00
        -11   -1    0    0    0    0  0.00000000000E+00  0.00000000000E+00  0.45593999997E+02  0.45594000000E+02  0.51100000000E-03 0.  1.
         11   -1    0    0    0    0 -0.00000000000E+00 -0.00000000000E+00 -0.45593999997E+02  0.45594000000E+02  0.51100000000E-03 0. -1.
         23    2    1    2    0    0 -0.17763568394E-14 -0.88817841970E-15 -0.71054273576E-14  0.91188000000E+02  0.91188000000E+02 0.  0.
    9900012    2    3    3    0    0 -0.50007978661E+01  0.56631835039E+01  0.36037453698E+02  0.54367113322E+02  0.40000066441E+02 0.  0.
         12    1    3    3    0    0  0.50007978661E+01 -0.56631835039E+01 -0.36037453698E+02  0.36820886678E+02  0.00000000000E+00 0. -1.
         11    1    4    4    0    0 -0.93789526783E+01 -0.72498832844E+00 -0.32569690201E+00  0.94125682016E+01  0.51100000000E-03 0. -1.
        -11    1    4    4    0    0  0.11434712700E+02  0.35497351746E+00  0.54399865281E+01  0.12667758855E+02  0.51100000000E-03 0.  1.
        -12    1    4    4    0    0 -0.70565578879E+01  0.60331983148E+01  0.30923164072E+02  0.32286786265E+02  0.00000000000E+00 0.  1.
</event>
<event>
 8    1  0.2401501E-006  0.9118800E+02  0.7816164E-02  0.1184000E+00
        -11   -1    0    0    0    0  0.00000000000E+00  0.00000000000E+00  0.45593999997E+02  0.45594000000E+02  0.51100000000E-03 0. -1.
         11   -1    0    0    0    0 -0.00000000000E+00 -0.00000000000E+00 -0.45593999997E+02  0.45594000000E+02  0.51100000000E-03 0.  1.
         23    2    1    2    0    0  0.35527136788E-14  0.00000000000E+00 -0.35527136788E-14  0.91188000000E+02  0.91188000000E+02 0.  0.
    9900012    2    3    3    0    0  0.16239570060E+02  0.14885994427E+02 -0.29503625510E+02  0.54367076817E+02  0.39999983219E+02 0.  0.
         12    1    3    3    0    0 -0.16239570060E+02 -0.14885994427E+02  0.29503625510E+02  0.36820923183E+02  0.00000000000E+00 0. -1.
         11    1    4    4    0    0 -0.36369838965E+01 -0.77035037181E+01 -0.81682484923E+01  0.11802199163E+02  0.51100000000E-03 0.  1.
        -11    1    4    4    0    0  0.84609441269E+01 -0.21428409848E+01 -0.14704404210E+01  0.88510755447E+01  0.51100000000E-03 0. -1.
        -12    1    4    4    0    0  0.11415609829E+02  0.24732339130E+02 -0.19864936597E+02  0.33713802109E+02  0.00000000000E+00 0.  1.
</event>
<event>
 8    1  0.2401501E-006  0.9118800E+02  0.7816164E-02  0.1184000E+00
        -11   -1    0    0    0    0  0.00000000000E+00  0.00000000000E+00  0.45593999997E+02  0.45594000000E+02  0.51100000000E-03 0. -1.
         11   -1    0    0    0    0 -0.00000000000E+00 -0.00000000000E+00 -0.45593999997E+02  0.45594000000E+02  0.51100000000E-03 0.  1.
         23    2    1    2    0    0  0.00000000000E+00  0.00000000000E+00  0.00000000000E+00  0.91188000000E+02  0.91188000000E+02 0.  0.
    9900012    2    3    3    0    0  0.15710202908E+02  0.18649896860E+02  0.27588965089E+02  0.54367080362E+02  0.39999991301E+02 0.  0.
        -12    1    3    3    0    0 -0.15710202908E+02 -0.18649896860E+02 -0.27588965089E+02  0.36820919638E+02  0.00000000000E+00 0.  1.
         11    1    4    4    0    0  0.97053367044E+01 -0.28409720566E+01  0.10282780574E+02  0.14422214094E+02  0.51100000000E-03 0. -1.
        -11    1    4    4    0    0 -0.28362525863E+01  0.17761091771E+02 -0.22842645014E+01  0.18130597734E+02  0.51100000000E-03 0.  1.
        -12    1    4    4    0    0  0.88411187899E+01  0.37297771460E+01  0.19590449016E+02  0.21814268534E+02  0.00000000000E+00 0.  1.
</event>
<event>
 8    1  0.2401501E-006  0.9118800E+02  0.7816164E-02  0.1184000E+00
        -11   -1    0    0    0    0  0.00000000000E+00  0.00000000000E+00  0.45593999997E+02  0.45594000000E+02  0.51100000000E-03 0. -1.
         11   -1    0    0    0    0 -0.00000000000E+00 -0.00000000000E+00 -0.45593999997E+02  0.45594000000E+02  0.51100000000E-03 0.  1.
         23    2    1    2    0    0  0.35527136788E-14  0.00000000000E+00  0.00000000000E+00  0.91188000000E+02  0.91188000000E+02 0.  0.
    9900012    2    3    3    0    0  0.28378178783E+02  0.38517769556E+01  0.23143532601E+02  0.54367077714E+02  0.39999985264E+02 0.  0.
        -12    1    3    3    0    0 -0.28378178783E+02 -0.38517769556E+01 -0.23143532601E+02  0.36820922286E+02  0.00000000000E+00 0.  1.
         11    1    4    4    0    0  0.54437067422E+01 -0.38503093437E+01  0.22558723839E+02  0.23523495630E+02  0.51100000000E-03 0. -1.
        -11    1    4    4    0    0  0.16050843750E+02 -0.45153709309E+01  0.17847378717E+01  0.16769121899E+02  0.51100000000E-03 0.  1.
         12    1    4    4    0    0  0.68836282909E+01  0.12217457230E+02 -0.11999291099E+01  0.14074460185E+02  0.00000000000E+00 0. -1.
</event>
<event>
 8    1  0.2401501E-006  0.9118800E+02  0.7816164E-02  0.1184000E+00
        -11   -1    0    0    0    0  0.00000000000E+00  0.00000000000E+00  0.45593999997E+02  0.45594000000E+02  0.51100000000E-03 0. -1.
         11   -1    0    0    0    0 -0.00000000000E+00 -0.00000000000E+00 -0.45593999997E+02  0.45594000000E+02  0.51100000000E-03 0.  1.
         23    2    1    2    0    0 -0.17763568394E-14  0.00000000000E+00  0.00000000000E+00  0.91188000000E+02  0.91188000000E+02 0.  0.
    9900012    2    3    3    0    0  0.12227319821E+02 -0.27479590997E+02  0.21240070630E+02  0.54367138091E+02  0.40000122906E+02 0.  0.
        -12    1    3    3    0    0 -0.12227319821E+02  0.27479590997E+02 -0.21240070630E+02  0.36820861909E+02  0.00000000000E+00 0.  1.
         11    1    4    4    0    0 -0.85545669367E+01 -0.57464359109E+01 -0.71520933972E-04  0.10305442320E+02  0.51100000000E-03 0.  1.
        -11    1    4    4    0    0 -0.11352717095E+01 -0.13110537724E+02  0.13396558129E+01  0.13227612000E+02  0.51100000000E-03 0. -1.
         12    1    4    4    0    0  0.21917158467E+02 -0.86226173618E+01  0.19900486338E+02  0.30834083770E+02  0.00000000000E+00 0. -1.
</event>
<event>
 8    1  0.2401501E-006  0.9118800E+02  0.7816164E-02  0.1184000E+00
        -11   -1    0    0    0    0  0.00000000000E+00  0.00000000000E+00  0.45593999997E+02  0.45594000000E+02  0.51100000000E-03 0.  1.
         11   -1    0    0    0    0 -0.00000000000E+00 -0.00000000000E+00 -0.45593999997E+02  0.45594000000E+02  0.51100000000E-03 0. -1.
         23    2    1    2    0    0  0.35527136788E-14  0.00000000000E+00  0.35527136788E-14  0.91188000000E+02  0.91188000000E+02 0.  0.
    9900012    2    3    3    0    0  0.18988525331E+02 -0.22570382902E+02  0.22040554300E+02  0.54367186424E+02  0.40000233089E+02 0.  0.
         12    1    3    3    0    0 -0.18988525331E+02  0.22570382902E+02 -0.22040554300E+02  0.36820813576E+02  0.00000000000E+00 0. -1.
         11    1    4    4    0    0  0.22949438018E+02 -0.44353845422E+01  0.19945950314E+02  0.30727679306E+02  0.51100000000E-03 0. -1.
        -11    1    4    4    0    0  0.13862169582E+01 -0.16382019561E+02  0.51603723701E+01  0.17231413337E+02  0.51100000000E-03 0.  1.
         12    1    4    4    0    0 -0.53471296451E+01 -0.17529787986E+01 -0.30657683837E+01  0.64080937799E+01  0.00000000000E+00 0. -1.
</event>
<event>
 8    1  0.2401501E-006  0.9118800E+02  0.7816164E-02  0.1184000E+00
        -11   -1    0    0    0    0  0.00000000000E+00  0.00000000000E+00  0.45593999997E+02  0.45594000000E+02  0.51100000000E-03 0.  1.
         11   -1    0    0    0    0 -0.00000000000E+00 -0.00000000000E+00 -0.45593999997E+02  0.45594000000E+02  0.51100000000E-03 0. -1.
         23    2    1    2    0    0  0.35527136788E-14  0.00000000000E+00  0.00000000000E+00  0.91188000000E+02  0.91188000000E+02 0.  0.
    9900012    2    3    3    0    0 -0.28301891814E+02  0.21740947210E+02 -0.90616769200E+01  0.54367084009E+02  0.39999999615E+02 0.  0.
        -12    1    3    3    0    0  0.28301891814E+02 -0.21740947210E+02  0.90616769200E+01  0.36820915991E+02  0.00000000000E+00 0.  1.
         11    1    4    4    0    0  0.56841463106E+01  0.68303673189E+00  0.26577464102E+00  0.57312036152E+01  0.51100000000E-03 0.  1.
        -11    1    4    4    0    0 -0.98364819168E+01 -0.51625970612E+01  0.18833567091E+01  0.11267467225E+02  0.51100000000E-03 0. -1.
         12    1    4    4    0    0 -0.24149556208E+02  0.26220507539E+02 -0.11210808270E+02  0.37368413168E+02  0.00000000000E+00 0. -1.
</event>
<event>
 8    1  0.2401501E-006  0.9118800E+02  0.7816164E-02  0.1184000E+00
        -11   -1    0    0    0    0  0.00000000000E+00  0.00000000000E+00  0.45593999997E+02  0.45594000000E+02  0.51100000000E-03 0. -1.
         11   -1    0    0    0    0 -0.00000000000E+00 -0.00000000000E+00 -0.45593999997E+02  0.45594000000E+02  0.51100000000E-03 0.  1.
         23    2    1    2    0    0 -0.35527136788E-14  0.00000000000E+00 -0.44408920985E-15  0.91188000000E+02  0.91188000000E+02 0.  0.
    9900012    2    3    3    0    0  0.31351603320E+02 -0.18934200774E+02  0.37885753653E+01  0.54367078053E+02  0.39999986038E+02 0.  0.
        -12    1    3    3    0    0 -0.31351603320E+02  0.18934200774E+02 -0.37885753653E+01  0.36820921947E+02  0.00000000000E+00 0.  1.
         11    1    4    4    0    0  0.17657503165E+02 -0.19055092958E+02  0.10246279746E+02  0.27926156817E+02  0.51100000000E-03 0. -1.
        -11    1    4    4    0    0  0.20275382935E+01  0.90855333531E+01  0.19270908358E+01  0.95063929643E+01  0.51100000000E-03 0.  1.
         12    1    4    4    0    0  0.11666561861E+02 -0.89646411689E+01 -0.83847952167E+01  0.16934528272E+02  0.00000000000E+00 0. -1.
</event>
<event>
 8    1  0.2401501E-006  0.9118800E+02  0.7816164E-02  0.1184000E+00
        -11   -1    0    0    0    0  0.00000000000E+00  0.00000000000E+00  0.45593999997E+02  0.45594000000E+02  0.51100000000E-03 0.  1.
         11   -1    0    0    0    0 -0.00000000000E+00 -0.00000000000E+00 -0.45593999997E+02  0.45594000000E+02  0.51100000000E-03 0. -1.
         23    2    1    2    0    0 -0.88817841970E-15  0.00000000000E+00 -0.19984014443E-14  0.91188000000E+02  0.91188000000E+02 0.  0.
    9900012    2    3    3    0    0 -0.45766871088E+01  0.36504586290E+02 -0.14994337940E+01  0.54367093074E+02  0.40000020281E+02 0.  0.
         12    1    3    3    0    0  0.45766871088E+01 -0.36504586290E+02  0.14994337940E+01  0.36820906926E+02  0.00000000000E+00 0. -1.
         11    1    4    4    0    0 -0.85577261406E+01  0.23942417446E+02 -0.15149722150E+02  0.29597096333E+02  0.51100000000E-03 0. -1.
        -11    1    4    4    0    0  0.41980620269E+00  0.13466544114E+02  0.15598168631E+02  0.20611329713E+02  0.51100000000E-03 0.  1.
         12    1    4    4    0    0  0.35612328291E+01 -0.90437526923E+00 -0.19478802747E+01  0.41586670287E+01  0.00000000000E+00 0. -1.
</event>
<event>
 8    1  0.2401501E-006  0.9118800E+02  0.7816164E-02  0.1184000E+00
        -11   -1    0    0    0    0  0.00000000000E+00  0.00000000000E+00  0.45593999997E+02  0.45594000000E+02  0.51100000000E-03 0.  1.
         11   -1    0    0    0    0 -0.00000000000E+00 -0.00000000000E+00 -0.45593999997E+02  0.45594000000E+02  0.51100000000E-03 0. -1.
         23    2    1    2    0    0  0.35527136788E-14  0.00000000000E+00  0.88817841970E-15  0.91188000000E+02  0.91188000000E+02 0.  0.
    9900012    2    3    3    0    0  0.31316769610E+02  0.18646878741E+02 -0.52276939368E+01  0.54367150885E+02  0.40000152073E+02 0.  0.
        -12    1    3    3    0    0 -0.31316769610E+02 -0.18646878741E+02  0.52276939368E+01  0.36820849115E+02  0.00000000000E+00 0.  1.
         11    1    4    4    0    0  0.17645589703E+01  0.47889109320E+01 -0.88929430822E+01  0.10253378624E+02  0.51100000000E-03 0. -1.
        -11    1    4    4    0    0 -0.38757005507E+01  0.73373523131E-01  0.67919485959E+01  0.78202943949E+01  0.51100000000E-03 0.  1.
         12    1    4    4    0    0  0.33427911191E+02  0.13784594286E+02 -0.31266994505E+01  0.36293477867E+02  0.00000000000E+00 0. -1.
</event>
<event>
 8    1  0.2401501E-006  0.9118800E+02  0.7816164E-02  0.1184000E+00
        -11   -1    0    0    0    0  0.00000000000E+00  0.00000000000E+00  0.45593999997E+02  0.45594000000E+02  0.51100000000E-03 0.  1.
         11   -1    0    0    0    0 -0.00000000000E+00 -0.00000000000E+00 -0.45593999997E+02  0.45594000000E+02  0.51100000000E-03 0. -1.
         23    2    1    2    0    0  0.88817841970E-15  0.00000000000E+00  0.00000000000E+00  0.91188000000E+02  0.91188000000E+02 0.  0.
    9900012    2    3    3    0    0  0.26841201996E+01 -0.14508844462E+02  0.33735310109E+02  0.54367051927E+02  0.39999926477E+02 0.  0.
         12    1    3    3    0    0 -0.26841201996E+01  0.14508844462E+02 -0.33735310109E+02  0.36820948073E+02  0.00000000000E+00 0. -1.
         11    1    4    4    0    0  0.12158312416E+01 -0.89963343911E+00 -0.11101656377E+01  0.18761806781E+01  0.51100000000E-03 0.  1.
        -11    1    4    4    0    0  0.16163402569E+02 -0.11547540445E+02  0.72269375604E+01  0.21138351395E+02  0.51100000000E-03 0. -1.
        -12    1    4    4    0    0 -0.14695113611E+02 -0.20616705782E+01  0.27618538186E+02  0.31352519853E+02  0.00000000000E+00 0.  1.
</event>
<event>
 8    1  0.2401501E-006  0.9118800E+02  0.7816164E-02  0.1184000E+00
        -11   -1    0    0    0    0  0.00000000000E+00  0.00000000000E+00  0.45593999997E+02  0.45594000000E+02  0.51100000000E-03 0.  1.
         11   -1    0    0    0    0 -0.00000000000E+00 -0.00000000000E+00 -0.45593999997E+02  0.45594000000E+02  0.51100000000E-03 0. -1.
         23    2    1    2    0    0  0.35527136788E-14 -0.53290705182E-14  0.71054273576E-14  0.91188000000E+02  0.91188000000E+02 0.  0.
    9900012    2    3    3    0    0 -0.24443300723E+02  0.11270764191E+02 -0.25125202506E+02  0.54367070128E+02  0.39999967971E+02 0.  0.
        -12    1    3    3    0    0  0.24443300723E+02 -0.11270764191E+02  0.25125202506E+02  0.36820929872E+02  0.00000000000E+00 0.  1.
         11    1    4    4    0    0 -0.12620056420E+01 -0.77023433986E+01 -0.23519632093E+00  0.78085894783E+01  0.51100000000E-03 0. -1.
        -11    1    4    4    0    0  0.33260940542E+01  0.34776001400E+01 -0.12596866158E+02  0.13484718820E+02  0.51100000000E-03 0.  1.
         12    1    4    4    0    0 -0.26507389135E+02  0.15495507449E+02 -0.12293140027E+02  0.33073761830E+02  0.00000000000E+00 0. -1.
</event>
<event>
 8    1  0.2401501E-006  0.9118800E+02  0.7816164E-02  0.1184000E+00
        -11   -1    0    0    0    0  0.00000000000E+00  0.00000000000E+00  0.45593999997E+02  0.45594000000E+02  0.51100000000E-03 0. -1.
         11   -1    0    0    0    0 -0.00000000000E+00 -0.00000000000E+00 -0.45593999997E+02  0.45594000000E+02  0.51100000000E-03 0.  1.
         23    2    1    2    0    0  0.00000000000E+00 -0.17763568394E-14  0.35527136788E-14  0.91188000000E+02  0.91188000000E+02 0.  0.
    9900012    2    3    3    0    0 -0.11331982172E+02  0.15407690218E+02 -0.31463771944E+02  0.54367086340E+02  0.40000004929E+02 0.  0.
         12    1    3    3    0    0  0.11331982172E+02 -0.15407690218E+02  0.31463771944E+02  0.36820913660E+02  0.00000000000E+00 0. -1.
         11    1    4    4    0    0  0.53979480904E+01  0.39568424251E+01 -0.17269206324E+02  0.18520797307E+02  0.51100000000E-03 0. -1.
        -11    1    4    4    0    0 -0.99690018203E+00  0.85390419451E+01  0.57006847584E+01  0.10315369809E+02  0.51100000000E-03 0.  1.
        -12    1    4    4    0    0 -0.15733030081E+02  0.29118058479E+01 -0.19895250379E+02  0.25530919225E+02  0.00000000000E+00 0.  1.
</event>
<event>
 8    1  0.2401501E-006  0.9118800E+02  0.7816164E-02  0.1184000E+00
        -11   -1    0    0    0    0  0.00000000000E+00  0.00000000000E+00  0.45593999997E+02  0.45594000000E+02  0.51100000000E-03 0. -1.
         11   -1    0    0    0    0 -0.00000000000E+00 -0.00000000000E+00 -0.45593999997E+02  0.45594000000E+02  0.51100000000E-03 0.  1.
         23    2    1    2    0    0  0.00000000000E+00  0.00000000000E+00 -0.88817841970E-15  0.91188000000E+02  0.91188000000E+02 0.  0.
    9900012    2    3    3    0    0  0.32010364315E+02 -0.17072860970E+02 -0.62951855200E+01  0.54367144959E+02  0.40000138562E+02 0.  0.
        -12    1    3    3    0    0 -0.32010364315E+02  0.17072860970E+02  0.62951855200E+01  0.36820855041E+02  0.00000000000E+00 0.  1.
         11    1    4    4    0    0  0.18646588323E+02 -0.12065230497E+02  0.15714318391E+01  0.22265094685E+02  0.51100000000E-03 0. -1.
        -11    1    4    4    0    0  0.75633156724E+01 -0.16316355680E+02 -0.19713300271E+01  0.18091803364E+02  0.51100000000E-03 0.  1.
        -12    1    4    4    0    0  0.58004603189E+01  0.11308725208E+02 -0.58952873320E+01  0.14010246909E+02  0.00000000000E+00 0.  1.
</event>
<event>
 8    1  0.2401501E-006  0.9118800E+02  0.7816164E-02  0.1184000E+00
        -11   -1    0    0    0    0  0.00000000000E+00  0.00000000000E+00  0.45593999997E+02  0.45594000000E+02  0.51100000000E-03 0. -1.
         11   -1    0    0    0    0 -0.00000000000E+00 -0.00000000000E+00 -0.45593999997E+02  0.45594000000E+02  0.51100000000E-03 0.  1.
         23    2    1    2    0    0  0.00000000000E+00  0.35527136788E-14  0.00000000000E+00  0.91188000000E+02  0.91188000000E+02 0.  0.
    9900012    2    3    3    0    0  0.44370067074E+01 -0.29799856045E+02  0.21167466067E+02  0.54367081101E+02  0.39999992986E+02 0.  0.
        -12    1    3    3    0    0 -0.44370067074E+01  0.29799856045E+02 -0.21167466067E+02  0.36820918899E+02  0.00000000000E+00 0.  1.
         11    1    4    4    0    0  0.19489849517E+01 -0.25357155789E+02  0.15359598550E+02  0.29710287107E+02  0.51100000000E-03 0. -1.
        -11    1    4    4    0    0  0.82237721667E+00 -0.14945607269E+01 -0.91565271355E+01  0.93140756652E+01  0.51100000000E-03 0.  1.
        -12    1    4    4    0    0  0.16656445390E+01 -0.29481395290E+01  0.14964394653E+02  0.15342718329E+02  0.00000000000E+00 0.  1.
</event>
<event>
 8    1  0.2401501E-006  0.9118800E+02  0.7816164E-02  0.1184000E+00
        -11   -1    0    0    0    0  0.00000000000E+00  0.00000000000E+00  0.45593999997E+02  0.45594000000E+02  0.51100000000E-03 0.  1.
         11   -1    0    0    0    0 -0.00000000000E+00 -0.00000000000E+00 -0.45593999997E+02  0.45594000000E+02  0.51100000000E-03 0. -1.
         23    2    1    2    0    0  0.00000000000E+00  0.17763568394E-14 -0.44408920985E-15  0.91188000000E+02  0.91188000000E+02 0.  0.
    9900012    2    3    3    0    0  0.34085253416E+02 -0.13495536569E+02 -0.34416864046E+01  0.54367092719E+02  0.40000019471E+02 0.  0.
        -12    1    3    3    0    0 -0.34085253416E+02  0.13495536569E+02  0.34416864046E+01  0.36820907281E+02  0.00000000000E+00 0.  1.
         11    1    4    4    0    0  0.37735024622E+02 -0.15265193495E+02 -0.72373917016E+01  0.41344141720E+02  0.51100000000E-03 0. -1.
        -11    1    4    4    0    0  0.24960607305E+01 -0.25276021844E+01  0.42147214453E+01  0.55120748449E+01  0.51100000000E-03 0.  1.
         12    1    4    4    0    0 -0.61458319370E+01  0.42972591112E+01 -0.41901614826E+00  0.75108761538E+01  0.00000000000E+00 0. -1.
</event>
<event>
 8    1  0.2401501E-006  0.9118800E+02  0.7816164E-02  0.1184000E+00
        -11   -1    0    0    0    0  0.00000000000E+00  0.00000000000E+00  0.45593999997E+02  0.45594000000E+02  0.51100000000E-03 0. -1.
         11   -1    0    0    0    0 -0.00000000000E+00 -0.00000000000E+00 -0.45593999997E+02  0.45594000000E+02  0.51100000000E-03 0.  1.
         23    2    1    2    0    0  0.00000000000E+00  0.71054273576E-14  0.00000000000E+00  0.91188000000E+02  0.91188000000E+02 0.  0.
    9900012    2    3    3    0    0  0.22072339719E+02  0.24383859069E+02 -0.16553554874E+02  0.54367069231E+02  0.39999965925E+02 0.  0.
         12    1    3    3    0    0 -0.22072339719E+02 -0.24383859069E+02  0.16553554874E+02  0.36820930769E+02  0.00000000000E+00 0. -1.
         11    1    4    4    0    0  0.14843090467E+02 -0.19279462731E+00 -0.73740149135E+01  0.16574999264E+02  0.51100000000E-03 0. -1.
        -11    1    4    4    0    0  0.12147424025E+02  0.68049541904E+00 -0.17689875070E+01  0.12294401227E+02  0.51100000000E-03 0.  1.
        -12    1    4    4    0    0 -0.49181747734E+01  0.23896158277E+02 -0.74105524534E+01  0.25497668740E+02  0.00000000000E+00 0.  1.
</event>
<event>
 8    1  0.2401501E-006  0.9118800E+02  0.7816164E-02  0.1184000E+00
        -11   -1    0    0    0    0  0.00000000000E+00  0.00000000000E+00  0.45593999997E+02  0.45594000000E+02  0.51100000000E-03 0.  1.
         11   -1    0    0    0    0 -0.00000000000E+00 -0.00000000000E+00 -0.45593999997E+02  0.45594000000E+02  0.51100000000E-03 0. -1.
         23    2    1    2    0    0  0.35527136788E-14  0.00000000000E+00  0.00000000000E+00  0.91188000000E+02  0.91188000000E+02 0.  0.
    9900012    2    3    3    0    0  0.29636115534E+02  0.20117229906E+02  0.85309485809E+01  0.54367090631E+02  0.40000014712E+02 0.  0.
         12    1    3    3    0    0 -0.29636115534E+02 -0.20117229906E+02 -0.85309485809E+01  0.36820909369E+02  0.00000000000E+00 0. -1.
         11    1    4    4    0    0  0.64287933885E+01  0.90297637704E+01  0.12316433182E+02  0.16569868580E+02  0.51100000000E-03 0. -1.
        -11    1    4    4    0    0 -0.63054486217E+01  0.10365516347E+01  0.71141183633E-02  0.63900839183E+01  0.51100000000E-03 0.  1.
         12    1    4    4    0    0  0.29512770767E+02  0.10050914501E+02 -0.37925987191E+01  0.31407138133E+02  0.00000000000E+00 0. -1.
</event>
<event>
 8    1  0.2401501E-006  0.9118800E+02  0.7816164E-02  0.1184000E+00
        -11   -1    0    0    0    0  0.00000000000E+00  0.00000000000E+00  0.45593999997E+02  0.45594000000E+02  0.51100000000E-03 0. -1.
         11   -1    0    0    0    0 -0.00000000000E+00 -0.00000000000E+00 -0.45593999997E+02  0.45594000000E+02  0.51100000000E-03 0.  1.
         23    2    1    2    0    0  0.00000000000E+00  0.00000000000E+00  0.88817841970E-15  0.91188000000E+02  0.91188000000E+02 0.  0.
    9900012    2    3    3    0    0 -0.23970615602E+02 -0.27661162342E+02  0.40064886373E+01  0.54367051266E+02  0.39999924972E+02 0.  0.
         12    1    3    3    0    0  0.23970615602E+02  0.27661162342E+02 -0.40064886373E+01  0.36820948734E+02  0.00000000000E+00 0. -1.
         11    1    4    4    0    0 -0.10313211437E+02 -0.13643076272E+02  0.42893470969E+01  0.17632196661E+02  0.51100000000E-03 0. -1.
        -11    1    4    4    0    0 -0.11408473765E+02 -0.18697261791E+02  0.10855882387E+02  0.24445675584E+02  0.51100000000E-03 0.  1.
         12    1    4    4    0    0 -0.22489303999E+01  0.46791757204E+01 -0.11138740847E+02  0.12289179021E+02  0.00000000000E+00 0. -1.
</event>
<event>
 8    1  0.2401501E-006  0.9118800E+02  0.7816164E-02  0.1184000E+00
        -11   -1    0    0    0    0  0.00000000000E+00  0.00000000000E+00  0.45593999997E+02  0.45594000000E+02  0.51100000000E-03 0.  1.
         11   -1    0    0    0    0 -0.00000000000E+00 -0.00000000000E+00 -0.45593999997E+02  0.45594000000E+02  0.51100000000E-03 0. -1.
         23    2    1    2    0    0  0.17763568394E-14  0.00000000000E+00  0.00000000000E+00  0.91188000000E+02  0.91188000000E+02 0.  0.
    9900012    2    3    3    0    0  0.11289311279E+02  0.25123211347E+02 -0.24436970776E+02  0.54366948436E+02  0.39999690548E+02 0.  0.
        -12    1    3    3    0    0 -0.11289311279E+02 -0.25123211347E+02  0.24436970776E+02  0.36821051564E+02  0.00000000000E+00 0.  1.
         11    1    4    4    0    0 -0.10411290502E+01  0.25990923973E+01 -0.83730274094E+01  0.88287495858E+01  0.51100000000E-03 0. -1.
        -11    1    4    4    0    0  0.20147344433E+02  0.11038359925E+02 -0.20667909985E+02  0.30901834589E+02  0.51100000000E-03 0.  1.
        -12    1    4    4    0    0 -0.78169041047E+01  0.11485759025E+02  0.46039666182E+01  0.14636364261E+02  0.00000000000E+00 0.  1.
</event>
<event>
 8    1  0.2401501E-006  0.9118800E+02  0.7816164E-02  0.1184000E+00
        -11   -1    0    0    0    0  0.00000000000E+00  0.00000000000E+00  0.45593999997E+02  0.45594000000E+02  0.51100000000E-03 0. -1.
         11   -1    0    0    0    0 -0.00000000000E+00 -0.00000000000E+00 -0.45593999997E+02  0.45594000000E+02  0.51100000000E-03 0.  1.
         23    2    1    2    0    0 -0.35527136788E-14  0.00000000000E+00  0.00000000000E+00  0.91188000000E+02  0.91188000000E+02 0.  0.
    9900012    2    3    3    0    0 -0.26781421359E+02 -0.16333023794E+02  0.19281279383E+02  0.54367082971E+02  0.39999997248E+02 0.  0.
        -12    1    3    3    0    0  0.26781421359E+02  0.16333023794E+02 -0.19281279383E+02  0.36820917029E+02  0.00000000000E+00 0.  1.
         11    1    4    4    0    0  0.91691789397E+00  0.13312383756E+01  0.16881935145E+02  0.16959147046E+02  0.51100000000E-03 0. -1.
        -11    1    4    4    0    0 -0.89982985221E+01 -0.13980326865E+02  0.66053150350E+01  0.17889916224E+02  0.51100000000E-03 0.  1.
        -12    1    4    4    0    0 -0.18700040731E+02 -0.36839353048E+01 -0.42059707973E+01  0.19518019700E+02  0.00000000000E+00 0.  1.
</event>
<event>
 8    1  0.2401501E-006  0.9118800E+02  0.7816164E-02  0.1184000E+00
        -11   -1    0    0    0    0  0.00000000000E+00  0.00000000000E+00  0.45593999997E+02  0.45594000000E+02  0.51100000000E-03 0. -1.
         11   -1    0    0    0    0 -0.00000000000E+00 -0.00000000000E+00 -0.45593999997E+02  0.45594000000E+02  0.51100000000E-03 0.  1.
         23    2    1    2    0    0  0.44408920985E-15  0.71054273576E-14  0.17763568394E-14  0.91188000000E+02  0.91188000000E+02 0.  0.
    9900012    2    3    3    0    0 -0.35196965779E+01  0.34337600674E+02 -0.12818758137E+02  0.54367086863E+02  0.40000006122E+02 0.  0.
         12    1    3    3    0    0  0.35196965779E+01 -0.34337600674E+02  0.12818758137E+02  0.36820913137E+02  0.00000000000E+00 0. -1.
         11    1    4    4    0    0  0.77541721579E+01  0.20958437684E+02  0.37905084244E+01  0.22666081496E+02  0.51100000000E-03 0. -1.
        -11    1    4    4    0    0 -0.29794612047E+01  0.12108843458E+02  0.67424669305E+00  0.12488229971E+02  0.51100000000E-03 0.  1.
        -12    1    4    4    0    0 -0.82944075311E+01  0.12703195325E+01 -0.17283513254E+02  0.19212775396E+02  0.00000000000E+00 0.  1.
</event>
<event>
 8    1  0.2401501E-006  0.9118800E+02  0.7816164E-02  0.1184000E+00
        -11   -1    0    0    0    0  0.00000000000E+00  0.00000000000E+00  0.45593999997E+02  0.45594000000E+02  0.51100000000E-03 0.  1.
         11   -1    0    0    0    0 -0.00000000000E+00 -0.00000000000E+00 -0.45593999997E+02  0.45594000000E+02  0.51100000000E-03 0. -1.
         23    2    1    2    0    0  0.00000000000E+00  0.00000000000E+00  0.00000000000E+00  0.91188000000E+02  0.91188000000E+02 0.  0.
    9900012    2    3    3    0    0 -0.24615836722E+02  0.16404745291E+02 -0.21925446735E+02  0.54367077957E+02  0.39999985818E+02 0.  0.
        -12    1    3    3    0    0  0.24615836722E+02 -0.16404745291E+02  0.21925446735E+02  0.36820922043E+02  0.00000000000E+00 0.  1.
         11    1    4    4    0    0  0.49048292988E+01  0.68890223231E+01 -0.82865323264E+01  0.11839873195E+02  0.51100000000E-03 0. -1.
        -11    1    4    4    0    0 -0.74691599572E+01  0.17379873637E+01 -0.17239931702E+02  0.18868603443E+02  0.51100000000E-03 0.  1.
        -12    1    4    4    0    0 -0.22051506064E+02  0.77777356039E+01  0.36010172936E+01  0.23658601319E+02  0.00000000000E+00 0.  1.
</event>
<event>
 8    1  0.2401501E-006  0.9118800E+02  0.7816164E-02  0.1184000E+00
        -11   -1    0    0    0    0  0.00000000000E+00  0.00000000000E+00  0.45593999997E+02  0.45594000000E+02  0.51100000000E-03 0. -1.
         11   -1    0    0    0    0 -0.00000000000E+00 -0.00000000000E+00 -0.45593999997E+02  0.45594000000E+02  0.51100000000E-03 0.  1.
         23    2    1    2    0    0 -0.17763568394E-14 -0.35527136788E-14  0.00000000000E+00  0.91188000000E+02  0.91188000000E+02 0.  0.
    9900012    2    3    3    0    0 -0.15078522668E+02 -0.21438035660E+02 -0.25861732147E+02  0.54367076485E+02  0.39999982463E+02 0.  0.
         12    1    3    3    0    0  0.15078522668E+02  0.21438035660E+02  0.25861732147E+02  0.36820923515E+02  0.00000000000E+00 0. -1.
         11    1    4    4    0    0 -0.72367884131E+01 -0.32161025715E+01 -0.92817124325E+00  0.79734512229E+01  0.51100000000E-03 0. -1.
        -11    1    4    4    0    0 -0.19947099484E+02 -0.10816156185E+02 -0.74650253219E+01  0.23887289837E+02  0.51100000000E-03 0.  1.
        -12    1    4    4    0    0  0.12105365229E+02 -0.74057769044E+01 -0.17468535582E+02  0.22506335425E+02  0.00000000000E+00 0.  1.
</event>
<event>
 8    1  0.2401501E-006  0.9118800E+02  0.7816164E-02  0.1184000E+00
        -11   -1    0    0    0    0  0.00000000000E+00  0.00000000000E+00  0.45593999997E+02  0.45594000000E+02  0.51100000000E-03 0.  1.
         11   -1    0    0    0    0 -0.00000000000E+00 -0.00000000000E+00 -0.45593999997E+02  0.45594000000E+02  0.51100000000E-03 0. -1.
         23    2    1    2    0    0 -0.17763568394E-14  0.00000000000E+00  0.00000000000E+00  0.91188000000E+02  0.91188000000E+02 0.  0.
    9900012    2    3    3    0    0 -0.52921218213E+01  0.31545457820E+02  0.18238927732E+02  0.54367069170E+02  0.39999965786E+02 0.  0.
         12    1    3    3    0    0  0.52921218213E+01 -0.31545457820E+02 -0.18238927732E+02  0.36820930830E+02  0.00000000000E+00 0. -1.
         11    1    4    4    0    0 -0.40611431692E+01 -0.43332594638E+01 -0.31519922467E+01  0.67234720797E+01  0.51100000000E-03 0. -1.
        -11    1    4    4    0    0  0.99816369300E+01  0.25110034777E+02  0.13260813987E+02  0.30099769271E+02  0.51100000000E-03 0.  1.
        -12    1    4    4    0    0 -0.11212615582E+02  0.10768682507E+02  0.81301059911E+01  0.17543827819E+02  0.00000000000E+00 0.  1.
</event>
<event>
 8    1  0.2401501E-006  0.9118800E+02  0.7816164E-02  0.1184000E+00
        -11   -1    0    0    0    0  0.00000000000E+00  0.00000000000E+00  0.45593999997E+02  0.45594000000E+02  0.51100000000E-03 0. -1.
         11   -1    0    0    0    0 -0.00000000000E+00 -0.00000000000E+00 -0.45593999997E+02  0.45594000000E+02  0.51100000000E-03 0.  1.
         23    2    1    2    0    0  0.00000000000E+00  0.71054273576E-14 -0.35527136788E-14  0.91188000000E+02  0.91188000000E+02 0.  0.
    9900012    2    3    3    0    0 -0.26376991985E+01  0.31260382982E+02 -0.19277157187E+02  0.54367112036E+02  0.40000063509E+02 0.  0.
         12    1    3    3    0    0  0.26376991985E+01 -0.31260382982E+02  0.19277157187E+02  0.36820887964E+02  0.00000000000E+00 0. -1.
         11    1    4    4    0    0 -0.14193041932E+02  0.89156412563E+00  0.73029060254E+00  0.14239755985E+02  0.51100000000E-03 0. -1.
        -11    1    4    4    0    0 -0.26332643220E+01  0.45899273947E+01 -0.39686780964E+01  0.66145234577E+01  0.51100000000E-03 0.  1.
        -12    1    4    4    0    0  0.14188607056E+02  0.25778891462E+02 -0.16038769693E+02  0.33512832594E+02  0.00000000000E+00 0.  1.
</event>
<event>
 8    1  0.2401501E-006  0.9118800E+02  0.7816164E-02  0.1184000E+00
        -11   -1    0    0    0    0  0.00000000000E+00  0.00000000000E+00  0.45593999997E+02  0.45594000000E+02  0.51100000000E-03 0. -1.
         11   -1    0    0    0    0 -0.00000000000E+00 -0.00000000000E+00 -0.45593999997E+02  0.45594000000E+02  0.51100000000E-03 0.  1.
         23    2    1    2    0    0  0.00000000000E+00 -0.35527136788E-14  0.35527136788E-14  0.91188000000E+02  0.91188000000E+02 0.  0.
    9900012    2    3    3    0    0  0.14079708054E+02  0.18589911292E+02  0.28494863698E+02  0.54367078801E+02  0.39999987744E+02 0.  0.
        -12    1    3    3    0    0 -0.14079708054E+02 -0.18589911292E+02 -0.28494863698E+02  0.36820921199E+02  0.00000000000E+00 0.  1.
         11    1    4    4    0    0  0.46601961790E+01  0.19972664116E+02  0.49205515137E+00  0.20515039821E+02  0.51100000000E-03 0. -1.
        -11    1    4    4    0    0  0.14200471694E+01 -0.17092491269E+01 -0.18828376757E+01  0.29125838212E+01  0.51100000000E-03 0.  1.
         12    1    4    4    0    0  0.79994647058E+01  0.32649630270E+00  0.29885646223E+02  0.30939455159E+02  0.00000000000E+00 0. -1.
</event>
<event>
 8    1  0.2401501E-006  0.9118800E+02  0.7816164E-02  0.1184000E+00
        -11   -1    0    0    0    0  0.00000000000E+00  0.00000000000E+00  0.45593999997E+02  0.45594000000E+02  0.51100000000E-03 0. -1.
         11   -1    0    0    0    0 -0.00000000000E+00 -0.00000000000E+00 -0.45593999997E+02  0.45594000000E+02  0.51100000000E-03 0.  1.
         23    2    1    2    0    0 -0.26645352591E-14  0.35527136788E-14 -0.35527136788E-14  0.91188000000E+02  0.91188000000E+02 0.  0.
    9900012    2    3    3    0    0 -0.73962141398E+01  0.27452344369E+02 -0.23397520955E+02  0.54367093143E+02  0.40000020438E+02 0.  0.
         12    1    3    3    0    0  0.73962141398E+01 -0.27452344369E+02  0.23397520955E+02  0.36820906857E+02  0.00000000000E+00 0. -1.
         11    1    4    4    0    0 -0.53726730571E+01 -0.66128207672E+00  0.49245400293E+01  0.73180601613E+01  0.51100000000E-03 0. -1.
        -11    1    4    4    0    0  0.71746779880E+01  0.21762457743E+02 -0.27564893713E+02  0.35845556725E+02  0.51100000000E-03 0.  1.
        -12    1    4    4    0    0 -0.91982190707E+01  0.63511687026E+01 -0.75716727154E+00  0.11203476257E+02  0.00000000000E+00 0.  1.
</event>
<event>
 8    1  0.2401501E-006  0.9118800E+02  0.7816164E-02  0.1184000E+00
        -11   -1    0    0    0    0  0.00000000000E+00  0.00000000000E+00  0.45593999997E+02  0.45594000000E+02  0.51100000000E-03 0.  1.
         11   -1    0    0    0    0 -0.00000000000E+00 -0.00000000000E+00 -0.45593999997E+02  0.45594000000E+02  0.51100000000E-03 0. -1.
         23    2    1    2    0    0  0.00000000000E+00 -0.17763568394E-14  0.00000000000E+00  0.91188000000E+02  0.91188000000E+02 0.  0.
    9900012    2    3    3    0    0 -0.30441048028E+02  0.58685344684E+01 -0.19866622667E+02  0.54367084774E+02  0.40000001360E+02 0.  0.
        -12    1    3    3    0    0  0.30441048028E+02 -0.58685344684E+01  0.19866622667E+02  0.36820915226E+02  0.00000000000E+00 0.  1.
         11    1    4    4    0    0 -0.15522912406E+02  0.69830174968E+01 -0.19459578813E+02  0.25853405013E+02  0.51100000000E-03 0. -1.
        -11    1    4    4    0    0 -0.13288337001E+02 -0.11723932073E+02  0.61233948072E+00  0.17731481704E+02  0.51100000000E-03 0.  1.
        -12    1    4    4    0    0 -0.16297986212E+01  0.10609449045E+02 -0.10193833345E+01  0.10782198058E+02  0.00000000000E+00 0.  1.
</event>
<event>
 8    1  0.2401501E-006  0.9118800E+02  0.7816164E-02  0.1184000E+00
        -11   -1    0    0    0    0  0.00000000000E+00  0.00000000000E+00  0.45593999997E+02  0.45594000000E+02  0.51100000000E-03 0.  1.
         11   -1    0    0    0    0 -0.00000000000E+00 -0.00000000000E+00 -0.45593999997E+02  0.45594000000E+02  0.51100000000E-03 0. -1.
         23    2    1    2    0    0  0.00000000000E+00  0.00000000000E+00 -0.35527136788E-14  0.91188000000E+02  0.91188000000E+02 0.  0.
    9900012    2    3    3    0    0  0.35155270429E+02  0.44417620451E+01  0.10007894651E+02  0.54367078714E+02  0.39999987545E+02 0.  0.
         12    1    3    3    0    0 -0.35155270429E+02 -0.44417620451E+01 -0.10007894651E+02  0.36820921286E+02  0.00000000000E+00 0. -1.
         11    1    4    4    0    0  0.11391424128E+01  0.10327865119E+02  0.12966254471E+02  0.16615841797E+02  0.51100000000E-03 0. -1.
        -11    1    4    4    0    0  0.11827050070E+02 -0.15861504132E+01 -0.82888584663E+01  0.14529286336E+02  0.51100000000E-03 0.  1.
        -12    1    4    4    0    0  0.22189077946E+02 -0.42999526607E+01  0.53304986458E+01  0.23221950581E+02  0.00000000000E+00 0.  1.
</event>
<event>
 8    1  0.2401501E-006  0.9118800E+02  0.7816164E-02  0.1184000E+00
        -11   -1    0    0    0    0  0.00000000000E+00  0.00000000000E+00  0.45593999997E+02  0.45594000000E+02  0.51100000000E-03 0. -1.
         11   -1    0    0    0    0 -0.00000000000E+00 -0.00000000000E+00 -0.45593999997E+02  0.45594000000E+02  0.51100000000E-03 0.  1.
         23    2    1    2    0    0 -0.17763568394E-14  0.35527136788E-14 -0.35527136788E-14  0.91188000000E+02  0.91188000000E+02 0.  0.
    9900012    2    3    3    0    0  0.11146528495E+02 -0.26297667877E+02  0.23237212971E+02  0.54367075244E+02  0.39999979633E+02 0.  0.
        -12    1    3    3    0    0 -0.11146528495E+02  0.26297667877E+02 -0.23237212971E+02  0.36820924756E+02  0.00000000000E+00 0.  1.
         11    1    4    4    0    0 -0.41587752048E+01 -0.75205000348E+01  0.13008665854E+02  0.15590981994E+02  0.51100000000E-03 0. -1.
        -11    1    4    4    0    0 -0.67023993911E+01  0.22676935040E+00 -0.23344130662E+01  0.71009201208E+01  0.51100000000E-03 0.  1.
         12    1    4    4    0    0  0.22007703091E+02 -0.19003937193E+02  0.12562960183E+02  0.31675173129E+02  0.00000000000E+00 0. -1.
</event>
<event>
 8    1  0.2401501E-006  0.9118800E+02  0.7816164E-02  0.1184000E+00
        -11   -1    0    0    0    0  0.00000000000E+00  0.00000000000E+00  0.45593999997E+02  0.45594000000E+02  0.51100000000E-03 0. -1.
         11   -1    0    0    0    0 -0.00000000000E+00 -0.00000000000E+00 -0.45593999997E+02  0.45594000000E+02  0.51100000000E-03 0.  1.
         23    2    1    2    0    0  0.00000000000E+00 -0.17763568394E-14 -0.88817841970E-15  0.91188000000E+02  0.91188000000E+02 0.  0.
    9900012    2    3    3    0    0  0.33898448623E+02  0.12367892800E+02  0.73287252871E+01  0.54367084670E+02  0.40000001123E+02 0.  0.
        -12    1    3    3    0    0 -0.33898448623E+02 -0.12367892800E+02 -0.73287252871E+01  0.36820915330E+02  0.00000000000E+00 0.  1.
         11    1    4    4    0    0  0.27544726479E+01  0.13099670253E+02  0.22116090263E+01  0.13567597247E+02  0.51100000000E-03 0. -1.
        -11    1    4    4    0    0  0.91949204656E+00 -0.83966714407E+00 -0.78228429200E+01  0.79213242674E+01  0.51100000000E-03 0.  1.
         12    1    4    4    0    0  0.30224483929E+02  0.10788969112E+00  0.12939959181E+02  0.32878163157E+02  0.00000000000E+00 0. -1.
</event>
<event>
 8    1  0.2401501E-006  0.9118800E+02  0.7816164E-02  0.1184000E+00
        -11   -1    0    0    0    0  0.00000000000E+00  0.00000000000E+00  0.45593999997E+02  0.45594000000E+02  0.51100000000E-03 0.  1.
         11   -1    0    0    0    0 -0.00000000000E+00 -0.00000000000E+00 -0.45593999997E+02  0.45594000000E+02  0.51100000000E-03 0. -1.
         23    2    1    2    0    0 -0.17763568394E-14 -0.17763568394E-14  0.00000000000E+00  0.91188000000E+02  0.91188000000E+02 0.  0.
    9900012    2    3    3    0    0  0.15543130265E+02  0.15508943679E+02 -0.29557804734E+02  0.54367081310E+02  0.39999993463E+02 0.  0.
        -12    1    3    3    0    0 -0.15543130265E+02 -0.15508943679E+02  0.29557804734E+02  0.36820918690E+02  0.00000000000E+00 0.  1.
         11    1    4    4    0    0  0.26932105704E+02  0.12409723230E+02 -0.15145569402E+02  0.33297564792E+02  0.51100000000E-03 0. -1.
        -11    1    4    4    0    0 -0.69101126607E+01  0.47721998021E+01 -0.13928123943E+02  0.16263953541E+02  0.51100000000E-03 0.  1.
         12    1    4    4    0    0 -0.44788627778E+01 -0.16729793528E+01 -0.48411138867E+00  0.48055629778E+01  0.00000000000E+00 0. -1.
</event>
<event>
 8    1  0.2401501E-006  0.9118800E+02  0.7816164E-02  0.1184000E+00
        -11   -1    0    0    0    0  0.00000000000E+00  0.00000000000E+00  0.45593999997E+02  0.45594000000E+02  0.51100000000E-03 0.  1.
         11   -1    0    0    0    0 -0.00000000000E+00 -0.00000000000E+00 -0.45593999997E+02  0.45594000000E+02  0.51100000000E-03 0. -1.
         23    2    1    2    0    0  0.00000000000E+00  0.00000000000E+00 -0.71054273576E-14  0.91188000000E+02  0.91188000000E+02 0.  0.
    9900012    2    3    3    0    0  0.12982366832E+02 -0.93035860191E+01 -0.33176520717E+02  0.54367080834E+02  0.39999992376E+02 0.  0.
        -12    1    3    3    0    0 -0.12982366832E+02  0.93035860191E+01  0.33176520717E+02  0.36820919166E+02  0.00000000000E+00 0.  1.
         11    1    4    4    0    0  0.10464747745E+02 -0.64807227860E+01  0.10486488055E+01  0.12353557292E+02  0.51100000000E-03 0. -1.
        -11    1    4    4    0    0  0.10186619367E+02 -0.83634879428E+01 -0.11864354792E+02  0.17733529248E+02  0.51100000000E-03 0.  1.
        -12    1    4    4    0    0 -0.76690002802E+01  0.55406247097E+01 -0.22360814730E+02  0.24279994293E+02  0.00000000000E+00 0.  1.
</event>
<event>
 8    1  0.2401501E-006  0.9118800E+02  0.7816164E-02  0.1184000E+00
        -11   -1    0    0    0    0  0.00000000000E+00  0.00000000000E+00  0.45593999997E+02  0.45594000000E+02  0.51100000000E-03 0. -1.
         11   -1    0    0    0    0 -0.00000000000E+00 -0.00000000000E+00 -0.45593999997E+02  0.45594000000E+02  0.51100000000E-03 0.  1.
         23    2    1    2    0    0  0.00000000000E+00  0.88817841970E-15  0.00000000000E+00  0.91188000000E+02  0.91188000000E+02 0.  0.
    9900012    2    3    3    0    0 -0.35568193479E+02 -0.76446007262E+01  0.56783884578E+01  0.54367076558E+02  0.39999982630E+02 0.  0.
        -12    1    3    3    0    0  0.35568193479E+02  0.76446007262E+01 -0.56783884578E+01  0.36820923442E+02  0.00000000000E+00 0.  1.
         11    1    4    4    0    0 -0.26867927719E+02 -0.25392052667E+01  0.13993955733E+01  0.27023904447E+02  0.51100000000E-03 0. -1.
        -11    1    4    4    0    0  0.71598292479E+01  0.20660224845E+01 -0.35536958613E+01  0.82559286759E+01  0.51100000000E-03 0.  1.
         12    1    4    4    0    0 -0.15860095008E+02 -0.71714179439E+01  0.78326887458E+01  0.19087243436E+02  0.00000000000E+00 0. -1.
</event>
<event>
 8    1  0.2401501E-006  0.9118800E+02  0.7816164E-02  0.1184000E+00
        -11   -1    0    0    0    0  0.00000000000E+00  0.00000000000E+00  0.45593999997E+02  0.45594000000E+02  0.51100000000E-03 0.  1.
         11   -1    0    0    0    0 -0.00000000000E+00 -0.00000000000E+00 -0.45593999997E+02  0.45594000000E+02  0.51100000000E-03 0. -1.
         23    2    1    2    0    0 -0.35527136788E-14  0.35527136788E-14 -0.35527136788E-14  0.91188000000E+02  0.91188000000E+02 0.  0.
    9900012    2    3    3    0    0 -0.26725544052E+02  0.19152352992E+02 -0.16574454409E+02  0.54367083811E+02  0.39999999164E+02 0.  0.
        -12    1    3    3    0    0  0.26725544052E+02 -0.19152352992E+02  0.16574454409E+02  0.36820916189E+02  0.00000000000E+00 0.  1.
         11    1    4    4    0    0 -0.20206267630E+02  0.10610822976E+02 -0.45380480964E+01  0.23269651836E+02  0.51100000000E-03 0. -1.
        -11    1    4    4    0    0 -0.50448163453E+01 -0.54716821618E+00  0.77557955046E+01  0.92683293632E+01  0.51100000000E-03 0.  1.
         12    1    4    4    0    0 -0.14744600769E+01  0.90886982325E+01 -0.19792201817E+02  0.21829102612E+02  0.00000000000E+00 0. -1.
</event>
<event>
 8    1  0.2401501E-006  0.9118800E+02  0.7816164E-02  0.1184000E+00
        -11   -1    0    0    0    0  0.00000000000E+00  0.00000000000E+00  0.45593999997E+02  0.45594000000E+02  0.51100000000E-03 0.  1.
         11   -1    0    0    0    0 -0.00000000000E+00 -0.00000000000E+00 -0.45593999997E+02  0.45594000000E+02  0.51100000000E-03 0. -1.
         23    2    1    2    0    0  0.88817841970E-15  0.00000000000E+00  0.71054273576E-14  0.91188000000E+02  0.91188000000E+02 0.  0.
    9900012    2    3    3    0    0  0.44799191007E+01  0.15720212568E+02  0.32993690071E+02  0.54367104535E+02  0.40000046409E+02 0.  0.
         12    1    3    3    0    0 -0.44799191007E+01 -0.15720212568E+02 -0.32993690071E+02  0.36820895465E+02  0.00000000000E+00 0. -1.
         11    1    4    4    0    0  0.12222267031E+02 -0.68924508126E+01  0.24937458823E+02  0.28614096917E+02  0.51100000000E-03 0. -1.
        -11    1    4    4    0    0 -0.14497387656E+01  0.11457921935E+02  0.50061986366E+01  0.12587602734E+02  0.51100000000E-03 0.  1.
         12    1    4    4    0    0 -0.62926091648E+01  0.11154741446E+02  0.30500326113E+01  0.13165404884E+02  0.00000000000E+00 0. -1.
</event>
<event>
 8    1  0.2401501E-006  0.9118800E+02  0.7816164E-02  0.1184000E+00
        -11   -1    0    0    0    0  0.00000000000E+00  0.00000000000E+00  0.45593999997E+02  0.45594000000E+02  0.51100000000E-03 0.  1.
         11   -1    0    0    0    0 -0.00000000000E+00 -0.00000000000E+00 -0.45593999997E+02  0.45594000000E+02  0.51100000000E-03 0. -1.
         23    2    1    2    0    0  0.00000000000E+00  0.00000000000E+00  0.35527136788E-14  0.91188000000E+02  0.91188000000E+02 0.  0.
    9900012    2    3    3    0    0  0.11496850320E+02  0.20500433806E+02  0.28343151579E+02  0.54367087533E+02  0.40000007648E+02 0.  0.
         12    1    3    3    0    0 -0.11496850320E+02 -0.20500433806E+02 -0.28343151579E+02  0.36820912467E+02  0.00000000000E+00 0. -1.
         11    1    4    4    0    0 -0.11283059251E+02 -0.11553844078E+00  0.64305669418E+01  0.12987415703E+02  0.51100000000E-03 0. -1.
        -11    1    4    4    0    0  0.11481778088E+02  0.20496969724E+02  0.17297784129E+02  0.29174823598E+02  0.51100000000E-03 0.  1.
        -12    1    4    4    0    0  0.11298131484E+02  0.11900252259E+00  0.46148005076E+01  0.12204848231E+02  0.00000000000E+00 0.  1.
</event>
<event>
 8    1  0.2401501E-006  0.9118800E+02  0.7816164E-02  0.1184000E+00
        -11   -1    0    0    0    0  0.00000000000E+00  0.00000000000E+00  0.45593999997E+02  0.45594000000E+02  0.51100000000E-03 0. -1.
         11   -1    0    0    0    0 -0.00000000000E+00 -0.00000000000E+00 -0.45593999997E+02  0.45594000000E+02  0.51100000000E-03 0.  1.
         23    2    1    2    0    0 -0.17763568394E-14  0.17763568394E-14  0.35527136788E-14  0.91188000000E+02  0.91188000000E+02 0.  0.
    9900012    2    3    3    0    0 -0.13953411796E+02 -0.12809534532E+02 -0.31575295342E+02  0.54367066394E+02  0.39999959458E+02 0.  0.
         12    1    3    3    0    0  0.13953411796E+02  0.12809534532E+02  0.31575295342E+02  0.36820933606E+02  0.00000000000E+00 0. -1.
         11    1    4    4    0    0  0.26458580583E+01  0.77044391457E+01 -0.25881021475E+02  0.27132751800E+02  0.51100000000E-03 0. -1.
        -11    1    4    4    0    0 -0.12746658557E+02 -0.14582275433E+02 -0.55973973715E+01  0.20160627936E+02  0.51100000000E-03 0.  1.
         12    1    4    4    0    0 -0.38526112972E+01 -0.59316982449E+01 -0.96876496026E-01  0.70736866578E+01  0.00000000000E+00 0. -1.
</event>
<event>
 8    1  0.4194310E-006  0.9118800E+02  0.7816164E-02  0.1184000E+00
        -11   -1    0    0    0    0  0.00000000000E+00  0.00000000000E+00  0.45593999997E+02  0.45594000000E+02  0.51100000000E-03 0.  1.
         11   -1    0    0    0    0 -0.00000000000E+00 -0.00000000000E+00 -0.45593999997E+02  0.45594000000E+02  0.51100000000E-03 0. -1.
         23    2    1    2    0    0  0.88817841970E-15  0.00000000000E+00  0.00000000000E+00  0.91188000000E+02  0.91188000000E+02 0.  0.
    9900012    2    3    3    0    0 -0.35865495688E+01 -0.18272598655E+01  0.36600248828E+02  0.54367076184E+02  0.39999981776E+02 0.  0.
         12    1    3    3    0    0  0.35865495688E+01  0.18272598655E+01 -0.36600248828E+02  0.36820923816E+02  0.00000000000E+00 0. -1.
         11    1    4    4    0    0 -0.11027548413E+02 -0.18952104438E+01  0.54481009259E+01  0.12445097452E+02  0.51100000000E-03 0. -1.
        -11    1    4    4    0    0 -0.10182354955E+02  0.88219325628E+00  0.91298459690E+01  0.13704477555E+02  0.51100000000E-03 0.  1.
        -12    1    4    4    0    0  0.17623353799E+02 -0.81424267806E+00  0.22022301933E+02  0.28217501177E+02  0.00000000000E+00 0.  1.
</event>
<event>
 8    1  0.2401501E-006  0.9118800E+02  0.7816164E-02  0.1184000E+00
        -11   -1    0    0    0    0  0.00000000000E+00  0.00000000000E+00  0.45593999997E+02  0.45594000000E+02  0.51100000000E-03 0.  1.
         11   -1    0    0    0    0 -0.00000000000E+00 -0.00000000000E+00 -0.45593999997E+02  0.45594000000E+02  0.51100000000E-03 0. -1.
         23    2    1    2    0    0  0.66613381478E-15  0.00000000000E+00  0.00000000000E+00  0.91188000000E+02  0.91188000000E+02 0.  0.
    9900012    2    3    3    0    0 -0.13137241686E+01 -0.20292778076E+02  0.30696193495E+02  0.54367095499E+02  0.40000025808E+02 0.  0.
         12    1    3    3    0    0  0.13137241686E+01  0.20292778076E+02 -0.30696193495E+02  0.36820904501E+02  0.00000000000E+00 0. -1.
         11    1    4    4    0    0  0.15109197912E+01 -0.28830987063E+02  0.12425702055E+02  0.31430984163E+02  0.51100000000E-03 0.  1.
        -11    1    4    4    0    0 -0.42429597018E+01  0.90400848333E+01  0.86890623155E+01  0.13237282388E+02  0.51100000000E-03 0. -1.
        -12    1    4    4    0    0  0.14183157420E+01 -0.50187584656E+00  0.95814291237E+01  0.96988289479E+01  0.00000000000E+00 0.  1.
</event>
<event>
 8    1  0.2401501E-006  0.9118800E+02  0.7816164E-02  0.1184000E+00
        -11   -1    0    0    0    0  0.00000000000E+00  0.00000000000E+00  0.45593999997E+02  0.45594000000E+02  0.51100000000E-03 0. -1.
         11   -1    0    0    0    0 -0.00000000000E+00 -0.00000000000E+00 -0.45593999997E+02  0.45594000000E+02  0.51100000000E-03 0.  1.
         23    2    1    2    0    0  0.00000000000E+00  0.00000000000E+00 -0.44408920985E-15  0.91188000000E+02  0.91188000000E+02 0.  0.
    9900012    2    3    3    0    0  0.19063957904E+02  0.31435732979E+02 -0.20347887807E+01  0.54367079802E+02  0.39999990024E+02 0.  0.
         12    1    3    3    0    0 -0.19063957904E+02 -0.31435732979E+02  0.20347887807E+01  0.36820920198E+02  0.00000000000E+00 0. -1.
         11    1    4    4    0    0 -0.58124344871E+01  0.16178066139E+02 -0.17571198473E+01  0.17280095170E+02  0.51100000000E-03 0. -1.
        -11    1    4    4    0    0  0.92738717053E+01 -0.22944966304E+01 -0.78998000387E+01  0.12396622609E+02  0.51100000000E-03 0.  1.
        -12    1    4    4    0    0  0.15602520686E+02  0.17552163470E+02  0.76221311053E+01  0.24690362023E+02  0.00000000000E+00 0.  1.
</event>
<event>
 8    1  0.2401501E-006  0.9118800E+02  0.7816164E-02  0.1184000E+00
        -11   -1    0    0    0    0  0.00000000000E+00  0.00000000000E+00  0.45593999997E+02  0.45594000000E+02  0.51100000000E-03 0.  1.
         11   -1    0    0    0    0 -0.00000000000E+00 -0.00000000000E+00 -0.45593999997E+02  0.45594000000E+02  0.51100000000E-03 0. -1.
         23    2    1    2    0    0 -0.27755575616E-14 -0.71054273576E-14 -0.44408920985E-15  0.91188000000E+02  0.91188000000E+02 0.  0.
    9900012    2    3    3    0    0 -0.85385682043E+00 -0.36741552183E+02 -0.22610514236E+01  0.54367040183E+02  0.39999899706E+02 0.  0.
         12    1    3    3    0    0  0.85385682043E+00  0.36741552183E+02  0.22610514236E+01  0.36820959817E+02  0.00000000000E+00 0. -1.
         11    1    4    4    0    0  0.11368845561E+02 -0.13548483842E+02  0.54821656546E+01  0.18516646681E+02  0.51100000000E-03 0. -1.
        -11    1    4    4    0    0  0.61551001699E+01 -0.10361344551E+02 -0.57342807104E+01  0.13346336371E+02  0.51100000000E-03 0.  1.
         12    1    4    4    0    0 -0.18377802551E+02 -0.12831723790E+02 -0.20089363679E+01  0.22504057131E+02  0.00000000000E+00 0. -1.
</event>
<event>
 8    1  0.2401501E-006  0.9118800E+02  0.7816164E-02  0.1184000E+00
        -11   -1    0    0    0    0  0.00000000000E+00  0.00000000000E+00  0.45593999997E+02  0.45594000000E+02  0.51100000000E-03 0.  1.
         11   -1    0    0    0    0 -0.00000000000E+00 -0.00000000000E+00 -0.45593999997E+02  0.45594000000E+02  0.51100000000E-03 0. -1.
         23    2    1    2    0    0  0.00000000000E+00  0.00000000000E+00 -0.17763568394E-14  0.91188000000E+02  0.91188000000E+02 0.  0.
    9900012    2    3    3    0    0  0.76952884880E+01 -0.34702634386E+02 -0.96067240817E+01  0.54367089558E+02  0.40000012265E+02 0.  0.
        -12    1    3    3    0    0 -0.76952884880E+01  0.34702634386E+02  0.96067240817E+01  0.36820910442E+02  0.00000000000E+00 0.  1.
         11    1    4    4    0    0 -0.12312274923E+02 -0.89263573597E+01 -0.99879743664E+01  0.18194273871E+02  0.51100000000E-03 0. -1.
        -11    1    4    4    0    0  0.71274202955E+01 -0.44195881450E+01  0.63609789605E+01  0.10525917206E+02  0.51100000000E-03 0.  1.
        -12    1    4    4    0    0  0.12880143115E+02 -0.21356688881E+02 -0.59797286758E+01  0.25646898480E+02  0.00000000000E+00 0.  1.
</event>
<event>
 8    1  0.2401501E-006  0.9118800E+02  0.7816164E-02  0.1184000E+00
        -11   -1    0    0    0    0  0.00000000000E+00  0.00000000000E+00  0.45593999997E+02  0.45594000000E+02  0.51100000000E-03 0. -1.
         11   -1    0    0    0    0 -0.00000000000E+00 -0.00000000000E+00 -0.45593999997E+02  0.45594000000E+02  0.51100000000E-03 0.  1.
         23    2    1    2    0    0 -0.35527136788E-14 -0.35527136788E-14  0.00000000000E+00  0.91188000000E+02  0.91188000000E+02 0.  0.
    9900012    2    3    3    0    0 -0.26149882700E+02  0.22153867891E+02 -0.13459909031E+02  0.54367090466E+02  0.40000014336E+02 0.  0.
         12    1    3    3    0    0  0.26149882700E+02 -0.22153867891E+02  0.13459909031E+02  0.36820909534E+02  0.00000000000E+00 0. -1.
         11    1    4    4    0    0 -0.27179092204E+01  0.13862624600E+01 -0.49582947490E+01  0.58218073841E+01  0.51100000000E-03 0.  1.
        -11    1    4    4    0    0 -0.16776084607E+02 -0.71062864087E+01  0.12808283931E+01  0.18264086150E+02  0.51100000000E-03 0. -1.
        -12    1    4    4    0    0 -0.66558888729E+01  0.27873891840E+02 -0.97824426749E+01  0.30281196932E+02  0.00000000000E+00 0.  1.
</event>
<event>
 8    1  0.2401501E-006  0.9118800E+02  0.7816164E-02  0.1184000E+00
        -11   -1    0    0    0    0  0.00000000000E+00  0.00000000000E+00  0.45593999997E+02  0.45594000000E+02  0.51100000000E-03 0.  1.
         11   -1    0    0    0    0 -0.00000000000E+00 -0.00000000000E+00 -0.45593999997E+02  0.45594000000E+02  0.51100000000E-03 0. -1.
         23    2    1    2    0    0  0.00000000000E+00 -0.35527136788E-14  0.00000000000E+00  0.91188000000E+02  0.91188000000E+02 0.  0.
    9900012    2    3    3    0    0 -0.25754121606E+02  0.23680420827E+02 -0.11477933813E+02  0.54367081015E+02  0.39999992791E+02 0.  0.
        -12    1    3    3    0    0  0.25754121606E+02 -0.23680420827E+02  0.11477933813E+02  0.36820918985E+02  0.00000000000E+00 0.  1.
         11    1    4    4    0    0 -0.36644376492E+01  0.86920432789E+01 -0.13687421851E+02  0.16623033322E+02  0.51100000000E-03 0. -1.
        -11    1    4    4    0    0 -0.11198602370E+02  0.21093516421E+02 -0.32780294246E+01  0.24105821023E+02  0.51100000000E-03 0.  1.
        -12    1    4    4    0    0 -0.10891081587E+02 -0.61051388730E+01  0.54875174622E+01  0.13638226670E+02  0.00000000000E+00 0.  1.
</event>
<event>
 8    1  0.2401501E-006  0.9118800E+02  0.7816164E-02  0.1184000E+00
        -11   -1    0    0    0    0  0.00000000000E+00  0.00000000000E+00  0.45593999997E+02  0.45594000000E+02  0.51100000000E-03 0. -1.
         11   -1    0    0    0    0 -0.00000000000E+00 -0.00000000000E+00 -0.45593999997E+02  0.45594000000E+02  0.51100000000E-03 0.  1.
         23    2    1    2    0    0 -0.71054273576E-14  0.00000000000E+00  0.35527136788E-14  0.91188000000E+02  0.91188000000E+02 0.  0.
    9900012    2    3    3    0    0  0.28380180257E+02  0.11120539151E+02 -0.20656207831E+02  0.54367082787E+02  0.39999996829E+02 0.  0.
         12    1    3    3    0    0 -0.28380180257E+02 -0.11120539151E+02  0.20656207831E+02  0.36820917213E+02  0.00000000000E+00 0. -1.
         11    1    4    4    0    0  0.27166920822E+02 -0.18501625118E+01 -0.12259742692E+02  0.29862450994E+02  0.51100000000E-03 0. -1.
        -11    1    4    4    0    0  0.71836040334E+01  0.14855082085E+01 -0.89210435331E+01  0.11549715128E+02  0.51100000000E-03 0.  1.
        -12    1    4    4    0    0 -0.59703445975E+01  0.11485193454E+02  0.52457839414E+00  0.12954916665E+02  0.00000000000E+00 0.  1.
</event>
<event>
 8    1  0.2401501E-006  0.9118800E+02  0.7816164E-02  0.1184000E+00
        -11   -1    0    0    0    0  0.00000000000E+00  0.00000000000E+00  0.45593999997E+02  0.45594000000E+02  0.51100000000E-03 0.  1.
         11   -1    0    0    0    0 -0.00000000000E+00 -0.00000000000E+00 -0.45593999997E+02  0.45594000000E+02  0.51100000000E-03 0. -1.
         23    2    1    2    0    0  0.17763568394E-14  0.00000000000E+00  0.35527136788E-14  0.91188000000E+02  0.91188000000E+02 0.  0.
    9900012    2    3    3    0    0 -0.12508442420E+02  0.16874574912E+02 -0.30241836126E+02  0.54367067605E+02  0.39999962218E+02 0.  0.
        -12    1    3    3    0    0  0.12508442420E+02 -0.16874574912E+02  0.30241836126E+02  0.36820932395E+02  0.00000000000E+00 0.  1.
         11    1    4    4    0    0 -0.15578431612E+02  0.25143647227E+02 -0.13281829650E+02  0.32423718579E+02  0.51100000000E-03 0.  1.
        -11    1    4    4    0    0  0.35380774766E+01  0.33385170416E+00 -0.10751995694E+02  0.11324083224E+02  0.51100000000E-03 0. -1.
        -12    1    4    4    0    0 -0.46808828453E+00 -0.86029240192E+01 -0.62080107812E+01  0.10619265802E+02  0.00000000000E+00 0.  1.
</event>
<event>
 8    1  0.2401501E-006  0.9118800E+02  0.7816164E-02  0.1184000E+00
        -11   -1    0    0    0    0  0.00000000000E+00  0.00000000000E+00  0.45593999997E+02  0.45594000000E+02  0.51100000000E-03 0.  1.
         11   -1    0    0    0    0 -0.00000000000E+00 -0.00000000000E+00 -0.45593999997E+02  0.45594000000E+02  0.51100000000E-03 0. -1.
         23    2    1    2    0    0  0.00000000000E+00  0.35527136788E-14  0.00000000000E+00  0.91188000000E+02  0.91188000000E+02 0.  0.
    9900012    2    3    3    0    0  0.10321336479E+02  0.30890139311E+02  0.17176959148E+02  0.54367100786E+02  0.40000037862E+02 0.  0.
         12    1    3    3    0    0 -0.10321336479E+02 -0.30890139311E+02 -0.17176959148E+02  0.36820899214E+02  0.00000000000E+00 0. -1.
         11    1    4    4    0    0  0.55855226388E+01 -0.31977505911E+01  0.53287086119E+01  0.83557649394E+01  0.51100000000E-03 0. -1.
        -11    1    4    4    0    0 -0.23598710435E+00  0.30835422948E+01 -0.81950757548E+01  0.87591774662E+01  0.51100000000E-03 0.  1.
        -12    1    4    4    0    0  0.49718009447E+01  0.31004347607E+02  0.20043326291E+02  0.37252158380E+02  0.00000000000E+00 0.  1.
</event>
<event>
 8    1  0.2401501E-006  0.9118800E+02  0.7816164E-02  0.1184000E+00
        -11   -1    0    0    0    0  0.00000000000E+00  0.00000000000E+00  0.45593999997E+02  0.45594000000E+02  0.51100000000E-03 0. -1.
         11   -1    0    0    0    0 -0.00000000000E+00 -0.00000000000E+00 -0.45593999997E+02  0.45594000000E+02  0.51100000000E-03 0.  1.
         23    2    1    2    0    0  0.00000000000E+00  0.00000000000E+00  0.00000000000E+00  0.91188000000E+02  0.91188000000E+02 0.  0.
    9900012    2    3    3    0    0  0.23484455682E+02  0.16777070280E+02 -0.22864588258E+02  0.54367093682E+02  0.40000021667E+02 0.  0.
         12    1    3    3    0    0 -0.23484455682E+02 -0.16777070280E+02  0.22864588258E+02  0.36820906318E+02  0.00000000000E+00 0. -1.
         11    1    4    4    0    0  0.24127938424E+02  0.12549086111E+02 -0.11708085783E+02  0.29609394587E+02  0.51100000000E-03 0. -1.
        -11    1    4    4    0    0  0.79669132930E+01  0.77414995266E+01 -0.10735652377E+02  0.15448519494E+02  0.51100000000E-03 0.  1.
         12    1    4    4    0    0 -0.86103960351E+01 -0.35135153578E+01 -0.42085009824E+00  0.93091796016E+01  0.00000000000E+00 0. -1.
</event>
<event>
 8    1  0.2401501E-006  0.9118800E+02  0.7816164E-02  0.1184000E+00
        -11   -1    0    0    0    0  0.00000000000E+00  0.00000000000E+00  0.45593999997E+02  0.45594000000E+02  0.51100000000E-03 0. -1.
         11   -1    0    0    0    0 -0.00000000000E+00 -0.00000000000E+00 -0.45593999997E+02  0.45594000000E+02  0.51100000000E-03 0.  1.
         23    2    1    2    0    0  0.17763568394E-14  0.00000000000E+00 -0.88817841970E-15  0.91188000000E+02  0.91188000000E+02 0.  0.
    9900012    2    3    3    0    0 -0.66148359840E+01 -0.35572234340E+02  0.68292539093E+01  0.54367100772E+02  0.40000037829E+02 0.  0.
        -12    1    3    3    0    0  0.66148359840E+01  0.35572234340E+02 -0.68292539093E+01  0.36820899228E+02  0.00000000000E+00 0.  1.
         11    1    4    4    0    0 -0.16472324917E+02 -0.21017671843E+02  0.11219646611E+02  0.28964814659E+02  0.51100000000E-03 0. -1.
        -11    1    4    4    0    0 -0.15389237395E+01 -0.78554034023E+00 -0.71154119385E+01  0.73221886904E+01  0.51100000000E-03 0.  1.
        -12    1    4    4    0    0  0.11396412673E+02 -0.13769022157E+02  0.27250192365E+01  0.18080097422E+02  0.00000000000E+00 0.  1.
</event>
<event>
 8    1  0.2401501E-006  0.9118800E+02  0.7816164E-02  0.1184000E+00
        -11   -1    0    0    0    0  0.00000000000E+00  0.00000000000E+00  0.45593999997E+02  0.45594000000E+02  0.51100000000E-03 0.  1.
         11   -1    0    0    0    0 -0.00000000000E+00 -0.00000000000E+00 -0.45593999997E+02  0.45594000000E+02  0.51100000000E-03 0. -1.
         23    2    1    2    0    0 -0.88817841970E-15  0.00000000000E+00  0.00000000000E+00  0.91188000000E+02  0.91188000000E+02 0.  0.
    9900012    2    3    3    0    0 -0.42012551821E+01  0.31884002917E+02 -0.17931523211E+02  0.54367085946E+02  0.40000004031E+02 0.  0.
        -12    1    3    3    0    0  0.42012551821E+01 -0.31884002917E+02  0.17931523211E+02  0.36820914054E+02  0.00000000000E+00 0.  1.
         11    1    4    4    0    0  0.58374048156E+01  0.34731468563E+01 -0.21657046495E+02  0.22697262108E+02  0.51100000000E-03 0. -1.
        -11    1    4    4    0    0 -0.12075735860E+01  0.16809277676E+02  0.14773063211E+01  0.16917224483E+02  0.51100000000E-03 0.  1.
         12    1    4    4    0    0 -0.88310864118E+01  0.11601578384E+02  0.22482169631E+01  0.14752599355E+02  0.00000000000E+00 0. -1.
</event>
<event>
 8    1  0.2401501E-006  0.9118800E+02  0.7816164E-02  0.1184000E+00
        -11   -1    0    0    0    0  0.00000000000E+00  0.00000000000E+00  0.45593999997E+02  0.45594000000E+02  0.51100000000E-03 0.  1.
         11   -1    0    0    0    0 -0.00000000000E+00 -0.00000000000E+00 -0.45593999997E+02  0.45594000000E+02  0.51100000000E-03 0. -1.
         23    2    1    2    0    0 -0.35527136788E-14 -0.35527136788E-14  0.00000000000E+00  0.91188000000E+02  0.91188000000E+02 0.  0.
    9900012    2    3    3    0    0 -0.26902396821E+02 -0.23192318946E+02 -0.97035015644E+01  0.54367074490E+02  0.39999977915E+02 0.  0.
        -12    1    3    3    0    0  0.26902396821E+02  0.23192318946E+02  0.97035015644E+01  0.36820925510E+02  0.00000000000E+00 0.  1.
         11    1    4    4    0    0 -0.90736192759E+01  0.57683376921E+01 -0.71874999105E+01  0.12933075493E+02  0.51100000000E-03 0. -1.
        -11    1    4    4    0    0 -0.18727423604E+02 -0.17690813377E+02 -0.10260590578E+02  0.27730145908E+02  0.51100000000E-03 0.  1.
        -12    1    4    4    0    0  0.89864605926E+00 -0.11269843261E+02  0.77445889246E+01  0.13703853089E+02  0.00000000000E+00 0.  1.
</event>
<event>
 8    1  0.2401501E-006  0.9118800E+02  0.7816164E-02  0.1184000E+00
        -11   -1    0    0    0    0  0.00000000000E+00  0.00000000000E+00  0.45593999997E+02  0.45594000000E+02  0.51100000000E-03 0. -1.
         11   -1    0    0    0    0 -0.00000000000E+00 -0.00000000000E+00 -0.45593999997E+02  0.45594000000E+02  0.51100000000E-03 0.  1.
         23    2    1    2    0    0  0.35527136788E-14  0.00000000000E+00  0.00000000000E+00  0.91188000000E+02  0.91188000000E+02 0.  0.
    9900012    2    3    3    0    0  0.18709655572E+02 -0.25112005158E+02  0.19367915487E+02  0.54367079792E+02  0.39999990002E+02 0.  0.
        -12    1    3    3    0    0 -0.18709655572E+02  0.25112005158E+02 -0.19367915487E+02  0.36820920208E+02  0.00000000000E+00 0.  1.
         11    1    4    4    0    0 -0.10730350408E+01 -0.16987042372E+02  0.23431383149E+02  0.28961020860E+02  0.51100000000E-03 0. -1.
        -11    1    4    4    0    0  0.12145901431E+02 -0.52305034996E+01  0.41134304116E+01  0.13849238190E+02  0.51100000000E-03 0.  1.
         12    1    4    4    0    0  0.76367891818E+01 -0.28944592857E+01 -0.81768980735E+01  0.11556820742E+02  0.00000000000E+00 0. -1.
</event>
<event>
 8    1  0.2401501E-006  0.9118800E+02  0.7816164E-02  0.1184000E+00
        -11   -1    0    0    0    0  0.00000000000E+00  0.00000000000E+00  0.45593999997E+02  0.45594000000E+02  0.51100000000E-03 0.  1.
         11   -1    0    0    0    0 -0.00000000000E+00 -0.00000000000E+00 -0.45593999997E+02  0.45594000000E+02  0.51100000000E-03 0. -1.
         23    2    1    2    0    0  0.00000000000E+00  0.00000000000E+00  0.44408920985E-15  0.91188000000E+02  0.91188000000E+02 0.  0.
    9900012    2    3    3    0    0  0.16756391310E+02  0.32753549513E+02 -0.14862644484E+01  0.54367073376E+02  0.39999975376E+02 0.  0.
        -12    1    3    3    0    0 -0.16756391310E+02 -0.32753549513E+02  0.14862644484E+01  0.36820926624E+02  0.00000000000E+00 0.  1.
         11    1    4    4    0    0  0.11703259678E+02  0.17149735855E+02 -0.13234529147E+02  0.24621788907E+02  0.51100000000E-03 0. -1.
        -11    1    4    4    0    0 -0.63083087159E+01 -0.13091388079E+01  0.53941922321E+01  0.84027324943E+01  0.51100000000E-03 0.  1.
         12    1    4    4    0    0  0.11361440348E+02  0.16912952466E+02  0.63540724663E+01  0.21342551975E+02  0.00000000000E+00 0. -1.
</event>
<event>
 8    1  0.2401501E-006  0.9118800E+02  0.7816164E-02  0.1184000E+00
        -11   -1    0    0    0    0  0.00000000000E+00  0.00000000000E+00  0.45593999997E+02  0.45594000000E+02  0.51100000000E-03 0.  1.
         11   -1    0    0    0    0 -0.00000000000E+00 -0.00000000000E+00 -0.45593999997E+02  0.45594000000E+02  0.51100000000E-03 0. -1.
         23    2    1    2    0    0  0.00000000000E+00  0.00000000000E+00  0.00000000000E+00  0.91188000000E+02  0.91188000000E+02 0.  0.
    9900012    2    3    3    0    0  0.44151653473E+01 -0.29386673430E+02 -0.21741878448E+02  0.54367088296E+02  0.40000009388E+02 0.  0.
         12    1    3    3    0    0 -0.44151653473E+01  0.29386673430E+02  0.21741878448E+02  0.36820911704E+02  0.00000000000E+00 0. -1.
         11    1    4    4    0    0  0.49884284807E+01  0.24575106375E+01 -0.21432457236E+02  0.22142131801E+02  0.51100000000E-03 0. -1.
        -11    1    4    4    0    0  0.19543881553E+01 -0.19198841557E+02  0.49489735016E+00  0.19304405555E+02  0.51100000000E-03 0.  1.
         12    1    4    4    0    0 -0.25276512888E+01 -0.12645342510E+02 -0.80431856148E+00  0.12920550940E+02  0.00000000000E+00 0. -1.
</event>
<event>
 8    1  0.2401501E-006  0.9118800E+02  0.7816164E-02  0.1184000E+00
        -11   -1    0    0    0    0  0.00000000000E+00  0.00000000000E+00  0.45593999997E+02  0.45594000000E+02  0.51100000000E-03 0.  1.
         11   -1    0    0    0    0 -0.00000000000E+00 -0.00000000000E+00 -0.45593999997E+02  0.45594000000E+02  0.51100000000E-03 0. -1.
         23    2    1    2    0    0  0.35527136788E-14  0.22204460493E-15  0.35527136788E-14  0.91188000000E+02  0.91188000000E+02 0.  0.
    9900012    2    3    3    0    0 -0.29104909793E+02  0.18707497397E+01  0.22476325848E+02  0.54367072496E+02  0.39999973369E+02 0.  0.
        -12    1    3    3    0    0  0.29104909793E+02 -0.18707497397E+01 -0.22476325848E+02  0.36820927504E+02  0.00000000000E+00 0.  1.
         11    1    4    4    0    0 -0.17891302200E+02  0.14219866253E+02  0.65308099208E+01  0.23768777191E+02  0.51100000000E-03 0. -1.
        -11    1    4    4    0    0 -0.24933081245E+01  0.55132644920E+01  0.22318748309E+01  0.64493361119E+01  0.51100000000E-03 0.  1.
        -12    1    4    4    0    0 -0.87202994686E+01 -0.17862381005E+02  0.13713641096E+02  0.24148959193E+02  0.00000000000E+00 0.  1.
</event>
<event>
 8    1  0.2401501E-006  0.9118800E+02  0.7816164E-02  0.1184000E+00
        -11   -1    0    0    0    0  0.00000000000E+00  0.00000000000E+00  0.45593999997E+02  0.45594000000E+02  0.51100000000E-03 0. -1.
         11   -1    0    0    0    0 -0.00000000000E+00 -0.00000000000E+00 -0.45593999997E+02  0.45594000000E+02  0.51100000000E-03 0.  1.
         23    2    1    2    0    0 -0.35527136788E-14  0.00000000000E+00 -0.35527136788E-14  0.91188000000E+02  0.91188000000E+02 0.  0.
    9900012    2    3    3    0    0 -0.26479987140E+02  0.84091692035E+01 -0.24163434920E+02  0.54367144052E+02  0.40000136496E+02 0.  0.
         12    1    3    3    0    0  0.26479987140E+02 -0.84091692035E+01  0.24163434920E+02  0.36820855948E+02  0.00000000000E+00 0. -1.
         11    1    4    4    0    0 -0.76877689275E+01 -0.85700216016E+01 -0.15874025409E+02  0.19609480979E+02  0.51100000000E-03 0. -1.
        -11    1    4    4    0    0 -0.56451759901E+01 -0.45755735339E+01  0.19323138199E+01  0.75191570061E+01  0.51100000000E-03 0.  1.
         12    1    4    4    0    0 -0.13147042222E+02  0.21554764339E+02 -0.10221723331E+02  0.27238506067E+02  0.00000000000E+00 0. -1.
</event>
<event>
 8    1  0.2401501E-006  0.9118800E+02  0.7816164E-02  0.1184000E+00
        -11   -1    0    0    0    0  0.00000000000E+00  0.00000000000E+00  0.45593999997E+02  0.45594000000E+02  0.51100000000E-03 0.  1.
         11   -1    0    0    0    0 -0.00000000000E+00 -0.00000000000E+00 -0.45593999997E+02  0.45594000000E+02  0.51100000000E-03 0. -1.
         23    2    1    2    0    0  0.88817841970E-15  0.00000000000E+00  0.00000000000E+00  0.91188000000E+02  0.91188000000E+02 0.  0.
    9900012    2    3    3    0    0 -0.50472070667E+01  0.32021534909E+02 -0.17462663489E+02  0.54366842859E+02  0.39999449861E+02 0.  0.
         12    1    3    3    0    0  0.50472070667E+01 -0.32021534909E+02  0.17462663489E+02  0.36821157141E+02  0.00000000000E+00 0. -1.
         11    1    4    4    0    0 -0.77300158601E+01  0.11331869690E+02 -0.18334986134E+02  0.22898387120E+02  0.51100000000E-03 0. -1.
        -11    1    4    4    0    0  0.20739768470E+01  0.20451103558E+02 -0.83760394427E+01  0.22197005512E+02  0.51100000000E-03 0.  1.
        -12    1    4    4    0    0  0.60883194637E+00  0.23856166038E+00  0.92483620875E+01  0.92714502267E+01  0.00000000000E+00 0.  1.
</event>
<event>
 8    1  0.2401501E-006  0.9118800E+02  0.7816164E-02  0.1184000E+00
        -11   -1    0    0    0    0  0.00000000000E+00  0.00000000000E+00  0.45593999997E+02  0.45594000000E+02  0.51100000000E-03 0.  1.
         11   -1    0    0    0    0 -0.00000000000E+00 -0.00000000000E+00 -0.45593999997E+02  0.45594000000E+02  0.51100000000E-03 0. -1.
         23    2    1    2    0    0 -0.71054273576E-14  0.00000000000E+00  0.53290705182E-14  0.91188000000E+02  0.91188000000E+02 0.  0.
    9900012    2    3    3    0    0  0.34488300342E+02 -0.89784360553E+01 -0.92587943628E+01  0.54367075955E+02  0.39999981255E+02 0.  0.
        -12    1    3    3    0    0 -0.34488300342E+02  0.89784360553E+01  0.92587943628E+01  0.36820924045E+02  0.00000000000E+00 0.  1.
         11    1    4    4    0    0  0.90270837134E+01  0.16803138297E+01  0.53994560579E+00  0.91980017642E+01  0.51100000000E-03 0. -1.
        -11    1    4    4    0    0  0.69982250187E+01 -0.91382181069E+01  0.11955483044E+02  0.16595654813E+02  0.51100000000E-03 0.  1.
        -12    1    4    4    0    0  0.18462991610E+02 -0.15205317781E+01 -0.21754223013E+02  0.28573419378E+02  0.00000000000E+00 0.  1.
</event>
<event>
 8    1  0.2401501E-006  0.9118800E+02  0.7816164E-02  0.1184000E+00
        -11   -1    0    0    0    0  0.00000000000E+00  0.00000000000E+00  0.45593999997E+02  0.45594000000E+02  0.51100000000E-03 0. -1.
         11   -1    0    0    0    0 -0.00000000000E+00 -0.00000000000E+00 -0.45593999997E+02  0.45594000000E+02  0.51100000000E-03 0.  1.
         23    2    1    2    0    0  0.00000000000E+00  0.00000000000E+00  0.35527136788E-14  0.91188000000E+02  0.91188000000E+02 0.  0.
    9900012    2    3    3    0    0 -0.28883197814E+02 -0.98035438972E+01 -0.20626071029E+02  0.54367035931E+02  0.39999890011E+02 0.  0.
         12    1    3    3    0    0  0.28883197814E+02  0.98035438972E+01  0.20626071029E+02  0.36820964069E+02  0.00000000000E+00 0. -1.
         11    1    4    4    0    0  0.16908166682E+01  0.81454617132E+00 -0.14451684275E+00  0.18823474307E+01  0.51100000000E-03 0. -1.
        -11    1    4    4    0    0 -0.36439092908E+02 -0.28487643455E+00 -0.15268101222E+02  0.39509537605E+02  0.51100000000E-03 0.  1.
        -12    1    4    4    0    0  0.58650784262E+01 -0.10333213634E+02 -0.52134529644E+01  0.12975150896E+02  0.00000000000E+00 0.  1.
</event>
<event>
 8    1  0.2401501E-006  0.9118800E+02  0.7816164E-02  0.1184000E+00
        -11   -1    0    0    0    0  0.00000000000E+00  0.00000000000E+00  0.45593999997E+02  0.45594000000E+02  0.51100000000E-03 0.  1.
         11   -1    0    0    0    0 -0.00000000000E+00 -0.00000000000E+00 -0.45593999997E+02  0.45594000000E+02  0.51100000000E-03 0. -1.
         23    2    1    2    0    0  0.00000000000E+00  0.00000000000E+00 -0.17763568394E-14  0.91188000000E+02  0.91188000000E+02 0.  0.
    9900012    2    3    3    0    0 -0.44538921183E+01 -0.34574720535E+02 -0.11854583583E+02  0.54367087369E+02  0.40000007275E+02 0.  0.
        -12    1    3    3    0    0  0.44538921183E+01  0.34574720535E+02  0.11854583583E+02  0.36820912631E+02  0.00000000000E+00 0.  1.
         11    1    4    4    0    0 -0.12797995150E+02 -0.14330405065E+02 -0.66779454537E+01  0.20340701683E+02  0.51100000000E-03 0. -1.
        -11    1    4    4    0    0 -0.11342480465E+01  0.17947602966E+01 -0.94259796943E+01  0.96621310595E+01  0.51100000000E-03 0.  1.
        -12    1    4    4    0    0  0.94783510784E+01 -0.22039075766E+02  0.42493415652E+01  0.24364254627E+02  0.00000000000E+00 0.  1.
</event>
<event>
 8    1  0.2401501E-006  0.9118800E+02  0.7816164E-02  0.1184000E+00
        -11   -1    0    0    0    0  0.00000000000E+00  0.00000000000E+00  0.45593999997E+02  0.45594000000E+02  0.51100000000E-03 0.  1.
         11   -1    0    0    0    0 -0.00000000000E+00 -0.00000000000E+00 -0.45593999997E+02  0.45594000000E+02  0.51100000000E-03 0. -1.
         23    2    1    2    0    0 -0.35527136788E-14  0.35527136788E-14 -0.17763568394E-14  0.91188000000E+02  0.91188000000E+02 0.  0.
    9900012    2    3    3    0    0  0.24510861241E+02 -0.24364516698E+02  0.12703126098E+02  0.54367062948E+02  0.39999951604E+02 0.  0.
        -12    1    3    3    0    0 -0.24510861241E+02  0.24364516698E+02 -0.12703126098E+02  0.36820937052E+02  0.00000000000E+00 0.  1.
         11    1    4    4    0    0  0.18399755411E+02 -0.16210408746E+02 -0.74753572782E+00  0.24533388694E+02  0.51100000000E-03 0. -1.
        -11    1    4    4    0    0  0.97604299355E+01 -0.54511893494E+01 -0.39448951558E+01  0.11855110961E+02  0.51100000000E-03 0.  1.
        -12    1    4    4    0    0 -0.36493241058E+01 -0.27029186034E+01  0.17395556981E+02  0.17978563293E+02  0.00000000000E+00 0.  1.
</event>
<event>
 8    1  0.2401501E-006  0.9118800E+02  0.7816164E-02  0.1184000E+00
        -11   -1    0    0    0    0  0.00000000000E+00  0.00000000000E+00  0.45593999997E+02  0.45594000000E+02  0.51100000000E-03 0. -1.
         11   -1    0    0    0    0 -0.00000000000E+00 -0.00000000000E+00 -0.45593999997E+02  0.45594000000E+02  0.51100000000E-03 0.  1.
         23    2    1    2    0    0  0.00000000000E+00  0.00000000000E+00  0.17763568394E-14  0.91188000000E+02  0.91188000000E+02 0.  0.
    9900012    2    3    3    0    0 -0.31836795805E+02  0.12975518947E+02  0.13184601579E+02  0.54367090480E+02  0.40000014367E+02 0.  0.
        -12    1    3    3    0    0  0.31836795805E+02 -0.12975518947E+02 -0.13184601579E+02  0.36820909520E+02  0.00000000000E+00 0.  1.
         11    1    4    4    0    0 -0.56766048533E+01  0.56475853689E+01  0.10315691002E+02  0.13058810982E+02  0.51100000000E-03 0. -1.
        -11    1    4    4    0    0 -0.15009542175E+02 -0.11681266752E+02  0.30904451635E+01  0.19268866101E+02  0.51100000000E-03 0.  1.
         12    1    4    4    0    0 -0.11150648777E+02  0.19009200330E+02 -0.22153458568E+00  0.22039413397E+02  0.00000000000E+00 0. -1.
</event>
<event>
 8    1  0.2401501E-006  0.9118800E+02  0.7816164E-02  0.1184000E+00
        -11   -1    0    0    0    0  0.00000000000E+00  0.00000000000E+00  0.45593999997E+02  0.45594000000E+02  0.51100000000E-03 0.  1.
         11   -1    0    0    0    0 -0.00000000000E+00 -0.00000000000E+00 -0.45593999997E+02  0.45594000000E+02  0.51100000000E-03 0. -1.
         23    2    1    2    0    0  0.00000000000E+00  0.00000000000E+00  0.71054273576E-14  0.91188000000E+02  0.91188000000E+02 0.  0.
    9900012    2    3    3    0    0  0.18777526552E+02 -0.96514908672E+01 -0.30166739799E+02  0.54367096026E+02  0.40000027010E+02 0.  0.
        -12    1    3    3    0    0 -0.18777526552E+02  0.96514908672E+01  0.30166739799E+02  0.36820903974E+02  0.00000000000E+00 0.  1.
         11    1    4    4    0    0  0.17841480634E+02 -0.11343686557E+02 -0.38616188847E+02  0.44025080321E+02  0.51100000000E-03 0. -1.
        -11    1    4    4    0    0  0.13826073798E+01  0.34639260592E+01  0.37016349565E+01  0.52547586551E+01  0.51100000000E-03 0.  1.
         12    1    4    4    0    0 -0.44656146169E+00 -0.17717303696E+01  0.47478140916E+01  0.50872570497E+01  0.00000000000E+00 0. -1.
</event>
<event>
 8    1  0.2401501E-006  0.9118800E+02  0.7816164E-02  0.1184000E+00
        -11   -1    0    0    0    0  0.00000000000E+00  0.00000000000E+00  0.45593999997E+02  0.45594000000E+02  0.51100000000E-03 0. -1.
         11   -1    0    0    0    0 -0.00000000000E+00 -0.00000000000E+00 -0.45593999997E+02  0.45594000000E+02  0.51100000000E-03 0.  1.
         23    2    1    2    0    0  0.17763568394E-14 -0.17763568394E-14  0.00000000000E+00  0.91188000000E+02  0.91188000000E+02 0.  0.
    9900012    2    3    3    0    0  0.14030260272E+02  0.60373223704E+01  0.33503485595E+02  0.54367068293E+02  0.39999963789E+02 0.  0.
        -12    1    3    3    0    0 -0.14030260272E+02 -0.60373223704E+01 -0.33503485595E+02  0.36820931707E+02  0.00000000000E+00 0.  1.
         11    1    4    4    0    0  0.15861989464E+02 -0.72116306740E+01  0.28841650404E+01  0.17661504324E+02  0.51100000000E-03 0. -1.
        -11    1    4    4    0    0  0.36009368961E+01  0.14150060171E+02  0.20255247898E+02  0.24969301493E+02  0.51100000000E-03 0.  1.
        -12    1    4    4    0    0 -0.54326660885E+01 -0.90110712671E+00  0.10364072657E+02  0.11736262476E+02  0.00000000000E+00 0.  1.
</event>
<event>
 8    1  0.2401501E-006  0.9118800E+02  0.7816164E-02  0.1184000E+00
        -11   -1    0    0    0    0  0.00000000000E+00  0.00000000000E+00  0.45593999997E+02  0.45594000000E+02  0.51100000000E-03 0. -1.
         11   -1    0    0    0    0 -0.00000000000E+00 -0.00000000000E+00 -0.45593999997E+02  0.45594000000E+02  0.51100000000E-03 0.  1.
         23    2    1    2    0    0  0.00000000000E+00 -0.44408920985E-15  0.00000000000E+00  0.91188000000E+02  0.91188000000E+02 0.  0.
    9900012    2    3    3    0    0  0.32688462612E+02  0.38243783503E+01 -0.16511127742E+02  0.54367098368E+02  0.40000032350E+02 0.  0.
         12    1    3    3    0    0 -0.32688462612E+02 -0.38243783503E+01  0.16511127742E+02  0.36820901632E+02  0.00000000000E+00 0. -1.
         11    1    4    4    0    0  0.15487385465E+02  0.38442183264E+01 -0.15622933891E+02  0.22331887217E+02  0.51100000000E-03 0. -1.
        -11    1    4    4    0    0  0.12786459538E+02  0.12038322700E+02 -0.54818069567E+01  0.18397417447E+02  0.51100000000E-03 0.  1.
         12    1    4    4    0    0  0.44146176093E+01 -0.12058162676E+02  0.45936131059E+01  0.13637793704E+02  0.00000000000E+00 0. -1.
</event>
<event>
 8    1  0.2401501E-006  0.9118800E+02  0.7816164E-02  0.1184000E+00
        -11   -1    0    0    0    0  0.00000000000E+00  0.00000000000E+00  0.45593999997E+02  0.45594000000E+02  0.51100000000E-03 0.  1.
         11   -1    0    0    0    0 -0.00000000000E+00 -0.00000000000E+00 -0.45593999997E+02  0.45594000000E+02  0.51100000000E-03 0. -1.
         23    2    1    2    0    0  0.00000000000E+00  0.00000000000E+00  0.00000000000E+00  0.91188000000E+02  0.91188000000E+02 0.  0.
    9900012    2    3    3    0    0 -0.67410495300E+01 -0.32436291211E+02 -0.16069417178E+02  0.54367069746E+02  0.39999967100E+02 0.  0.
        -12    1    3    3    0    0  0.67410495300E+01  0.32436291211E+02  0.16069417178E+02  0.36820930254E+02  0.00000000000E+00 0.  1.
         11    1    4    4    0    0 -0.69482184840E+01  0.50356161689E+01  0.27708025719E+01  0.90173453663E+01  0.51100000000E-03 0. -1.
        -11    1    4    4    0    0 -0.20913189853E+01 -0.27219269238E+01  0.27291824102E+01  0.43853093581E+01  0.51100000000E-03 0.  1.
         12    1    4    4    0    0  0.22984879393E+01 -0.34749980456E+02 -0.21569402160E+02  0.40964415022E+02  0.00000000000E+00 0. -1.
</event>
<event>
 8    1  0.2401501E-006  0.9118800E+02  0.7816164E-02  0.1184000E+00
        -11   -1    0    0    0    0  0.00000000000E+00  0.00000000000E+00  0.45593999997E+02  0.45594000000E+02  0.51100000000E-03 0. -1.
         11   -1    0    0    0    0 -0.00000000000E+00 -0.00000000000E+00 -0.45593999997E+02  0.45594000000E+02  0.51100000000E-03 0.  1.
         23    2    1    2    0    0  0.17763568394E-14  0.17763568394E-14  0.00000000000E+00  0.91188000000E+02  0.91188000000E+02 0.  0.
    9900012    2    3    3    0    0  0.13961890638E+02 -0.15136031878E+01  0.34037525725E+02  0.54367101826E+02  0.40000040234E+02 0.  0.
        -12    1    3    3    0    0 -0.13961890638E+02  0.15136031878E+01 -0.34037525725E+02  0.36820898174E+02  0.00000000000E+00 0.  1.
         11    1    4    4    0    0  0.11168286132E+02  0.18399442049E+02  0.18152023053E+02  0.28156101009E+02  0.51100000000E-03 0. -1.
        -11    1    4    4    0    0  0.30512479259E+01 -0.89413815897E+01  0.10002550350E+02  0.13758976430E+02  0.51100000000E-03 0.  1.
         12    1    4    4    0    0 -0.25764341948E+00 -0.10971663647E+02  0.58829523225E+01  0.12452024388E+02  0.00000000000E+00 0. -1.
</event>
<event>
 8    1  0.2401501E-006  0.9118800E+02  0.7816164E-02  0.1184000E+00
        -11   -1    0    0    0    0  0.00000000000E+00  0.00000000000E+00  0.45593999997E+02  0.45594000000E+02  0.51100000000E-03 0.  1.
         11   -1    0    0    0    0 -0.00000000000E+00 -0.00000000000E+00 -0.45593999997E+02  0.45594000000E+02  0.51100000000E-03 0. -1.
         23    2    1    2    0    0 -0.71054273576E-14 -0.22204460493E-15  0.17763568394E-14  0.91188000000E+02  0.91188000000E+02 0.  0.
    9900012    2    3    3    0    0  0.36479546453E+02 -0.18826378184E+01 -0.46341102339E+01  0.54367128036E+02  0.40000099983E+02 0.  0.
        -12    1    3    3    0    0 -0.36479546453E+02  0.18826378184E+01  0.46341102339E+01  0.36820871964E+02  0.00000000000E+00 0.  1.
         11    1    4    4    0    0  0.21562945307E+02 -0.74147948504E+01  0.26975662103E+01  0.22961198939E+02  0.51100000000E-03 0. -1.
        -11    1    4    4    0    0  0.71966737414E+01  0.21529813271E+01  0.97798895341E+01  0.12331815807E+02  0.51100000000E-03 0.  1.
         12    1    4    4    0    0  0.77199274043E+01  0.33791757049E+01 -0.17111565978E+02  0.19074113290E+02  0.00000000000E+00 0. -1.
</event>
<event>
 8    1  0.2401501E-006  0.9118800E+02  0.7816164E-02  0.1184000E+00
        -11   -1    0    0    0    0  0.00000000000E+00  0.00000000000E+00  0.45593999997E+02  0.45594000000E+02  0.51100000000E-03 0. -1.
         11   -1    0    0    0    0 -0.00000000000E+00 -0.00000000000E+00 -0.45593999997E+02  0.45594000000E+02  0.51100000000E-03 0.  1.
         23    2    1    2    0    0  0.56898930012E-15 -0.71054273576E-14  0.17763568394E-14  0.91188000000E+02  0.91188000000E+02 0.  0.
    9900012    2    3    3    0    0  0.61036901917E-01 -0.35976167147E+02 -0.78416999098E+01  0.54367074081E+02  0.39999976982E+02 0.  0.
         12    1    3    3    0    0 -0.61036901917E-01  0.35976167147E+02  0.78416999098E+01  0.36820925919E+02  0.00000000000E+00 0. -1.
         11    1    4    4    0    0 -0.41675824755E+01  0.36972109118E+00 -0.35960177489E+00  0.41993750813E+01  0.51100000000E-03 0. -1.
        -11    1    4    4    0    0 -0.11068572928E+01 -0.62906712715E+01  0.12253502047E+02  0.13818320838E+02  0.51100000000E-03 0.  1.
        -12    1    4    4    0    0  0.53354766702E+01 -0.30055216967E+02 -0.19735600182E+02  0.36349378162E+02  0.00000000000E+00 0.  1.
</event>
<event>
 8    1  0.2401501E-006  0.9118800E+02  0.7816164E-02  0.1184000E+00
        -11   -1    0    0    0    0  0.00000000000E+00  0.00000000000E+00  0.45593999997E+02  0.45594000000E+02  0.51100000000E-03 0.  1.
         11   -1    0    0    0    0 -0.00000000000E+00 -0.00000000000E+00 -0.45593999997E+02  0.45594000000E+02  0.51100000000E-03 0. -1.
         23    2    1    2    0    0 -0.26645352591E-14  0.00000000000E+00  0.00000000000E+00  0.91188000000E+02  0.91188000000E+02 0.  0.
    9900012    2    3    3    0    0  0.79321819436E+01  0.16592910543E+01 -0.35918064255E+02  0.54367080714E+02  0.39999992104E+02 0.  0.
        -12    1    3    3    0    0 -0.79321819436E+01 -0.16592910543E+01  0.35918064255E+02  0.36820919286E+02  0.00000000000E+00 0.  1.
         11    1    4    4    0    0 -0.47294076684E+00 -0.51901605072E+01 -0.89168289934E+01  0.10328178863E+02  0.51100000000E-03 0. -1.
        -11    1    4    4    0    0  0.17300314860E+02 -0.54325180861E+01 -0.20959528996E+02  0.27714887750E+02  0.51100000000E-03 0.  1.
        -12    1    4    4    0    0 -0.88951921492E+01  0.12281969648E+02 -0.60417062665E+01  0.16324014102E+02  0.00000000000E+00 0.  1.
</event>
<event>
 8    1  0.2401501E-006  0.9118800E+02  0.7816164E-02  0.1184000E+00
        -11   -1    0    0    0    0  0.00000000000E+00  0.00000000000E+00  0.45593999997E+02  0.45594000000E+02  0.51100000000E-03 0. -1.
         11   -1    0    0    0    0 -0.00000000000E+00 -0.00000000000E+00 -0.45593999997E+02  0.45594000000E+02  0.51100000000E-03 0.  1.
         23    2    1    2    0    0  0.00000000000E+00  0.00000000000E+00  0.17763568394E-14  0.91188000000E+02  0.91188000000E+02 0.  0.
    9900012    2    3    3    0    0 -0.16428400614E+02  0.29944640000E+02 -0.13755243978E+02  0.54367074586E+02  0.39999978133E+02 0.  0.
         12    1    3    3    0    0  0.16428400614E+02 -0.29944640000E+02  0.13755243978E+02  0.36820925414E+02  0.00000000000E+00 0. -1.
         11    1    4    4    0    0  0.54466033082E+00  0.83770397130E+01  0.39695512412E+01  0.92859456463E+01  0.51100000000E-03 0. -1.
        -11    1    4    4    0    0 -0.24252114744E+02  0.72818398713E+01 -0.12333202665E+02  0.28165548987E+02  0.51100000000E-03 0.  1.
         12    1    4    4    0    0  0.72790537992E+01  0.14285760416E+02 -0.53915925540E+01  0.16915579953E+02  0.00000000000E+00 0. -1.
</event>
<event>
 8    1  0.2401501E-006  0.9118800E+02  0.7816164E-02  0.1184000E+00
        -11   -1    0    0    0    0  0.00000000000E+00  0.00000000000E+00  0.45593999997E+02  0.45594000000E+02  0.51100000000E-03 0.  1.
         11   -1    0    0    0    0 -0.00000000000E+00 -0.00000000000E+00 -0.45593999997E+02  0.45594000000E+02  0.51100000000E-03 0. -1.
         23    2    1    2    0    0 -0.17763568394E-14  0.00000000000E+00  0.71054273576E-14  0.91188000000E+02  0.91188000000E+02 0.  0.
    9900012    2    3    3    0    0  0.11532218959E+02 -0.13804333353E+02  0.32128325177E+02  0.54367068831E+02  0.39999965015E+02 0.  0.
         12    1    3    3    0    0 -0.11532218959E+02  0.13804333353E+02 -0.32128325177E+02  0.36820931169E+02  0.00000000000E+00 0. -1.
         11    1    4    4    0    0 -0.43452806133E-01  0.30671894923E+00 -0.10795390627E+01  0.11231070782E+01  0.51100000000E-03 0. -1.
        -11    1    4    4    0    0  0.22051189234E+02 -0.16295415625E+02  0.32498022443E+02  0.42519607007E+02  0.51100000000E-03 0.  1.
        -12    1    4    4    0    0 -0.10475517468E+02  0.21843633226E+01  0.70984179640E+00  0.10724354747E+02  0.00000000000E+00 0.  1.
</event>
<event>
 8    1  0.2401501E-006  0.9118800E+02  0.7816164E-02  0.1184000E+00
        -11   -1    0    0    0    0  0.00000000000E+00  0.00000000000E+00  0.45593999997E+02  0.45594000000E+02  0.51100000000E-03 0. -1.
         11   -1    0    0    0    0 -0.00000000000E+00 -0.00000000000E+00 -0.45593999997E+02  0.45594000000E+02  0.51100000000E-03 0.  1.
         23    2    1    2    0    0  0.71054273576E-14  0.17763568394E-14 -0.17763568394E-14  0.91188000000E+02  0.91188000000E+02 0.  0.
    9900012    2    3    3    0    0  0.33554190704E+02  0.12578740699E+02  0.84658836472E+01  0.54367087229E+02  0.40000006956E+02 0.  0.
        -12    1    3    3    0    0 -0.33554190704E+02 -0.12578740699E+02 -0.84658836472E+01  0.36820912771E+02  0.00000000000E+00 0.  1.
         11    1    4    4    0    0  0.49501472654E+01 -0.30843814542E+01 -0.14676448741E+01  0.60142621029E+01  0.51100000000E-03 0. -1.
        -11    1    4    4    0    0  0.10375100319E+02  0.14271232464E+02 -0.10818306965E+02  0.20696534699E+02  0.51100000000E-03 0.  1.
         12    1    4    4    0    0  0.18228943119E+02  0.13918896892E+01  0.20751835487E+02  0.27656290428E+02  0.00000000000E+00 0. -1.
</event>
<event>
 8    1  0.2401501E-006  0.9118800E+02  0.7816164E-02  0.1184000E+00
        -11   -1    0    0    0    0  0.00000000000E+00  0.00000000000E+00  0.45593999997E+02  0.45594000000E+02  0.51100000000E-03 0.  1.
         11   -1    0    0    0    0 -0.00000000000E+00 -0.00000000000E+00 -0.45593999997E+02  0.45594000000E+02  0.51100000000E-03 0. -1.
         23    2    1    2    0    0 -0.17763568394E-14 -0.71054273576E-14 -0.88817841970E-15  0.91188000000E+02  0.91188000000E+02 0.  0.
    9900012    2    3    3    0    0 -0.92457722076E+01 -0.34997999621E+02 -0.67406179228E+01  0.54367079164E+02  0.39999988571E+02 0.  0.
         12    1    3    3    0    0  0.92457722076E+01  0.34997999621E+02  0.67406179228E+01  0.36820920836E+02  0.00000000000E+00 0. -1.
         11    1    4    4    0    0 -0.12176064407E+02 -0.26756785803E+02 -0.47626557314E+01  0.29780279059E+02  0.51100000000E-03 0. -1.
        -11    1    4    4    0    0 -0.82453760759E+00  0.76774946827E+01  0.14988947182E+01  0.78657785697E+01  0.51100000000E-03 0.  1.
        -12    1    4    4    0    0  0.37548298073E+01 -0.15918708501E+02 -0.34768569097E+01  0.16721021535E+02  0.00000000000E+00 0.  1.
</event>
<event>
 8    1  0.2401501E-006  0.9118800E+02  0.7816164E-02  0.1184000E+00
        -11   -1    0    0    0    0  0.00000000000E+00  0.00000000000E+00  0.45593999997E+02  0.45594000000E+02  0.51100000000E-03 0. -1.
         11   -1    0    0    0    0 -0.00000000000E+00 -0.00000000000E+00 -0.45593999997E+02  0.45594000000E+02  0.51100000000E-03 0.  1.
         23    2    1    2    0    0  0.35527136788E-14  0.00000000000E+00  0.00000000000E+00  0.91188000000E+02  0.91188000000E+02 0.  0.
    9900012    2    3    3    0    0 -0.25502192979E+02 -0.24867000663E+02 -0.93301016696E+01  0.54367077064E+02  0.39999983783E+02 0.  0.
         12    1    3    3    0    0  0.25502192979E+02  0.24867000663E+02  0.93301016696E+01  0.36820922936E+02  0.00000000000E+00 0. -1.
         11    1    4    4    0    0  0.76417933939E+01 -0.88662494282E+01  0.43906383160E+00  0.11713247308E+02  0.51100000000E-03 0. -1.
        -11    1    4    4    0    0 -0.25533955218E+02 -0.14305739481E+02 -0.15365656009E+02  0.33056624693E+02  0.51100000000E-03 0.  1.
         12    1    4    4    0    0 -0.76100311543E+01 -0.16950117535E+01  0.55964905083E+01  0.95972050631E+01  0.00000000000E+00 0. -1.
</event>
<event>
 8    1  0.2401501E-006  0.9118800E+02  0.7816164E-02  0.1184000E+00
        -11   -1    0    0    0    0  0.00000000000E+00  0.00000000000E+00  0.45593999997E+02  0.45594000000E+02  0.51100000000E-03 0. -1.
         11   -1    0    0    0    0 -0.00000000000E+00 -0.00000000000E+00 -0.45593999997E+02  0.45594000000E+02  0.51100000000E-03 0.  1.
         23    2    1    2    0    0  0.66613381478E-15  0.00000000000E+00  0.00000000000E+00  0.91188000000E+02  0.91188000000E+02 0.  0.
    9900012    2    3    3    0    0  0.19751968475E+01  0.34797732272E+02  0.11874180666E+02  0.54367085558E+02  0.40000003146E+02 0.  0.
        -12    1    3    3    0    0 -0.19751968475E+01 -0.34797732272E+02 -0.11874180666E+02  0.36820914442E+02  0.00000000000E+00 0.  1.
         11    1    4    4    0    0 -0.19296474146E+01  0.65394148283E+01  0.94784496391E+01  0.11675979328E+02  0.51100000000E-03 0. -1.
        -11    1    4    4    0    0  0.16266470337E+02  0.23997813666E+02 -0.15524098904E+01  0.29032793437E+02  0.51100000000E-03 0.  1.
        -12    1    4    4    0    0 -0.12361626075E+02  0.42605037775E+01  0.39481409174E+01  0.13658312793E+02  0.00000000000E+00 0.  1.
</event>
<event>
 8    1  0.2401501E-006  0.9118800E+02  0.7816164E-02  0.1184000E+00
        -11   -1    0    0    0    0  0.00000000000E+00  0.00000000000E+00  0.45593999997E+02  0.45594000000E+02  0.51100000000E-03 0.  1.
         11   -1    0    0    0    0 -0.00000000000E+00 -0.00000000000E+00 -0.45593999997E+02  0.45594000000E+02  0.51100000000E-03 0. -1.
         23    2    1    2    0    0  0.00000000000E+00 -0.88817841970E-15  0.00000000000E+00  0.91188000000E+02  0.91188000000E+02 0.  0.
    9900012    2    3    3    0    0  0.25641167058E+02 -0.62525176652E+01  0.25675185166E+02  0.54367101606E+02  0.40000039731E+02 0.  0.
         12    1    3    3    0    0 -0.25641167058E+02  0.62525176652E+01 -0.25675185166E+02  0.36820898394E+02  0.00000000000E+00 0. -1.
         11    1    4    4    0    0  0.29031133082E+01 -0.71204039752E+01  0.26438098624E+01  0.81312945157E+01  0.51100000000E-03 0.  1.
        -11    1    4    4    0    0 -0.62562061944E+01 -0.59408938106E+01  0.11320008981E+02  0.14232952568E+02  0.51100000000E-03 0. -1.
         12    1    4    4    0    0  0.28994259944E+02  0.68087801207E+01  0.11711366323E+02  0.32002854523E+02  0.00000000000E+00 0. -1.
</event>
<event>
 8    1  0.2401501E-006  0.9118800E+02  0.7816164E-02  0.1184000E+00
        -11   -1    0    0    0    0  0.00000000000E+00  0.00000000000E+00  0.45593999997E+02  0.45594000000E+02  0.51100000000E-03 0.  1.
         11   -1    0    0    0    0 -0.00000000000E+00 -0.00000000000E+00 -0.45593999997E+02  0.45594000000E+02  0.51100000000E-03 0. -1.
         23    2    1    2    0    0  0.00000000000E+00  0.00000000000E+00  0.00000000000E+00  0.91188000000E+02  0.91188000000E+02 0.  0.
    9900012    2    3    3    0    0  0.47637895404E+01  0.32343341139E+01  0.36367918708E+02  0.54367080415E+02  0.39999991422E+02 0.  0.
         12    1    3    3    0    0 -0.47637895404E+01 -0.32343341139E+01 -0.36367918708E+02  0.36820919585E+02  0.00000000000E+00 0. -1.
         11    1    4    4    0    0  0.12987606333E+02 -0.12052554688E+02  0.15701936130E+02  0.23674728958E+02  0.51100000000E-03 0. -1.
        -11    1    4    4    0    0  0.30492083490E+01  0.21373558247E+01  0.91885702873E+01  0.99144231130E+01  0.51100000000E-03 0.  1.
         12    1    4    4    0    0 -0.11273025142E+02  0.13149532977E+02  0.11477412291E+02  0.20777928344E+02  0.00000000000E+00 0. -1.
</event>
<event>
 8    1  0.2401501E-006  0.9118800E+02  0.7816164E-02  0.1184000E+00
        -11   -1    0    0    0    0  0.00000000000E+00  0.00000000000E+00  0.45593999997E+02  0.45594000000E+02  0.51100000000E-03 0.  1.
         11   -1    0    0    0    0 -0.00000000000E+00 -0.00000000000E+00 -0.45593999997E+02  0.45594000000E+02  0.51100000000E-03 0. -1.
         23    2    1    2    0    0  0.00000000000E+00  0.00000000000E+00  0.00000000000E+00  0.91188000000E+02  0.91188000000E+02 0.  0.
    9900012    2    3    3    0    0 -0.31884942370E+02 -0.47762956589E+01 -0.17785315182E+02  0.54367082218E+02  0.39999995532E+02 0.  0.
        -12    1    3    3    0    0  0.31884942370E+02  0.47762956589E+01  0.17785315182E+02  0.36820917782E+02  0.00000000000E+00 0.  1.
         11    1    4    4    0    0 -0.32218171913E+02 -0.36722526996E+00  0.18085595477E+01  0.32270982999E+02  0.51100000000E-03 0.  1.
        -11    1    4    4    0    0 -0.22694151378E+01 -0.61764048197E+01 -0.16109860962E+02  0.17401891909E+02  0.51100000000E-03 0. -1.
         12    1    4    4    0    0  0.26026446807E+01  0.17673344308E+01 -0.34840137685E+01  0.46942073094E+01  0.00000000000E+00 0. -1.
</event>
<event>
 8    1  0.2401501E-006  0.9118800E+02  0.7816164E-02  0.1184000E+00
        -11   -1    0    0    0    0  0.00000000000E+00  0.00000000000E+00  0.45593999997E+02  0.45594000000E+02  0.51100000000E-03 0. -1.
         11   -1    0    0    0    0 -0.00000000000E+00 -0.00000000000E+00 -0.45593999997E+02  0.45594000000E+02  0.51100000000E-03 0.  1.
         23    2    1    2    0    0  0.00000000000E+00  0.00000000000E+00  0.00000000000E+00  0.91188000000E+02  0.91188000000E+02 0.  0.
    9900012    2    3    3    0    0 -0.91329448401E+01  0.33905644586E+02  0.11080440155E+02  0.54367087867E+02  0.40000008411E+02 0.  0.
        -12    1    3    3    0    0  0.91329448401E+01 -0.33905644586E+02 -0.11080440155E+02  0.36820912133E+02  0.00000000000E+00 0.  1.
         11    1    4    4    0    0 -0.22992656390E+01 -0.25147043409E+01  0.77527605936E+00  0.34944833138E+01  0.51100000000E-03 0. -1.
        -11    1    4    4    0    0  0.65694058646E+01 -0.27612626762E+01  0.58561120519E+01  0.92236496901E+01  0.51100000000E-03 0.  1.
         12    1    4    4    0    0 -0.13403085066E+02  0.39181611603E+02  0.44490520442E+01  0.41648954863E+02  0.00000000000E+00 0. -1.
</event>
<event>
 8    1  0.2401501E-006  0.9118800E+02  0.7816164E-02  0.1184000E+00
        -11   -1    0    0    0    0  0.00000000000E+00  0.00000000000E+00  0.45593999997E+02  0.45594000000E+02  0.51100000000E-03 0.  1.
         11   -1    0    0    0    0 -0.00000000000E+00 -0.00000000000E+00 -0.45593999997E+02  0.45594000000E+02  0.51100000000E-03 0. -1.
         23    2    1    2    0    0 -0.17763568394E-14 -0.88817841970E-15  0.00000000000E+00  0.91188000000E+02  0.91188000000E+02 0.  0.
    9900012    2    3    3    0    0  0.83678355770E+01 -0.78701574092E+01 -0.34983112214E+02  0.54367106610E+02  0.40000051139E+02 0.  0.
        -12    1    3    3    0    0 -0.83678355770E+01  0.78701574092E+01  0.34983112214E+02  0.36820893390E+02  0.00000000000E+00 0.  1.
         11    1    4    4    0    0 -0.10250080751E+02 -0.32710374681E+01 -0.14139355291E+02  0.17767532463E+02  0.51100000000E-03 0. -1.
        -11    1    4    4    0    0  0.17756822182E+02 -0.90943535692E+01 -0.23872506523E+02  0.31111228982E+02  0.51100000000E-03 0.  1.
        -12    1    4    4    0    0  0.86109414556E+00  0.44952336280E+01  0.30287496008E+01  0.54883451643E+01  0.00000000000E+00 0.  1.
</event>
<event>
 8    1  0.2401501E-006  0.9118800E+02  0.7816164E-02  0.1184000E+00
        -11   -1    0    0    0    0  0.00000000000E+00  0.00000000000E+00  0.45593999997E+02  0.45594000000E+02  0.51100000000E-03 0.  1.
         11   -1    0    0    0    0 -0.00000000000E+00 -0.00000000000E+00 -0.45593999997E+02  0.45594000000E+02  0.51100000000E-03 0. -1.
         23    2    1    2    0    0  0.00000000000E+00  0.35527136788E-14  0.00000000000E+00  0.91188000000E+02  0.91188000000E+02 0.  0.
    9900012    2    3    3    0    0 -0.24565134559E+02  0.17607513008E+02  0.21031197478E+02  0.54367060066E+02  0.39999945032E+02 0.  0.
         12    1    3    3    0    0  0.24565134559E+02 -0.17607513008E+02 -0.21031197478E+02  0.36820939934E+02  0.00000000000E+00 0. -1.
         11    1    4    4    0    0 -0.28321275432E+02  0.20194719324E+02  0.25594590266E+02  0.43185696496E+02  0.51100000000E-03 0. -1.
        -11    1    4    4    0    0 -0.19562612567E+01 -0.22929686151E+01  0.10259813832E+01  0.31839128811E+01  0.51100000000E-03 0.  1.
         12    1    4    4    0    0  0.57124021293E+01 -0.29423770101E+00 -0.55893741703E+01  0.79974506893E+01  0.00000000000E+00 0. -1.
</event>
<event>
 8    1  0.2401501E-006  0.9118800E+02  0.7816164E-02  0.1184000E+00
        -11   -1    0    0    0    0  0.00000000000E+00  0.00000000000E+00  0.45593999997E+02  0.45594000000E+02  0.51100000000E-03 0.  1.
         11   -1    0    0    0    0 -0.00000000000E+00 -0.00000000000E+00 -0.45593999997E+02  0.45594000000E+02  0.51100000000E-03 0. -1.
         23    2    1    2    0    0  0.00000000000E+00  0.00000000000E+00  0.35527136788E-14  0.91188000000E+02  0.91188000000E+02 0.  0.
    9900012    2    3    3    0    0 -0.38095435857E+01 -0.25011409400E+02 -0.26752506512E+02  0.54367084379E+02  0.40000000458E+02 0.  0.
        -12    1    3    3    0    0  0.38095435857E+01  0.25011409400E+02  0.26752506512E+02  0.36820915621E+02  0.00000000000E+00 0.  1.
         11    1    4    4    0    0 -0.88249531355E+01 -0.16679122035E+02  0.40473519395E+01  0.19299066498E+02  0.51100000000E-03 0. -1.
        -11    1    4    4    0    0 -0.24326926582E+01  0.23413675594E+01 -0.37266172785E+01  0.50286849393E+01  0.51100000000E-03 0.  1.
         12    1    4    4    0    0  0.74481022080E+01 -0.10673654924E+02 -0.27073241173E+02  0.30039332941E+02  0.00000000000E+00 0. -1.
</event>
<event>
 8    1  0.2401501E-006  0.9118800E+02  0.7816164E-02  0.1184000E+00
        -11   -1    0    0    0    0  0.00000000000E+00  0.00000000000E+00  0.45593999997E+02  0.45594000000E+02  0.51100000000E-03 0. -1.
         11   -1    0    0    0    0 -0.00000000000E+00 -0.00000000000E+00 -0.45593999997E+02  0.45594000000E+02  0.51100000000E-03 0.  1.
         23    2    1    2    0    0  0.17763568394E-14  0.14210854715E-13 -0.17763568394E-14  0.91188000000E+02  0.91188000000E+02 0.  0.
    9900012    2    3    3    0    0  0.13491857961E+02  0.33237701604E+02  0.83068973422E+01  0.54367087700E+02  0.40000008030E+02 0.  0.
        -12    1    3    3    0    0 -0.13491857961E+02 -0.33237701604E+02 -0.83068973422E+01  0.36820912300E+02  0.00000000000E+00 0.  1.
         11    1    4    4    0    0  0.89716687065E+01 -0.85681559324E+00  0.13709863364E+01  0.91161711335E+01  0.51100000000E-03 0. -1.
        -11    1    4    4    0    0  0.23179016446E+01  0.19441864773E+02 -0.10622909369E+02  0.22275658859E+02  0.51100000000E-03 0.  1.
         12    1    4    4    0    0  0.22022876095E+01  0.14652652424E+02  0.17558820375E+02  0.22975257707E+02  0.00000000000E+00 0. -1.
</event>
<event>
 8    1  0.2401501E-006  0.9118800E+02  0.7816164E-02  0.1184000E+00
        -11   -1    0    0    0    0  0.00000000000E+00  0.00000000000E+00  0.45593999997E+02  0.45594000000E+02  0.51100000000E-03 0. -1.
         11   -1    0    0    0    0 -0.00000000000E+00 -0.00000000000E+00 -0.45593999997E+02  0.45594000000E+02  0.51100000000E-03 0.  1.
         23    2    1    2    0    0  0.00000000000E+00  0.35527136788E-14  0.00000000000E+00  0.91188000000E+02  0.91188000000E+02 0.  0.
    9900012    2    3    3    0    0  0.24411411662E+02  0.26235419502E+02 -0.84596223111E+01  0.54367089292E+02  0.40000011658E+02 0.  0.
         12    1    3    3    0    0 -0.24411411662E+02 -0.26235419502E+02  0.84596223111E+01  0.36820910708E+02  0.00000000000E+00 0. -1.
         11    1    4    4    0    0  0.74185086166E+00 -0.56843285720E+01  0.54963318474E+01  0.79417629058E+01  0.51100000000E-03 0. -1.
        -11    1    4    4    0    0  0.80915397058E+01  0.77299088796E+01 -0.13651430398E+02  0.17651800426E+02  0.51100000000E-03 0.  1.
        -12    1    4    4    0    0  0.15578021094E+02  0.24189839194E+02 -0.30452376064E+00  0.28773525960E+02  0.00000000000E+00 0.  1.
</event>
<event>
 8    1  0.2401501E-006  0.9118800E+02  0.7816164E-02  0.1184000E+00
        -11   -1    0    0    0    0  0.00000000000E+00  0.00000000000E+00  0.45593999997E+02  0.45594000000E+02  0.51100000000E-03 0. -1.
         11   -1    0    0    0    0 -0.00000000000E+00 -0.00000000000E+00 -0.45593999997E+02  0.45594000000E+02  0.51100000000E-03 0.  1.
         23    2    1    2    0    0 -0.35527136788E-14  0.00000000000E+00  0.00000000000E+00  0.91188000000E+02  0.91188000000E+02 0.  0.
    9900012    2    3    3    0    0  0.21748480897E+02 -0.24448319941E+02  0.16883867179E+02  0.54367058402E+02  0.39999941239E+02 0.  0.
        -12    1    3    3    0    0 -0.21748480897E+02  0.24448319941E+02 -0.16883867179E+02  0.36820941598E+02  0.00000000000E+00 0.  1.
         11    1    4    4    0    0  0.20757425608E+02 -0.28942198022E+02  0.20868382630E+02  0.41279667368E+02  0.51100000000E-03 0. -1.
        -11    1    4    4    0    0 -0.21502202502E+01  0.65985904994E+01  0.80340774151E+00  0.69864374300E+01  0.51100000000E-03 0.  1.
         12    1    4    4    0    0  0.31412755390E+01 -0.21047124185E+01 -0.47879231925E+01  0.61009536037E+01  0.00000000000E+00 0. -1.
</event>
<event>
 8    1  0.2401501E-006  0.9118800E+02  0.7816164E-02  0.1184000E+00
        -11   -1    0    0    0    0  0.00000000000E+00  0.00000000000E+00  0.45593999997E+02  0.45594000000E+02  0.51100000000E-03 0.  1.
         11   -1    0    0    0    0 -0.00000000000E+00 -0.00000000000E+00 -0.45593999997E+02  0.45594000000E+02  0.51100000000E-03 0. -1.
         23    2    1    2    0    0 -0.71054273576E-14  0.88817841970E-15  0.62450045135E-15  0.91188000000E+02  0.91188000000E+02 0.  0.
    9900012    2    3    3    0    0 -0.36716978432E+02 -0.27624022858E+01 -0.10847283489E+00  0.54367093739E+02  0.40000021797E+02 0.  0.
         12    1    3    3    0    0  0.36716978432E+02  0.27624022858E+01  0.10847283489E+00  0.36820906261E+02  0.00000000000E+00 0. -1.
         11    1    4    4    0    0 -0.43384212300E+01  0.74833957416E+01 -0.52230620565E+01  0.10104627064E+02  0.51100000000E-03 0. -1.
        -11    1    4    4    0    0 -0.19708476794E+02  0.72829424232E+01  0.79172317519E+01  0.22453237333E+02  0.51100000000E-03 0.  1.
        -12    1    4    4    0    0 -0.12670080408E+02 -0.17528740451E+02 -0.28026425303E+01  0.21809229342E+02  0.00000000000E+00 0.  1.
</event>
<event>
 8    1  0.2401501E-006  0.9118800E+02  0.7816164E-02  0.1184000E+00
        -11   -1    0    0    0    0  0.00000000000E+00  0.00000000000E+00  0.45593999997E+02  0.45594000000E+02  0.51100000000E-03 0.  1.
         11   -1    0    0    0    0 -0.00000000000E+00 -0.00000000000E+00 -0.45593999997E+02  0.45594000000E+02  0.51100000000E-03 0. -1.
         23    2    1    2    0    0 -0.35527136788E-14  0.44755865680E-15  0.00000000000E+00  0.91188000000E+02  0.91188000000E+02 0.  0.
    9900012    2    3    3    0    0 -0.20120469399E+02 -0.16105704571E-01 -0.30837391822E+02  0.54367105353E+02  0.40000048272E+02 0.  0.
        -12    1    3    3    0    0  0.20120469399E+02  0.16105704571E-01  0.30837391822E+02  0.36820894647E+02  0.00000000000E+00 0.  1.
         11    1    4    4    0    0  0.40124787775E+01 -0.75790545619E+00 -0.13814115921E+01  0.43107661579E+01  0.51100000000E-03 0. -1.
        -11    1    4    4    0    0 -0.12623131188E+02  0.12763401320E+02 -0.21520574161E+01  0.18079801039E+02  0.51100000000E-03 0.  1.
        -12    1    4    4    0    0 -0.11509816989E+02 -0.12021601568E+02 -0.27303922814E+02  0.31976538156E+02  0.00000000000E+00 0.  1.
</event>
<event>
 8    1  0.2401501E-006  0.9118800E+02  0.7816164E-02  0.1184000E+00
        -11   -1    0    0    0    0  0.00000000000E+00  0.00000000000E+00  0.45593999997E+02  0.45594000000E+02  0.51100000000E-03 0.  1.
         11   -1    0    0    0    0 -0.00000000000E+00 -0.00000000000E+00 -0.45593999997E+02  0.45594000000E+02  0.51100000000E-03 0. -1.
         23    2    1    2    0    0  0.00000000000E+00  0.00000000000E+00  0.00000000000E+00  0.91188000000E+02  0.91188000000E+02 0.  0.
    9900012    2    3    3    0    0 -0.77847369648E+01 -0.18616973612E+02 -0.30799120175E+02  0.54367086926E+02  0.40000006265E+02 0.  0.
        -12    1    3    3    0    0  0.77847369648E+01  0.18616973612E+02  0.30799120175E+02  0.36820913074E+02  0.00000000000E+00 0.  1.
         11    1    4    4    0    0  0.19624449482E+01 -0.17346803759E+02 -0.25843470761E+02  0.31187301455E+02  0.51100000000E-03 0. -1.
        -11    1    4    4    0    0  0.50702349328E+01 -0.18585516576E+01  0.31786612458E+01  0.62662097088E+01  0.51100000000E-03 0.  1.
        -12    1    4    4    0    0 -0.14817416846E+02  0.58838180520E+00 -0.81343106597E+01  0.16913575762E+02  0.00000000000E+00 0.  1.
</event>
<event>
 8    1  0.2581167E-006  0.9118800E+02  0.7816164E-02  0.1184000E+00
        -11   -1    0    0    0    0  0.00000000000E+00  0.00000000000E+00  0.45593999997E+02  0.45594000000E+02  0.51100000000E-03 0.  1.
         11   -1    0    0    0    0 -0.00000000000E+00 -0.00000000000E+00 -0.45593999997E+02  0.45594000000E+02  0.51100000000E-03 0. -1.
         23    2    1    2    0    0 -0.44408920985E-15  0.35527136788E-14  0.00000000000E+00  0.91188000000E+02  0.91188000000E+02 0.  0.
    9900012    2    3    3    0    0  0.16441762808E+01  0.17479737379E+02  0.32365600493E+02  0.54367127798E+02  0.40000099441E+02 0.  0.
         12    1    3    3    0    0 -0.16441762808E+01 -0.17479737379E+02 -0.32365600493E+02  0.36820872202E+02  0.00000000000E+00 0. -1.
         11    1    4    4    0    0  0.67865455584E+01 -0.28492975492E+01  0.14631021811E+00  0.73618682466E+01  0.51100000000E-03 0. -1.
        -11    1    4    4    0    0  0.99225382880E+00  0.11618542035E+02 -0.13940860105E+01  0.11743873414E+02  0.51100000000E-03 0.  1.
        -12    1    4    4    0    0 -0.61346231064E+01  0.87104928925E+01  0.33613376285E+02  0.35261386138E+02  0.00000000000E+00 0.  1.
</event>
<event>
 8    1  0.2401501E-006  0.9118800E+02  0.7816164E-02  0.1184000E+00
        -11   -1    0    0    0    0  0.00000000000E+00  0.00000000000E+00  0.45593999997E+02  0.45594000000E+02  0.51100000000E-03 0. -1.
         11   -1    0    0    0    0 -0.00000000000E+00 -0.00000000000E+00 -0.45593999997E+02  0.45594000000E+02  0.51100000000E-03 0.  1.
         23    2    1    2    0    0  0.17763568394E-14 -0.17763568394E-14  0.00000000000E+00  0.91188000000E+02  0.91188000000E+02 0.  0.
    9900012    2    3    3    0    0 -0.15458035881E+02  0.12298206778E+02 -0.31073820873E+02  0.54367094160E+02  0.40000022755E+02 0.  0.
         12    1    3    3    0    0  0.15458035881E+02 -0.12298206778E+02  0.31073820873E+02  0.36820905840E+02  0.00000000000E+00 0. -1.
         11    1    4    4    0    0  0.31795022509E+00 -0.31808944031E+01  0.26577178381E+01  0.41572401804E+01  0.51100000000E-03 0. -1.
        -11    1    4    4    0    0 -0.18476350364E+02  0.19601872811E+02 -0.14981561201E+02  0.30822980336E+02  0.51100000000E-03 0.  1.
        -12    1    4    4    0    0  0.27003642576E+01 -0.41227716305E+01 -0.18749977510E+02  0.19386873644E+02  0.00000000000E+00 0.  1.
</event>
<event>
 8    1  0.2401501E-006  0.9118800E+02  0.7816164E-02  0.1184000E+00
        -11   -1    0    0    0    0  0.00000000000E+00  0.00000000000E+00  0.45593999997E+02  0.45594000000E+02  0.51100000000E-03 0.  1.
         11   -1    0    0    0    0 -0.00000000000E+00 -0.00000000000E+00 -0.45593999997E+02  0.45594000000E+02  0.51100000000E-03 0. -1.
         23    2    1    2    0    0 -0.35527136788E-14 -0.35527136788E-14  0.00000000000E+00  0.91188000000E+02  0.91188000000E+02 0.  0.
    9900012    2    3    3    0    0 -0.27432204735E+02 -0.23799696334E+02 -0.60680384061E+01  0.54367183981E+02  0.40000227521E+02 0.  0.
        -12    1    3    3    0    0  0.27432204735E+02  0.23799696334E+02  0.60680384061E+01  0.36820816019E+02  0.00000000000E+00 0.  1.
         11    1    4    4    0    0 -0.13845294323E+02 -0.23346170668E+02 -0.67026366046E+01  0.27958204475E+02  0.51100000000E-03 0. -1.
        -11    1    4    4    0    0 -0.24645962861E+01 -0.10858342424E+02 -0.41649522307E+00  0.11142320386E+02  0.51100000000E-03 0.  1.
         12    1    4    4    0    0 -0.11122314126E+02  0.10404816759E+02  0.10510934215E+01  0.15266659120E+02  0.00000000000E+00 0. -1.
</event>
<event>
 8    1  0.2401501E-006  0.9118800E+02  0.7816164E-02  0.1184000E+00
        -11   -1    0    0    0    0  0.00000000000E+00  0.00000000000E+00  0.45593999997E+02  0.45594000000E+02  0.51100000000E-03 0.  1.
         11   -1    0    0    0    0 -0.00000000000E+00 -0.00000000000E+00 -0.45593999997E+02  0.45594000000E+02  0.51100000000E-03 0. -1.
         23    2    1    2    0    0  0.88817841970E-15 -0.88817841970E-15  0.71054273576E-14  0.91188000000E+02  0.91188000000E+02 0.  0.
    9900012    2    3    3    0    0  0.42451146053E+01 -0.70206305843E+01 -0.35895323772E+02  0.54367020647E+02  0.39999855168E+02 0.  0.
        -12    1    3    3    0    0 -0.42451146053E+01  0.70206305843E+01  0.35895323772E+02  0.36820979353E+02  0.00000000000E+00 0.  1.
         11    1    4    4    0    0  0.56650697050E+01 -0.99260294495E+01 -0.33747666134E+02  0.35630380929E+02  0.51100000000E-03 0. -1.
        -11    1    4    4    0    0 -0.49549685872E+01  0.21319109051E+01  0.70359912153E+01  0.88657729753E+01  0.51100000000E-03 0.  1.
        -12    1    4    4    0    0  0.35350134875E+01  0.77348796012E+00 -0.91836488535E+01  0.98708667424E+01  0.00000000000E+00 0.  1.
</event>
<event>
 8    1  0.2401501E-006  0.9118800E+02  0.7816164E-02  0.1184000E+00
        -11   -1    0    0    0    0  0.00000000000E+00  0.00000000000E+00  0.45593999997E+02  0.45594000000E+02  0.51100000000E-03 0. -1.
         11   -1    0    0    0    0 -0.00000000000E+00 -0.00000000000E+00 -0.45593999997E+02  0.45594000000E+02  0.51100000000E-03 0.  1.
         23    2    1    2    0    0  0.00000000000E+00  0.44408920985E-15  0.00000000000E+00  0.91188000000E+02  0.91188000000E+02 0.  0.
    9900012    2    3    3    0    0 -0.35227136315E+02 -0.33568750397E+01 -0.10176443349E+02  0.54367085533E+02  0.40000003089E+02 0.  0.
         12    1    3    3    0    0  0.35227136315E+02  0.33568750397E+01  0.10176443349E+02  0.36820914467E+02  0.00000000000E+00 0. -1.
         11    1    4    4    0    0 -0.91809538463E+01 -0.78476821652E+01  0.13341218265E+01  0.12151374828E+02  0.51100000000E-03 0. -1.
        -11    1    4    4    0    0 -0.16311718678E+02 -0.22123199769E+01 -0.21264606137E+02  0.26891448461E+02  0.51100000000E-03 0.  1.
         12    1    4    4    0    0 -0.97344637907E+01  0.67031271024E+01  0.97540409617E+01  0.15324262244E+02  0.00000000000E+00 0. -1.
</event>
<event>
 8    1  0.2401501E-006  0.9118800E+02  0.7816164E-02  0.1184000E+00
        -11   -1    0    0    0    0  0.00000000000E+00  0.00000000000E+00  0.45593999997E+02  0.45594000000E+02  0.51100000000E-03 0.  1.
         11   -1    0    0    0    0 -0.00000000000E+00 -0.00000000000E+00 -0.45593999997E+02  0.45594000000E+02  0.51100000000E-03 0. -1.
         23    2    1    2    0    0  0.00000000000E+00  0.00000000000E+00  0.00000000000E+00  0.91188000000E+02  0.91188000000E+02 0.  0.
    9900012    2    3    3    0    0  0.83679532340E+01  0.13803579755E+02 -0.33094093855E+02  0.54367075195E+02  0.39999979522E+02 0.  0.
        -12    1    3    3    0    0 -0.83679532340E+01 -0.13803579755E+02  0.33094093855E+02  0.36820924805E+02  0.00000000000E+00 0.  1.
         11    1    4    4    0    0  0.17150050521E+02  0.15207799705E+02 -0.20830646008E+02  0.30972846465E+02  0.51100000000E-03 0. -1.
        -11    1    4    4    0    0  0.45837499897E+01 -0.41629200105E+01 -0.28590206405E+01  0.68201661465E+01  0.51100000000E-03 0.  1.
         12    1    4    4    0    0 -0.13365847276E+02  0.27587000609E+01 -0.94044272068E+01  0.16574062584E+02  0.00000000000E+00 0. -1.
</event>
<event>
 8    1  0.2401501E-006  0.9118800E+02  0.7816164E-02  0.1184000E+00
        -11   -1    0    0    0    0  0.00000000000E+00  0.00000000000E+00  0.45593999997E+02  0.45594000000E+02  0.51100000000E-03 0.  1.
         11   -1    0    0    0    0 -0.00000000000E+00 -0.00000000000E+00 -0.45593999997E+02  0.45594000000E+02  0.51100000000E-03 0. -1.
         23    2    1    2    0    0 -0.35527136788E-14  0.17763568394E-14 -0.35527136788E-14  0.91188000000E+02  0.91188000000E+02 0.  0.
    9900012    2    3    3    0    0  0.26047281664E+02  0.61800890887E+01  0.25280815252E+02  0.54367163467E+02  0.40000180754E+02 0.  0.
         12    1    3    3    0    0 -0.26047281664E+02 -0.61800890887E+01 -0.25280815252E+02  0.36820836533E+02  0.00000000000E+00 0. -1.
         11    1    4    4    0    0  0.12555878126E+02  0.24642441014E+00  0.51515104755E+01  0.13573830003E+02  0.51100000000E-03 0. -1.
        -11    1    4    4    0    0  0.11577901245E+02 -0.44487343802E+01 -0.51256570677E+01  0.13420558687E+02  0.51100000000E-03 0.  1.
        -12    1    4    4    0    0  0.19135022926E+01  0.10382399059E+02  0.25254961844E+02  0.27372774777E+02  0.00000000000E+00 0.  1.
</event>
<event>
 8    1  0.2401501E-006  0.9118800E+02  0.7816164E-02  0.1184000E+00
        -11   -1    0    0    0    0  0.00000000000E+00  0.00000000000E+00  0.45593999997E+02  0.45594000000E+02  0.51100000000E-03 0.  1.
         11   -1    0    0    0    0 -0.00000000000E+00 -0.00000000000E+00 -0.45593999997E+02  0.45594000000E+02  0.51100000000E-03 0. -1.
         23    2    1    2    0    0 -0.17763568394E-14  0.00000000000E+00  0.00000000000E+00  0.91188000000E+02  0.91188000000E+02 0.  0.
    9900012    2    3    3    0    0 -0.14213983859E+02  0.18007580783E+02 -0.28800498835E+02  0.54367095123E+02  0.40000024952E+02 0.  0.
         12    1    3    3    0    0  0.14213983859E+02 -0.18007580783E+02  0.28800498835E+02  0.36820904877E+02  0.00000000000E+00 0. -1.
         11    1    4    4    0    0 -0.18228409639E+02  0.21221647505E+02 -0.31931735429E+02  0.42453138501E+02  0.51100000000E-03 0. -1.
        -11    1    4    4    0    0 -0.15131683022E+01 -0.35916560626E+01 -0.19839229830E+01  0.43732850635E+01  0.51100000000E-03 0.  1.
         12    1    4    4    0    0  0.55275940824E+01  0.37758934073E+00  0.51151595774E+01  0.75406715584E+01  0.00000000000E+00 0. -1.
</event>
<event>
 8    1  0.2401501E-006  0.9118800E+02  0.7816164E-02  0.1184000E+00
        -11   -1    0    0    0    0  0.00000000000E+00  0.00000000000E+00  0.45593999997E+02  0.45594000000E+02  0.51100000000E-03 0. -1.
         11   -1    0    0    0    0 -0.00000000000E+00 -0.00000000000E+00 -0.45593999997E+02  0.45594000000E+02  0.51100000000E-03 0.  1.
         23    2    1    2    0    0  0.71054273576E-14 -0.35527136788E-14  0.14432899320E-14  0.91188000000E+02  0.91188000000E+02 0.  0.
    9900012    2    3    3    0    0  0.32896181854E+02  0.16532558568E+02  0.54405175871E+00  0.54367078425E+02  0.39999986884E+02 0.  0.
         12    1    3    3    0    0 -0.32896181854E+02 -0.16532558568E+02 -0.54405175871E+00  0.36820921575E+02  0.00000000000E+00 0. -1.
         11    1    4    4    0    0 -0.17993250749E+01 -0.46904922380E+01 -0.25754103208E+01  0.56454430066E+01  0.51100000000E-03 0. -1.
        -11    1    4    4    0    0 -0.13273880498E+01  0.95931973285E+01 -0.34919560227E+01  0.10294908992E+02  0.51100000000E-03 0.  1.
        -12    1    4    4    0    0  0.36022894978E+02  0.11629853477E+02  0.66114181022E+01  0.38426726426E+02  0.00000000000E+00 0.  1.
</event>
<event>
 8    1  0.2401501E-006  0.9118800E+02  0.7816164E-02  0.1184000E+00
        -11   -1    0    0    0    0  0.00000000000E+00  0.00000000000E+00  0.45593999997E+02  0.45594000000E+02  0.51100000000E-03 0.  1.
         11   -1    0    0    0    0 -0.00000000000E+00 -0.00000000000E+00 -0.45593999997E+02  0.45594000000E+02  0.51100000000E-03 0. -1.
         23    2    1    2    0    0  0.35527136788E-14  0.00000000000E+00  0.35527136788E-14  0.91188000000E+02  0.91188000000E+02 0.  0.
    9900012    2    3    3    0    0 -0.19796312259E+02  0.25898225194E+02  0.17122134229E+02  0.54367088444E+02  0.40000009726E+02 0.  0.
         12    1    3    3    0    0  0.19796312259E+02 -0.25898225194E+02 -0.17122134229E+02  0.36820911556E+02  0.00000000000E+00 0. -1.
         11    1    4    4    0    0  0.10781286568E+02  0.59301826483E+01  0.36195021588E+01  0.12825911369E+02  0.51100000000E-03 0. -1.
        -11    1    4    4    0    0 -0.25838557806E+02  0.19826547444E+02  0.15883878341E+02  0.36235626730E+02  0.51100000000E-03 0.  1.
         12    1    4    4    0    0 -0.47390410210E+01  0.14149510105E+00 -0.23812462712E+01  0.53055503453E+01  0.00000000000E+00 0. -1.
</event>
<event>
 8    1  0.2401501E-006  0.9118800E+02  0.7816164E-02  0.1184000E+00
        -11   -1    0    0    0    0  0.00000000000E+00  0.00000000000E+00  0.45593999997E+02  0.45594000000E+02  0.51100000000E-03 0.  1.
         11   -1    0    0    0    0 -0.00000000000E+00 -0.00000000000E+00 -0.45593999997E+02  0.45594000000E+02  0.51100000000E-03 0. -1.
         23    2    1    2    0    0  0.00000000000E+00  0.00000000000E+00  0.00000000000E+00  0.91188000000E+02  0.91188000000E+02 0.  0.
    9900012    2    3    3    0    0  0.22093692707E+02 -0.16999271793E+02  0.24055627250E+02  0.54367086088E+02  0.40000004354E+02 0.  0.
         12    1    3    3    0    0 -0.22093692707E+02  0.16999271793E+02 -0.24055627250E+02  0.36820913912E+02  0.00000000000E+00 0. -1.
         11    1    4    4    0    0 -0.46333817893E+01 -0.19553508841E+02  0.64853370374E+01  0.21115575568E+02  0.51100000000E-03 0. -1.
        -11    1    4    4    0    0  0.81573742958E+01  0.48947525957E+01  0.60075690700E+01  0.11251321912E+02  0.51100000000E-03 0.  1.
        -12    1    4    4    0    0  0.18569700201E+02 -0.23405155481E+01  0.11562721142E+02  0.22000188608E+02  0.00000000000E+00 0.  1.
</event>
<event>
 8    1  0.2401501E-006  0.9118800E+02  0.7816164E-02  0.1184000E+00
        -11   -1    0    0    0    0  0.00000000000E+00  0.00000000000E+00  0.45593999997E+02  0.45594000000E+02  0.51100000000E-03 0.  1.
         11   -1    0    0    0    0 -0.00000000000E+00 -0.00000000000E+00 -0.45593999997E+02  0.45594000000E+02  0.51100000000E-03 0. -1.
         23    2    1    2    0    0  0.00000000000E+00  0.00000000000E+00  0.00000000000E+00  0.91188000000E+02  0.91188000000E+02 0.  0.
    9900012    2    3    3    0    0  0.58190916813E+01 -0.14632385513E+02  0.33283814673E+02  0.54367070449E+02  0.39999968703E+02 0.  0.
         12    1    3    3    0    0 -0.58190916813E+01  0.14632385513E+02 -0.33283814673E+02  0.36820929551E+02  0.00000000000E+00 0. -1.
         11    1    4    4    0    0  0.31797526542E+01 -0.33858693807E+01  0.85116702377E+01  0.96965699555E+01  0.51100000000E-03 0. -1.
        -11    1    4    4    0    0 -0.49062689125E+01 -0.22547097288E+02  0.11940205356E+02  0.25980984873E+02  0.51100000000E-03 0.  1.
         12    1    4    4    0    0  0.75456079396E+01  0.11300581155E+02  0.12831939079E+02  0.18689515621E+02  0.00000000000E+00 0. -1.
</event>
<event>
 8    1  0.2401501E-006  0.9118800E+02  0.7816164E-02  0.1184000E+00
        -11   -1    0    0    0    0  0.00000000000E+00  0.00000000000E+00  0.45593999997E+02  0.45594000000E+02  0.51100000000E-03 0.  1.
         11   -1    0    0    0    0 -0.00000000000E+00 -0.00000000000E+00 -0.45593999997E+02  0.45594000000E+02  0.51100000000E-03 0. -1.
         23    2    1    2    0    0  0.00000000000E+00 -0.17763568394E-14  0.35527136788E-14  0.91188000000E+02  0.91188000000E+02 0.  0.
    9900012    2    3    3    0    0  0.27553056542E+02 -0.14492610365E+02 -0.19661435215E+02  0.54367099486E+02  0.40000034897E+02 0.  0.
        -12    1    3    3    0    0 -0.27553056542E+02  0.14492610365E+02  0.19661435215E+02  0.36820900514E+02  0.00000000000E+00 0.  1.
         11    1    4    4    0    0  0.20117064343E+01 -0.11933864975E+02 -0.18777567594E+02  0.22339676386E+02  0.51100000000E-03 0.  1.
        -11    1    4    4    0    0  0.62888721286E+01 -0.51689804780E+01  0.73106434116E+01  0.10941379218E+02  0.51100000000E-03 0. -1.
        -12    1    4    4    0    0  0.19252477979E+02  0.26102350875E+01 -0.81945110324E+01  0.21086043882E+02  0.00000000000E+00 0.  1.
</event>
<event>
 8    1  0.2401501E-006  0.9118800E+02  0.7816164E-02  0.1184000E+00
        -11   -1    0    0    0    0  0.00000000000E+00  0.00000000000E+00  0.45593999997E+02  0.45594000000E+02  0.51100000000E-03 0. -1.
         11   -1    0    0    0    0 -0.00000000000E+00 -0.00000000000E+00 -0.45593999997E+02  0.45594000000E+02  0.51100000000E-03 0.  1.
         23    2    1    2    0    0  0.00000000000E+00 -0.88817841970E-15  0.00000000000E+00  0.91188000000E+02  0.91188000000E+02 0.  0.
    9900012    2    3    3    0    0  0.24335459275E+02 -0.30948951454E+01  0.27458829556E+02  0.54367078302E+02  0.39999986606E+02 0.  0.
        -12    1    3    3    0    0 -0.24335459275E+02  0.30948951454E+01 -0.27458829556E+02  0.36820921698E+02  0.00000000000E+00 0.  1.
         11    1    4    4    0    0  0.20735884301E+02 -0.24320068447E+01  0.15605314664E+02  0.26065636402E+02  0.51100000000E-03 0. -1.
        -11    1    4    4    0    0  0.10673802322E+02  0.83355753589E+01  0.96898330721E+01  0.16652469421E+02  0.51100000000E-03 0.  1.
        -12    1    4    4    0    0 -0.70742273483E+01 -0.89984636596E+01  0.21636818197E+01  0.11648972479E+02  0.00000000000E+00 0.  1.
</event>
<event>
 8    1  0.2401501E-006  0.9118800E+02  0.7816164E-02  0.1184000E+00
        -11   -1    0    0    0    0  0.00000000000E+00  0.00000000000E+00  0.45593999997E+02  0.45594000000E+02  0.51100000000E-03 0. -1.
         11   -1    0    0    0    0 -0.00000000000E+00 -0.00000000000E+00 -0.45593999997E+02  0.45594000000E+02  0.51100000000E-03 0.  1.
         23    2    1    2    0    0  0.00000000000E+00  0.00000000000E+00  0.00000000000E+00  0.91188000000E+02  0.91188000000E+02 0.  0.
    9900012    2    3    3    0    0  0.25063076672E+02 -0.18974550297E+02  0.19172606816E+02  0.54367078999E+02  0.39999988194E+02 0.  0.
        -12    1    3    3    0    0 -0.25063076672E+02  0.18974550297E+02 -0.19172606816E+02  0.36820921001E+02  0.00000000000E+00 0.  1.
         11    1    4    4    0    0  0.20085760049E+02 -0.16113337965E+02  0.28779926938E+02  0.38618151328E+02  0.51100000000E-03 0. -1.
        -11    1    4    4    0    0 -0.28882167467E+01  0.66462330426E+00 -0.17135919185E+00  0.29686502566E+01  0.51100000000E-03 0.  1.
         12    1    4    4    0    0  0.78655333697E+01 -0.35258356358E+01 -0.94359609300E+01  0.12780277415E+02  0.00000000000E+00 0. -1.
</event>
<event>
 8    1  0.2401501E-006  0.9118800E+02  0.7816164E-02  0.1184000E+00
        -11   -1    0    0    0    0  0.00000000000E+00  0.00000000000E+00  0.45593999997E+02  0.45594000000E+02  0.51100000000E-03 0. -1.
         11   -1    0    0    0    0 -0.00000000000E+00 -0.00000000000E+00 -0.45593999997E+02  0.45594000000E+02  0.51100000000E-03 0.  1.
         23    2    1    2    0    0  0.00000000000E+00 -0.15543122345E-14  0.00000000000E+00  0.91188000000E+02  0.91188000000E+02 0.  0.
    9900012    2    3    3    0    0 -0.36279129018E+02 -0.15344162764E+01 -0.61033069428E+01  0.54367082150E+02  0.39999995378E+02 0.  0.
        -12    1    3    3    0    0  0.36279129018E+02  0.15344162764E+01  0.61033069428E+01  0.36820917850E+02  0.00000000000E+00 0.  1.
         11    1    4    4    0    0 -0.26021753361E+02  0.15817769345E+02 -0.23991350428E+01  0.30546510836E+02  0.51100000000E-03 0. -1.
        -11    1    4    4    0    0  0.20983832686E+01 -0.57491641897E+01 -0.30989371829E+01  0.68599936696E+01  0.51100000000E-03 0.  1.
         12    1    4    4    0    0 -0.12355758926E+02 -0.11603021432E+02 -0.60523471717E+00  0.16960577645E+02  0.00000000000E+00 0. -1.
</event>
<event>
 8    1  0.2401501E-006  0.9118800E+02  0.7816164E-02  0.1184000E+00
        -11   -1    0    0    0    0  0.00000000000E+00  0.00000000000E+00  0.45593999997E+02  0.45594000000E+02  0.51100000000E-03 0.  1.
         11   -1    0    0    0    0 -0.00000000000E+00 -0.00000000000E+00 -0.45593999997E+02  0.45594000000E+02  0.51100000000E-03 0. -1.
         23    2    1    2    0    0 -0.71054273576E-14 -0.55511151231E-16  0.35527136788E-14  0.91188000000E+02  0.91188000000E+02 0.  0.
    9900012    2    3    3    0    0  0.30583124877E+02  0.48978401243E+00 -0.20499052244E+02  0.54367101606E+02  0.40000039732E+02 0.  0.
        -12    1    3    3    0    0 -0.30583124877E+02 -0.48978401243E+00  0.20499052244E+02  0.36820898394E+02  0.00000000000E+00 0.  1.
         11    1    4    4    0    0 -0.91361917354E+01  0.43207841158E+00 -0.52215713221E+00  0.91612957332E+01  0.51100000000E-03 0. -1.
        -11    1    4    4    0    0  0.14371699159E+01 -0.16946137769E+01 -0.13039912511E+01  0.25763475434E+01  0.51100000000E-03 0.  1.
        -12    1    4    4    0    0  0.38282146696E+02  0.17523193778E+01 -0.18672903861E+02  0.42629458330E+02  0.00000000000E+00 0.  1.
</event>
<event>
 8    1  0.2401501E-006  0.9118800E+02  0.7816164E-02  0.1184000E+00
        -11   -1    0    0    0    0  0.00000000000E+00  0.00000000000E+00  0.45593999997E+02  0.45594000000E+02  0.51100000000E-03 0. -1.
         11   -1    0    0    0    0 -0.00000000000E+00 -0.00000000000E+00 -0.45593999997E+02  0.45594000000E+02  0.51100000000E-03 0.  1.
         23    2    1    2    0    0  0.44408920985E-15  0.00000000000E+00  0.15543122345E-14  0.91188000000E+02  0.91188000000E+02 0.  0.
    9900012    2    3    3    0    0 -0.19891425087E+01  0.36742805588E+02  0.13356011689E+01  0.54367159694E+02  0.40000172154E+02 0.  0.
         12    1    3    3    0    0  0.19891425087E+01 -0.36742805588E+02 -0.13356011689E+01  0.36820840306E+02  0.00000000000E+00 0. -1.
         11    1    4    4    0    0  0.68762184724E+01  0.85225968675E+01 -0.92881641051E+01  0.14359214134E+02  0.51100000000E-03 0. -1.
        -11    1    4    4    0    0 -0.12391833928E+02  0.30458848331E+02  0.54065388808E+01  0.33324610315E+02  0.51100000000E-03 0.  1.
         12    1    4    4    0    0  0.35264729469E+01 -0.22386396105E+01  0.52172263933E+01  0.66833352444E+01  0.00000000000E+00 0. -1.
</event>
<event>
 8    1  0.2401501E-006  0.9118800E+02  0.7816164E-02  0.1184000E+00
        -11   -1    0    0    0    0  0.00000000000E+00  0.00000000000E+00  0.45593999997E+02  0.45594000000E+02  0.51100000000E-03 0.  1.
         11   -1    0    0    0    0 -0.00000000000E+00 -0.00000000000E+00 -0.45593999997E+02  0.45594000000E+02  0.51100000000E-03 0. -1.
         23    2    1    2    0    0  0.00000000000E+00  0.00000000000E+00 -0.17763568394E-14  0.91188000000E+02  0.91188000000E+02 0.  0.
    9900012    2    3    3    0    0 -0.69801746384E+01 -0.35034670749E+02 -0.89234949634E+01  0.54367085361E+02  0.40000002698E+02 0.  0.
         12    1    3    3    0    0  0.69801746384E+01  0.35034670749E+02  0.89234949634E+01  0.36820914639E+02  0.00000000000E+00 0. -1.
         11    1    4    4    0    0  0.76583426287E+01 -0.10762481232E+02 -0.12267405182E+02  0.18026936630E+02  0.51100000000E-03 0. -1.
        -11    1    4    4    0    0 -0.66850450409E+00 -0.21816916518E+02  0.28040608983E+00  0.21828957200E+02  0.51100000000E-03 0.  1.
        -12    1    4    4    0    0 -0.13970012763E+02 -0.24552729995E+01  0.30635041292E+01  0.14511191531E+02  0.00000000000E+00 0.  1.
</event>
<event>
 8    1  0.2401501E-006  0.9118800E+02  0.7816164E-02  0.1184000E+00
        -11   -1    0    0    0    0  0.00000000000E+00  0.00000000000E+00  0.45593999997E+02  0.45594000000E+02  0.51100000000E-03 0. -1.
         11   -1    0    0    0    0 -0.00000000000E+00 -0.00000000000E+00 -0.45593999997E+02  0.45594000000E+02  0.51100000000E-03 0.  1.
         23    2    1    2    0    0  0.00000000000E+00  0.88817841970E-15  0.35527136788E-14  0.91188000000E+02  0.91188000000E+02 0.  0.
    9900012    2    3    3    0    0 -0.23980260585E+02 -0.73947219906E+01 -0.26945226623E+02  0.54367081369E+02  0.39999993598E+02 0.  0.
         12    1    3    3    0    0  0.23980260585E+02  0.73947219906E+01  0.26945226623E+02  0.36820918631E+02  0.00000000000E+00 0. -1.
         11    1    4    4    0    0 -0.90040706226E+01 -0.20825123517E+01 -0.12160636914E+01  0.93214246033E+01  0.51100000000E-03 0. -1.
        -11    1    4    4    0    0  0.92859407743E+01 -0.33809123250E+01 -0.35942968507E+00  0.98888044866E+01  0.51100000000E-03 0.  1.
        -12    1    4    4    0    0 -0.24262130737E+02 -0.19312973139E+01 -0.25369733246E+02  0.35156852279E+02  0.00000000000E+00 0.  1.
</event>
<event>
 8    1  0.2401501E-006  0.9118800E+02  0.7816164E-02  0.1184000E+00
        -11   -1    0    0    0    0  0.00000000000E+00  0.00000000000E+00  0.45593999997E+02  0.45594000000E+02  0.51100000000E-03 0.  1.
         11   -1    0    0    0    0 -0.00000000000E+00 -0.00000000000E+00 -0.45593999997E+02  0.45594000000E+02  0.51100000000E-03 0. -1.
         23    2    1    2    0    0  0.88817841970E-15 -0.35527136788E-14  0.00000000000E+00  0.91188000000E+02  0.91188000000E+02 0.  0.
    9900012    2    3    3    0    0 -0.19544663163E+01  0.30295023994E+02  0.20836764306E+02  0.54367093383E+02  0.40000020984E+02 0.  0.
         12    1    3    3    0    0  0.19544663163E+01 -0.30295023994E+02 -0.20836764306E+02  0.36820906617E+02  0.00000000000E+00 0. -1.
         11    1    4    4    0    0 -0.50611655963E+01  0.17609527883E+02  0.48924580016E+01  0.18964361708E+02  0.51100000000E-03 0. -1.
        -11    1    4    4    0    0  0.89054514357E+01 -0.56160309454E+01  0.12904748676E+00  0.10529174819E+02  0.51100000000E-03 0.  1.
        -12    1    4    4    0    0 -0.57987521558E+01  0.18301527057E+02  0.15815258818E+02  0.24873556856E+02  0.00000000000E+00 0.  1.
</event>
<event>
 8    1  0.2401501E-006  0.9118800E+02  0.7816164E-02  0.1184000E+00
        -11   -1    0    0    0    0  0.00000000000E+00  0.00000000000E+00  0.45593999997E+02  0.45594000000E+02  0.51100000000E-03 0.  1.
         11   -1    0    0    0    0 -0.00000000000E+00 -0.00000000000E+00 -0.45593999997E+02  0.45594000000E+02  0.51100000000E-03 0. -1.
         23    2    1    2    0    0  0.71054273576E-14  0.00000000000E+00  0.17763568394E-14  0.91188000000E+02  0.91188000000E+02 0.  0.
    9900012    2    3    3    0    0 -0.34882936870E+02 -0.10185507920E+02 -0.59341374742E+01  0.54367111312E+02  0.40000061857E+02 0.  0.
        -12    1    3    3    0    0  0.34882936870E+02  0.10185507920E+02  0.59341374742E+01  0.36820888688E+02  0.00000000000E+00 0.  1.
         11    1    4    4    0    0 -0.36177913493E+02 -0.88634660935E+01 -0.94595050286E+01  0.38430257500E+02  0.51100000000E-03 0. -1.
        -11    1    4    4    0    0  0.28804051119E+01 -0.48237469606E+01  0.81653343784E+01  0.99115061480E+01  0.51100000000E-03 0.  1.
        -12    1    4    4    0    0 -0.15854284889E+01  0.35017051341E+01 -0.46399668240E+01  0.60253476636E+01  0.00000000000E+00 0.  1.
</event>
<event>
 8    1  0.2401501E-006  0.9118800E+02  0.7816164E-02  0.1184000E+00
        -11   -1    0    0    0    0  0.00000000000E+00  0.00000000000E+00  0.45593999997E+02  0.45594000000E+02  0.51100000000E-03 0. -1.
         11   -1    0    0    0    0 -0.00000000000E+00 -0.00000000000E+00 -0.45593999997E+02  0.45594000000E+02  0.51100000000E-03 0.  1.
         23    2    1    2    0    0  0.00000000000E+00 -0.44408920985E-15 -0.17763568394E-14  0.91188000000E+02  0.91188000000E+02 0.  0.
    9900012    2    3    3    0    0 -0.33204539203E+02 -0.18157122050E+01 -0.15809537994E+02  0.54367085752E+02  0.40000003589E+02 0.  0.
        -12    1    3    3    0    0  0.33204539203E+02  0.18157122050E+01  0.15809537994E+02  0.36820914248E+02  0.00000000000E+00 0.  1.
         11    1    4    4    0    0 -0.22228681036E+02  0.20326259771E+01 -0.55662075222E+01  0.23004966755E+02  0.51100000000E-03 0. -1.
        -11    1    4    4    0    0 -0.16917265287E+02 -0.15203675010E+01 -0.15576047948E+02  0.23046011630E+02  0.51100000000E-03 0.  1.
        -12    1    4    4    0    0  0.59414071198E+01 -0.23279706811E+01  0.53327174762E+01  0.83161073668E+01  0.00000000000E+00 0.  1.
</event>
<event>
 8    1  0.2401501E-006  0.9118800E+02  0.7816164E-02  0.1184000E+00
        -11   -1    0    0    0    0  0.00000000000E+00  0.00000000000E+00  0.45593999997E+02  0.45594000000E+02  0.51100000000E-03 0. -1.
         11   -1    0    0    0    0 -0.00000000000E+00 -0.00000000000E+00 -0.45593999997E+02  0.45594000000E+02  0.51100000000E-03 0.  1.
         23    2    1    2    0    0  0.00000000000E+00  0.00000000000E+00  0.00000000000E+00  0.91188000000E+02  0.91188000000E+02 0.  0.
    9900012    2    3    3    0    0 -0.16058393636E+02  0.11060801415E+02  0.31234059889E+02  0.54367084324E+02  0.40000000333E+02 0.  0.
        -12    1    3    3    0    0  0.16058393636E+02 -0.11060801415E+02 -0.31234059889E+02  0.36820915676E+02  0.00000000000E+00 0.  1.
         11    1    4    4    0    0  0.81584891350E+00 -0.46170473048E+01  0.11811983482E+02  0.12708488868E+02  0.51100000000E-03 0. -1.
        -11    1    4    4    0    0 -0.68819066929E+01  0.23128449142E+01 -0.72089010000E+01  0.10231233807E+02  0.51100000000E-03 0.  1.
         12    1    4    4    0    0 -0.99923358562E+01  0.13365003805E+02  0.26630977406E+02  0.31427361649E+02  0.00000000000E+00 0. -1.
</event>
<event>
 8    1  0.2401501E-006  0.9118800E+02  0.7816164E-02  0.1184000E+00
        -11   -1    0    0    0    0  0.00000000000E+00  0.00000000000E+00  0.45593999997E+02  0.45594000000E+02  0.51100000000E-03 0.  1.
         11   -1    0    0    0    0 -0.00000000000E+00 -0.00000000000E+00 -0.45593999997E+02  0.45594000000E+02  0.51100000000E-03 0. -1.
         23    2    1    2    0    0  0.35527136788E-14  0.00000000000E+00 -0.35527136788E-14  0.91188000000E+02  0.91188000000E+02 0.  0.
    9900012    2    3    3    0    0  0.20401487217E+02  0.54876597087E+01 -0.30157005872E+02  0.54367080770E+02  0.39999992232E+02 0.  0.
        -12    1    3    3    0    0 -0.20401487217E+02 -0.54876597087E+01  0.30157005872E+02  0.36820919230E+02  0.00000000000E+00 0.  1.
         11    1    4    4    0    0  0.15632919156E+02 -0.76372305217E+01 -0.95396029213E+01  0.19842365674E+02  0.51100000000E-03 0. -1.
        -11    1    4    4    0    0  0.21574179250E+00  0.10103511709E+02  0.27933313855E+01  0.10484760077E+02  0.51100000000E-03 0.  1.
         12    1    4    4    0    0  0.45528262691E+01  0.30213785215E+01 -0.23410734336E+02  0.24039955020E+02  0.00000000000E+00 0. -1.
</event>
<event>
 8    1  0.2401501E-006  0.9118800E+02  0.7816164E-02  0.1184000E+00
        -11   -1    0    0    0    0  0.00000000000E+00  0.00000000000E+00  0.45593999997E+02  0.45594000000E+02  0.51100000000E-03 0.  1.
         11   -1    0    0    0    0 -0.00000000000E+00 -0.00000000000E+00 -0.45593999997E+02  0.45594000000E+02  0.51100000000E-03 0. -1.
         23    2    1    2    0    0  0.00000000000E+00  0.00000000000E+00 -0.35527136788E-14  0.91188000000E+02  0.91188000000E+02 0.  0.
    9900012    2    3    3    0    0  0.10351491303E+02  0.25980066886E+02  0.23951231190E+02  0.54367099371E+02  0.40000034637E+02 0.  0.
         12    1    3    3    0    0 -0.10351491303E+02 -0.25980066886E+02 -0.23951231190E+02  0.36820900629E+02  0.00000000000E+00 0. -1.
         11    1    4    4    0    0  0.13575168263E+02  0.10655494294E+02  0.45904852461E+01  0.17857696018E+02  0.51100000000E-03 0. -1.
        -11    1    4    4    0    0  0.22232444298E+01  0.13844946149E+02 -0.22251476106E+01  0.14197768551E+02  0.51100000000E-03 0.  1.
        -12    1    4    4    0    0 -0.54469213896E+01  0.14796264432E+01  0.21585893554E+02  0.22311634803E+02  0.00000000000E+00 0.  1.
</event>
<event>
 8    1  0.2401501E-006  0.9118800E+02  0.7816164E-02  0.1184000E+00
        -11   -1    0    0    0    0  0.00000000000E+00  0.00000000000E+00  0.45593999997E+02  0.45594000000E+02  0.51100000000E-03 0.  1.
         11   -1    0    0    0    0 -0.00000000000E+00 -0.00000000000E+00 -0.45593999997E+02  0.45594000000E+02  0.51100000000E-03 0. -1.
         23    2    1    2    0    0  0.00000000000E+00 -0.35527136788E-14  0.00000000000E+00  0.91188000000E+02  0.91188000000E+02 0.  0.
    9900012    2    3    3    0    0 -0.23085360845E+02 -0.20766599139E+02 -0.19788742367E+02  0.54367084074E+02  0.39999999765E+02 0.  0.
        -12    1    3    3    0    0  0.23085360845E+02  0.20766599139E+02  0.19788742367E+02  0.36820915926E+02  0.00000000000E+00 0.  1.
         11    1    4    4    0    0 -0.11101757702E+02 -0.30116522366E+02 -0.20779818180E+02  0.38236825017E+02  0.51100000000E-03 0. -1.
        -11    1    4    4    0    0 -0.64298756454E+01  0.22782266005E+01  0.19306090042E+01  0.70894900132E+01  0.51100000000E-03 0.  1.
         12    1    4    4    0    0 -0.55537274975E+01  0.70716966268E+01 -0.93953319044E+00  0.90407690444E+01  0.00000000000E+00 0. -1.
</event>
<event>
 8    1  0.2401501E-006  0.9118800E+02  0.7816164E-02  0.1184000E+00
        -11   -1    0    0    0    0  0.00000000000E+00  0.00000000000E+00  0.45593999997E+02  0.45594000000E+02  0.51100000000E-03 0.  1.
         11   -1    0    0    0    0 -0.00000000000E+00 -0.00000000000E+00 -0.45593999997E+02  0.45594000000E+02  0.51100000000E-03 0. -1.
         23    2    1    2    0    0 -0.72164496601E-15  0.00000000000E+00 -0.35527136788E-14  0.91188000000E+02  0.91188000000E+02 0.  0.
    9900012    2    3    3    0    0 -0.43373602529E+00  0.23018731551E+02 -0.28735517509E+02  0.54367080733E+02  0.39999992148E+02 0.  0.
        -12    1    3    3    0    0  0.43373602529E+00 -0.23018731551E+02  0.28735517509E+02  0.36820919267E+02  0.00000000000E+00 0.  1.
         11    1    4    4    0    0  0.33231748439E+01  0.15139681023E+02  0.24743473988E+01  0.15696363523E+02  0.51100000000E-03 0.  1.
        -11    1    4    4    0    0  0.52404865379E+01  0.90150825375E+01 -0.26444366712E+02  0.28426025810E+02  0.51100000000E-03 0. -1.
        -12    1    4    4    0    0 -0.89973974071E+01 -0.11360320104E+01 -0.47654981959E+01  0.10244691400E+02  0.00000000000E+00 0.  1.
</event>
<event>
 8    1  0.2401501E-006  0.9118800E+02  0.7816164E-02  0.1184000E+00
        -11   -1    0    0    0    0  0.00000000000E+00  0.00000000000E+00  0.45593999997E+02  0.45594000000E+02  0.51100000000E-03 0. -1.
         11   -1    0    0    0    0 -0.00000000000E+00 -0.00000000000E+00 -0.45593999997E+02  0.45594000000E+02  0.51100000000E-03 0.  1.
         23    2    1    2    0    0  0.00000000000E+00  0.88817841970E-15  0.35527136788E-14  0.91188000000E+02  0.91188000000E+02 0.  0.
    9900012    2    3    3    0    0 -0.24075301888E+02 -0.31384959980E+01 -0.27682298695E+02  0.54367082315E+02  0.39999995753E+02 0.  0.
         12    1    3    3    0    0  0.24075301888E+02  0.31384959980E+01  0.27682298695E+02  0.36820917685E+02  0.00000000000E+00 0. -1.
         11    1    4    4    0    0 -0.11304551104E+02  0.76528908510E+01 -0.19226553148E+02  0.23580075493E+02  0.51100000000E-03 0. -1.
        -11    1    4    4    0    0  0.16551487295E+01  0.62420631277E+01 -0.50701363220E+01  0.82103076673E+01  0.51100000000E-03 0.  1.
         12    1    4    4    0    0 -0.14425899513E+02 -0.17033449977E+02 -0.33856092249E+01  0.22576699154E+02  0.00000000000E+00 0. -1.
</event>
<event>
 8    1  0.2401501E-006  0.9118800E+02  0.7816164E-02  0.1184000E+00
        -11   -1    0    0    0    0  0.00000000000E+00  0.00000000000E+00  0.45593999997E+02  0.45594000000E+02  0.51100000000E-03 0.  1.
         11   -1    0    0    0    0 -0.00000000000E+00 -0.00000000000E+00 -0.45593999997E+02  0.45594000000E+02  0.51100000000E-03 0. -1.
         23    2    1    2    0    0  0.19984014443E-14  0.17763568394E-14 -0.71054273576E-14  0.91188000000E+02  0.91188000000E+02 0.  0.
    9900012    2    3    3    0    0  0.15957923504E+01 -0.15951031972E+02  0.33148130141E+02  0.54367075160E+02  0.39999979443E+02 0.  0.
         12    1    3    3    0    0 -0.15957923504E+01  0.15951031972E+02 -0.33148130141E+02  0.36820924840E+02  0.00000000000E+00 0. -1.
         11    1    4    4    0    0 -0.82140178595E+01 -0.12165531184E+02  0.16832306299E+02  0.22333758617E+02  0.51100000000E-03 0. -1.
        -11    1    4    4    0    0  0.13136790353E+02  0.26621048651E+01  0.19858867621E+02  0.23959062722E+02  0.51100000000E-03 0.  1.
        -12    1    4    4    0    0 -0.33269801434E+01 -0.64476056538E+01 -0.35430437786E+01  0.80742538206E+01  0.00000000000E+00 0.  1.
</event>
<event>
 8    1  0.2401501E-006  0.9118800E+02  0.7816164E-02  0.1184000E+00
        -11   -1    0    0    0    0  0.00000000000E+00  0.00000000000E+00  0.45593999997E+02  0.45594000000E+02  0.51100000000E-03 0. -1.
         11   -1    0    0    0    0 -0.00000000000E+00 -0.00000000000E+00 -0.45593999997E+02  0.45594000000E+02  0.51100000000E-03 0.  1.
         23    2    1    2    0    0 -0.35527136788E-14  0.44408920985E-14 -0.35527136788E-14  0.91188000000E+02  0.91188000000E+02 0.  0.
    9900012    2    3    3    0    0  0.18813021277E+02 -0.50823199455E+01  0.31241278421E+02  0.54367119742E+02  0.40000081077E+02 0.  0.
        -12    1    3    3    0    0 -0.18813021277E+02  0.50823199455E+01 -0.31241278421E+02  0.36820880258E+02  0.00000000000E+00 0.  1.
         11    1    4    4    0    0  0.11848994118E+02 -0.96243052711E+01  0.19656757226E+02  0.24888029622E+02  0.51100000000E-03 0. -1.
        -11    1    4    4    0    0  0.50882425757E+01  0.12646979792E+02  0.15191810607E+02  0.20411453162E+02  0.51100000000E-03 0.  1.
        -12    1    4    4    0    0  0.18757845830E+01 -0.81049944667E+01 -0.36072894128E+01  0.90676369587E+01  0.00000000000E+00 0.  1.
</event>
<event>
 8    1  0.2401501E-006  0.9118800E+02  0.7816164E-02  0.1184000E+00
        -11   -1    0    0    0    0  0.00000000000E+00  0.00000000000E+00  0.45593999997E+02  0.45594000000E+02  0.51100000000E-03 0. -1.
         11   -1    0    0    0    0 -0.00000000000E+00 -0.00000000000E+00 -0.45593999997E+02  0.45594000000E+02  0.51100000000E-03 0.  1.
         23    2    1    2    0    0  0.88817841970E-15  0.00000000000E+00  0.00000000000E+00  0.91188000000E+02  0.91188000000E+02 0.  0.
    9900012    2    3    3    0    0 -0.43195856182E+01 -0.34106693232E+02  0.13185414948E+02  0.54367075100E+02  0.39999979306E+02 0.  0.
         12    1    3    3    0    0  0.43195856182E+01  0.34106693232E+02 -0.13185414948E+02  0.36820924900E+02  0.00000000000E+00 0. -1.
         11    1    4    4    0    0 -0.12338459954E+02 -0.63111299865E+01  0.14999044880E+02  0.20421540180E+02  0.51100000000E-03 0. -1.
        -11    1    4    4    0    0 -0.12411477020E+01 -0.13766470741E+02 -0.80743645452E+01  0.16007858300E+02  0.51100000000E-03 0.  1.
        -12    1    4    4    0    0  0.92600220381E+01 -0.14029092505E+02  0.62607346130E+01  0.17937676621E+02  0.00000000000E+00 0.  1.
</event>
<event>
 8    1  0.2401501E-006  0.9118800E+02  0.7816164E-02  0.1184000E+00
        -11   -1    0    0    0    0  0.00000000000E+00  0.00000000000E+00  0.45593999997E+02  0.45594000000E+02  0.51100000000E-03 0. -1.
         11   -1    0    0    0    0 -0.00000000000E+00 -0.00000000000E+00 -0.45593999997E+02  0.45594000000E+02  0.51100000000E-03 0.  1.
         23    2    1    2    0    0  0.35527136788E-14  0.00000000000E+00  0.00000000000E+00  0.91188000000E+02  0.91188000000E+02 0.  0.
    9900012    2    3    3    0    0 -0.29524807516E+02  0.18031766659E+02 -0.12606398706E+02  0.54367079913E+02  0.39999990279E+02 0.  0.
         12    1    3    3    0    0  0.29524807516E+02 -0.18031766659E+02  0.12606398706E+02  0.36820920087E+02  0.00000000000E+00 0. -1.
         11    1    4    4    0    0 -0.60773377209E+00  0.54361499850E+01  0.64808012268E+01  0.84806751971E+01  0.51100000000E-03 0. -1.
        -11    1    4    4    0    0 -0.21916212091E+02  0.21292510133E+02 -0.14356008291E+02  0.33760721474E+02  0.51100000000E-03 0.  1.
        -12    1    4    4    0    0 -0.70008616531E+01 -0.86968934593E+01 -0.47311916421E+01  0.12125683242E+02  0.00000000000E+00 0.  1.
</event>
<event>
 8    1  0.2401501E-006  0.9118800E+02  0.7816164E-02  0.1184000E+00
        -11   -1    0    0    0    0  0.00000000000E+00  0.00000000000E+00  0.45593999997E+02  0.45594000000E+02  0.51100000000E-03 0.  1.
         11   -1    0    0    0    0 -0.00000000000E+00 -0.00000000000E+00 -0.45593999997E+02  0.45594000000E+02  0.51100000000E-03 0. -1.
         23    2    1    2    0    0  0.00000000000E+00  0.88817841970E-15 -0.13322676296E-14  0.91188000000E+02  0.91188000000E+02 0.  0.
    9900012    2    3    3    0    0 -0.36544129034E+02 -0.37136572487E+01  0.25524454281E+01  0.54367087536E+02  0.40000007656E+02 0.  0.
        -12    1    3    3    0    0  0.36544129034E+02  0.37136572487E+01 -0.25524454281E+01  0.36820912464E+02  0.00000000000E+00 0.  1.
         11    1    4    4    0    0 -0.13596565937E+01 -0.68962717115E+01 -0.18121340196E+01  0.72588607603E+01  0.51100000000E-03 0. -1.
        -11    1    4    4    0    0 -0.14078511911E+01 -0.28039787249E+01  0.11628639952E+02  0.12044484591E+02  0.51100000000E-03 0.  1.
         12    1    4    4    0    0 -0.33776621249E+02  0.59865931877E+01 -0.72640605041E+01  0.35063742185E+02  0.00000000000E+00 0. -1.
</event>
<event>
 8    1  0.2401501E-006  0.9118800E+02  0.7816164E-02  0.1184000E+00
        -11   -1    0    0    0    0  0.00000000000E+00  0.00000000000E+00  0.45593999997E+02  0.45594000000E+02  0.51100000000E-03 0. -1.
         11   -1    0    0    0    0 -0.00000000000E+00 -0.00000000000E+00 -0.45593999997E+02  0.45594000000E+02  0.51100000000E-03 0.  1.
         23    2    1    2    0    0  0.35527136788E-14  0.35527136788E-14  0.00000000000E+00  0.91188000000E+02  0.91188000000E+02 0.  0.
    9900012    2    3    3    0    0 -0.26883557811E+02  0.22642850005E+02 -0.10970018546E+02  0.54367276978E+02  0.40000439525E+02 0.  0.
         12    1    3    3    0    0  0.26883557811E+02 -0.22642850005E+02  0.10970018546E+02  0.36820723022E+02  0.00000000000E+00 0. -1.
         11    1    4    4    0    0  0.39473377732E+00  0.17303965508E+02 -0.33383965858E+01  0.17627476537E+02  0.51100000000E-03 0. -1.
        -11    1    4    4    0    0 -0.28875076709E+02  0.96981018402E+01 -0.37533914900E+01  0.30690571552E+02  0.51100000000E-03 0.  1.
         12    1    4    4    0    0  0.15967851205E+01 -0.43592173434E+01 -0.38782304705E+01  0.60492288889E+01  0.00000000000E+00 0. -1.
</event>
<event>
 8    1  0.2401501E-006  0.9118800E+02  0.7816164E-02  0.1184000E+00
        -11   -1    0    0    0    0  0.00000000000E+00  0.00000000000E+00  0.45593999997E+02  0.45594000000E+02  0.51100000000E-03 0. -1.
         11   -1    0    0    0    0 -0.00000000000E+00 -0.00000000000E+00 -0.45593999997E+02  0.45594000000E+02  0.51100000000E-03 0.  1.
         23    2    1    2    0    0  0.00000000000E+00 -0.35527136788E-14 -0.13322676296E-14  0.91188000000E+02  0.91188000000E+02 0.  0.
    9900012    2    3    3    0    0 -0.22856925784E+02  0.28804775652E+02  0.19042200825E+01  0.54367079170E+02  0.39999988583E+02 0.  0.
         12    1    3    3    0    0  0.22856925784E+02 -0.28804775652E+02 -0.19042200825E+01  0.36820920830E+02  0.00000000000E+00 0. -1.
         11    1    4    4    0    0  0.53555545801E+01  0.87443053419E+01  0.82638143778E+01  0.13169490085E+02  0.51100000000E-03 0. -1.
        -11    1    4    4    0    0 -0.25488305882E+02  0.92384201461E+01 -0.10805480925E+02  0.29184937242E+02  0.51100000000E-03 0.  1.
        -12    1    4    4    0    0 -0.27241744821E+01  0.10822050164E+02  0.44458866298E+01  0.12012651843E+02  0.00000000000E+00 0.  1.
</event>
<event>
 8    1  0.2401501E-006  0.9118800E+02  0.7816164E-02  0.1184000E+00
        -11   -1    0    0    0    0  0.00000000000E+00  0.00000000000E+00  0.45593999997E+02  0.45594000000E+02  0.51100000000E-03 0. -1.
         11   -1    0    0    0    0 -0.00000000000E+00 -0.00000000000E+00 -0.45593999997E+02  0.45594000000E+02  0.51100000000E-03 0.  1.
         23    2    1    2    0    0 -0.17763568394E-14  0.00000000000E+00 -0.71054273576E-14  0.91188000000E+02  0.91188000000E+02 0.  0.
    9900012    2    3    3    0    0 -0.44156521812E+01 -0.16330572417E+02 -0.32704641210E+02  0.54367093761E+02  0.40000021846E+02 0.  0.
         12    1    3    3    0    0  0.44156521812E+01  0.16330572417E+02  0.32704641210E+02  0.36820906239E+02  0.00000000000E+00 0. -1.
         11    1    4    4    0    0  0.10767758306E+02  0.50065257724E+00  0.21044327403E+01  0.10982891666E+02  0.51100000000E-03 0. -1.
        -11    1    4    4    0    0 -0.60947237515E+01 -0.64759100308E+01 -0.24822769662E+02  0.26367649920E+02  0.51100000000E-03 0.  1.
         12    1    4    4    0    0 -0.90886867356E+01 -0.10355314963E+02 -0.99863042877E+01  0.17016552174E+02  0.00000000000E+00 0. -1.
</event>
<event>
 8    1  0.2401501E-006  0.9118800E+02  0.7816164E-02  0.1184000E+00
        -11   -1    0    0    0    0  0.00000000000E+00  0.00000000000E+00  0.45593999997E+02  0.45594000000E+02  0.51100000000E-03 0. -1.
         11   -1    0    0    0    0 -0.00000000000E+00 -0.00000000000E+00 -0.45593999997E+02  0.45594000000E+02  0.51100000000E-03 0.  1.
         23    2    1    2    0    0  0.00000000000E+00  0.00000000000E+00 -0.35527136788E-14  0.91188000000E+02  0.91188000000E+02 0.  0.
    9900012    2    3    3    0    0 -0.15668943001E+02 -0.12066072650E+02  0.31059178988E+02  0.54367102626E+02  0.40000042057E+02 0.  0.
        -12    1    3    3    0    0  0.15668943001E+02  0.12066072650E+02 -0.31059178988E+02  0.36820897374E+02  0.00000000000E+00 0.  1.
         11    1    4    4    0    0 -0.13727083847E+02 -0.52975298571E+01  0.22106766676E+02  0.26555711000E+02  0.51100000000E-03 0. -1.
        -11    1    4    4    0    0  0.32599502352E+01 -0.32200620621E+01  0.16992218438E+02  0.17599192110E+02  0.51100000000E-03 0.  1.
        -12    1    4    4    0    0 -0.52018093887E+01 -0.35484807309E+01 -0.80398061264E+01  0.10212199516E+02  0.00000000000E+00 0.  1.
</event>
<event>
 8    1  0.2401501E-006  0.9118800E+02  0.7816164E-02  0.1184000E+00
        -11   -1    0    0    0    0  0.00000000000E+00  0.00000000000E+00  0.45593999997E+02  0.45594000000E+02  0.51100000000E-03 0.  1.
         11   -1    0    0    0    0 -0.00000000000E+00 -0.00000000000E+00 -0.45593999997E+02  0.45594000000E+02  0.51100000000E-03 0. -1.
         23    2    1    2    0    0  0.00000000000E+00  0.00000000000E+00  0.35527136788E-14  0.91188000000E+02  0.91188000000E+02 0.  0.
    9900012    2    3    3    0    0 -0.16874065680E+02 -0.13197763877E+02  0.29947704495E+02  0.54367081102E+02  0.39999992989E+02 0.  0.
         12    1    3    3    0    0  0.16874065680E+02  0.13197763877E+02 -0.29947704495E+02  0.36820918898E+02  0.00000000000E+00 0. -1.
         11    1    4    4    0    0 -0.17325664049E+02 -0.12886992724E+02  0.34137607633E+01  0.21861083665E+02  0.51100000000E-03 0. -1.
        -11    1    4    4    0    0 -0.45164762779E+01 -0.66908320861E+01  0.21537541004E+02  0.23000684006E+02  0.51100000000E-03 0.  1.
        -12    1    4    4    0    0  0.49680746472E+01  0.63800609329E+01  0.49964027279E+01  0.95053134313E+01  0.00000000000E+00 0.  1.
</event>
<event>
 8    1  0.2401501E-006  0.9118800E+02  0.7816164E-02  0.1184000E+00
        -11   -1    0    0    0    0  0.00000000000E+00  0.00000000000E+00  0.45593999997E+02  0.45594000000E+02  0.51100000000E-03 0. -1.
         11   -1    0    0    0    0 -0.00000000000E+00 -0.00000000000E+00 -0.45593999997E+02  0.45594000000E+02  0.51100000000E-03 0.  1.
         23    2    1    2    0    0  0.44408920985E-15  0.00000000000E+00  0.00000000000E+00  0.91188000000E+02  0.91188000000E+02 0.  0.
    9900012    2    3    3    0    0  0.13806656033E+01 -0.31906144760E+02 -0.18326745385E+02  0.54367110448E+02  0.40000059889E+02 0.  0.
         12    1    3    3    0    0 -0.13806656033E+01  0.31906144760E+02  0.18326745385E+02  0.36820889552E+02  0.00000000000E+00 0. -1.
         11    1    4    4    0    0  0.26767667565E+01  0.22036929510E+01  0.37614063923E+01  0.51156154273E+01  0.51100000000E-03 0. -1.
        -11    1    4    4    0    0  0.37477430894E+01  0.36053898191E+01 -0.59976201634E+01  0.79382530759E+01  0.51100000000E-03 0.  1.
         12    1    4    4    0    0 -0.50438442426E+01 -0.37715227530E+02 -0.16090531614E+02  0.41313241945E+02  0.00000000000E+00 0. -1.
</event>
<event>
 8    1  0.2401501E-006  0.9118800E+02  0.7816164E-02  0.1184000E+00
        -11   -1    0    0    0    0  0.00000000000E+00  0.00000000000E+00  0.45593999997E+02  0.45594000000E+02  0.51100000000E-03 0.  1.
         11   -1    0    0    0    0 -0.00000000000E+00 -0.00000000000E+00 -0.45593999997E+02  0.45594000000E+02  0.51100000000E-03 0. -1.
         23    2    1    2    0    0 -0.17763568394E-14  0.00000000000E+00 -0.13322676296E-14  0.91188000000E+02  0.91188000000E+02 0.  0.
    9900012    2    3    3    0    0 -0.12916937729E+02 -0.34465655102E+02 -0.10254983928E+01  0.54367077838E+02  0.39999985547E+02 0.  0.
        -12    1    3    3    0    0  0.12916937729E+02  0.34465655102E+02  0.10254983928E+01  0.36820922162E+02  0.00000000000E+00 0.  1.
         11    1    4    4    0    0 -0.92719851366E+01 -0.11520960620E+02 -0.15309398113E+02  0.21285673887E+02  0.51100000000E-03 0.  1.
        -11    1    4    4    0    0  0.24302221852E+01  0.81667580744E+00  0.70643283575E+01  0.75151629821E+01  0.51100000000E-03 0. -1.
        -12    1    4    4    0    0 -0.60751747777E+01 -0.23761370289E+02  0.72195713627E+01  0.25566240968E+02  0.00000000000E+00 0.  1.
</event>
<event>
 8    1  0.2401501E-006  0.9118800E+02  0.7816164E-02  0.1184000E+00
        -11   -1    0    0    0    0  0.00000000000E+00  0.00000000000E+00  0.45593999997E+02  0.45594000000E+02  0.51100000000E-03 0. -1.
         11   -1    0    0    0    0 -0.00000000000E+00 -0.00000000000E+00 -0.45593999997E+02  0.45594000000E+02  0.51100000000E-03 0.  1.
         23    2    1    2    0    0  0.35527136788E-14  0.88817841970E-15 -0.35527136788E-14  0.91188000000E+02  0.91188000000E+02 0.  0.
    9900012    2    3    3    0    0 -0.27763029469E+02 -0.50352044114E+01  0.23656733264E+02  0.54367080437E+02  0.39999991473E+02 0.  0.
        -12    1    3    3    0    0  0.27763029469E+02  0.50352044114E+01 -0.23656733264E+02  0.36820919563E+02  0.00000000000E+00 0.  1.
         11    1    4    4    0    0 -0.13071824661E+02  0.75921159893E+01  0.25512044459E+02  0.29654295437E+02  0.51100000000E-03 0. -1.
        -11    1    4    4    0    0 -0.68341189379E+01 -0.10898138883E+02  0.53318058984E+01  0.13924897384E+02  0.51100000000E-03 0.  1.
         12    1    4    4    0    0 -0.78570858698E+01 -0.17291815180E+01 -0.71871170935E+01  0.10787887615E+02  0.00000000000E+00 0. -1.
</event>
<event>
 8    1  0.2401501E-006  0.9118800E+02  0.7816164E-02  0.1184000E+00
        -11   -1    0    0    0    0  0.00000000000E+00  0.00000000000E+00  0.45593999997E+02  0.45594000000E+02  0.51100000000E-03 0. -1.
         11   -1    0    0    0    0 -0.00000000000E+00 -0.00000000000E+00 -0.45593999997E+02  0.45594000000E+02  0.51100000000E-03 0.  1.
         23    2    1    2    0    0  0.00000000000E+00 -0.44408920985E-15 -0.88817841970E-15  0.91188000000E+02  0.91188000000E+02 0.  0.
    9900012    2    3    3    0    0  0.36121104896E+02 -0.27432232454E+01 -0.65969041415E+01  0.54367100541E+02  0.40000037304E+02 0.  0.
         12    1    3    3    0    0 -0.36121104896E+02  0.27432232454E+01  0.65969041415E+01  0.36820899459E+02  0.00000000000E+00 0. -1.
         11    1    4    4    0    0  0.70063650524E+01 -0.26214837635E+01  0.40633833339E+01  0.85130730497E+01  0.51100000000E-03 0.  1.
        -11    1    4    4    0    0  0.12884609998E+02  0.16381592622E+02 -0.88300616523E+01  0.22634923032E+02  0.51100000000E-03 0. -1.
        -12    1    4    4    0    0  0.16230129846E+02 -0.16503332104E+02 -0.18302258231E+01  0.23219104460E+02  0.00000000000E+00 0.  1.
</event>
<event>
 8    1  0.2401501E-006  0.9118800E+02  0.7816164E-02  0.1184000E+00
        -11   -1    0    0    0    0  0.00000000000E+00  0.00000000000E+00  0.45593999997E+02  0.45594000000E+02  0.51100000000E-03 0. -1.
         11   -1    0    0    0    0 -0.00000000000E+00 -0.00000000000E+00 -0.45593999997E+02  0.45594000000E+02  0.51100000000E-03 0.  1.
         23    2    1    2    0    0  0.00000000000E+00 -0.35527136788E-14 -0.35527136788E-14  0.91188000000E+02  0.91188000000E+02 0.  0.
    9900012    2    3    3    0    0  0.13834645166E+02 -0.27689237155E+02  0.19942133095E+02  0.54367082935E+02  0.39999997168E+02 0.  0.
        -12    1    3    3    0    0 -0.13834645166E+02  0.27689237155E+02 -0.19942133095E+02  0.36820917065E+02  0.00000000000E+00 0.  1.
         11    1    4    4    0    0  0.12496880254E+02 -0.18065518618E+02  0.21389621062E+02  0.30660248995E+02  0.51100000000E-03 0. -1.
        -11    1    4    4    0    0  0.10852604658E+02 -0.89161968752E+01  0.70454130081E-01  0.14045730975E+02  0.51100000000E-03 0.  1.
        -12    1    4    4    0    0 -0.95148397463E+01 -0.70752166232E+00 -0.15179420966E+01  0.96611029654E+01  0.00000000000E+00 0.  1.
</event>
<event>
 8    1  0.2401501E-006  0.9118800E+02  0.7816164E-02  0.1184000E+00
        -11   -1    0    0    0    0  0.00000000000E+00  0.00000000000E+00  0.45593999997E+02  0.45594000000E+02  0.51100000000E-03 0.  1.
         11   -1    0    0    0    0 -0.00000000000E+00 -0.00000000000E+00 -0.45593999997E+02  0.45594000000E+02  0.51100000000E-03 0. -1.
         23    2    1    2    0    0  0.35527136788E-14 -0.17763568394E-14  0.35527136788E-14  0.91188000000E+02  0.91188000000E+02 0.  0.
    9900012    2    3    3    0    0 -0.27841158303E+02  0.15311028102E+02 -0.18607026404E+02  0.54367094134E+02  0.40000022698E+02 0.  0.
         12    1    3    3    0    0  0.27841158303E+02 -0.15311028102E+02  0.18607026404E+02  0.36820905866E+02  0.00000000000E+00 0. -1.
         11    1    4    4    0    0  0.61344787536E+01  0.33545074959E+01 -0.80297155581E+01  0.10647106758E+02  0.51100000000E-03 0. -1.
        -11    1    4    4    0    0 -0.39813644268E+01  0.10786703590E+02 -0.70723448730E+01  0.13498974009E+02  0.51100000000E-03 0.  1.
        -12    1    4    4    0    0 -0.29994272630E+02  0.11698170156E+01 -0.35049659725E+01  0.30221013367E+02  0.00000000000E+00 0.  1.
</event>
<event>
 8    1  0.2401501E-006  0.9118800E+02  0.7816164E-02  0.1184000E+00
        -11   -1    0    0    0    0  0.00000000000E+00  0.00000000000E+00  0.45593999997E+02  0.45594000000E+02  0.51100000000E-03 0.  1.
         11   -1    0    0    0    0 -0.00000000000E+00 -0.00000000000E+00 -0.45593999997E+02  0.45594000000E+02  0.51100000000E-03 0. -1.
         23    2    1    2    0    0 -0.13322676296E-14  0.00000000000E+00  0.00000000000E+00  0.91188000000E+02  0.91188000000E+02 0.  0.
    9900012    2    3    3    0    0  0.19790267080E+01 -0.16437929478E+02 -0.32888548240E+02  0.54367099989E+02  0.40000036045E+02 0.  0.
        -12    1    3    3    0    0 -0.19790267080E+01  0.16437929478E+02  0.32888548240E+02  0.36820900011E+02  0.00000000000E+00 0.  1.
         11    1    4    4    0    0 -0.15438760936E+01 -0.47908782380E+01 -0.57814340411E+01  0.76655754850E+01  0.51100000000E-03 0. -1.
        -11    1    4    4    0    0 -0.10258290367E+02 -0.19596932928E+02 -0.15823018558E+02  0.27196327288E+02  0.51100000000E-03 0.  1.
        -12    1    4    4    0    0  0.13781193168E+02  0.79498816874E+01 -0.11284095641E+02  0.19505197216E+02  0.00000000000E+00 0.  1.
</event>
<event>
 8    1  0.2401501E-006  0.9118800E+02  0.7816164E-02  0.1184000E+00
        -11   -1    0    0    0    0  0.00000000000E+00  0.00000000000E+00  0.45593999997E+02  0.45594000000E+02  0.51100000000E-03 0.  1.
         11   -1    0    0    0    0 -0.00000000000E+00 -0.00000000000E+00 -0.45593999997E+02  0.45594000000E+02  0.51100000000E-03 0. -1.
         23    2    1    2    0    0 -0.22204460493E-15 -0.35527136788E-14 -0.35527136788E-14  0.91188000000E+02  0.91188000000E+02 0.  0.
    9900012    2    3    3    0    0  0.12334030003E+01 -0.19780492407E+02 -0.31032066915E+02  0.54367104576E+02  0.40000046502E+02 0.  0.
        -12    1    3    3    0    0 -0.12334030003E+01  0.19780492407E+02  0.31032066915E+02  0.36820895424E+02  0.00000000000E+00 0.  1.
         11    1    4    4    0    0 -0.34818959576E+01  0.94590688725E+01 -0.11264264268E+02  0.15115595693E+02  0.51100000000E-03 0.  1.
        -11    1    4    4    0    0  0.37766455905E+01 -0.10582898312E+01 -0.75773731599E+01  0.85322689566E+01  0.51100000000E-03 0. -1.
         12    1    4    4    0    0  0.93865336745E+00 -0.28181271448E+02 -0.12190429486E+02  0.30719239926E+02  0.00000000000E+00 0. -1.
</event>
<event>
 8    1  0.2401501E-006  0.9118800E+02  0.7816164E-02  0.1184000E+00
        -11   -1    0    0    0    0  0.00000000000E+00  0.00000000000E+00  0.45593999997E+02  0.45594000000E+02  0.51100000000E-03 0. -1.
         11   -1    0    0    0    0 -0.00000000000E+00 -0.00000000000E+00 -0.45593999997E+02  0.45594000000E+02  0.51100000000E-03 0.  1.
         23    2    1    2    0    0  0.35527136788E-14  0.00000000000E+00  0.00000000000E+00  0.91188000000E+02  0.91188000000E+02 0.  0.
    9900012    2    3    3    0    0  0.31770831632E+02  0.75094276095E+01  0.17029410122E+02  0.54367108448E+02  0.40000055328E+02 0.  0.
        -12    1    3    3    0    0 -0.31770831632E+02 -0.75094276095E+01 -0.17029410122E+02  0.36820891552E+02  0.00000000000E+00 0.  1.
         11    1    4    4    0    0  0.59271182652E+01  0.91211781216E+01  0.20816000636E+01  0.11075183084E+02  0.51100000000E-03 0. -1.
        -11    1    4    4    0    0  0.22569709854E+02  0.22031565388E+01  0.23949129903E+02  0.32981912088E+02  0.51100000000E-03 0.  1.
        -12    1    4    4    0    0  0.32740035131E+01 -0.38149070509E+01 -0.90013198445E+01  0.10310013276E+02  0.00000000000E+00 0.  1.
</event>
<event>
 8    1  0.2401501E-006  0.9118800E+02  0.7816164E-02  0.1184000E+00
        -11   -1    0    0    0    0  0.00000000000E+00  0.00000000000E+00  0.45593999997E+02  0.45594000000E+02  0.51100000000E-03 0. -1.
         11   -1    0    0    0    0 -0.00000000000E+00 -0.00000000000E+00 -0.45593999997E+02  0.45594000000E+02  0.51100000000E-03 0.  1.
         23    2    1    2    0    0  0.00000000000E+00  0.00000000000E+00  0.00000000000E+00  0.91188000000E+02  0.91188000000E+02 0.  0.
    9900012    2    3    3    0    0  0.14875891508E+02  0.24214371199E+02 -0.23412495833E+02  0.54367178691E+02  0.40000215461E+02 0.  0.
         12    1    3    3    0    0 -0.14875891508E+02 -0.24214371199E+02  0.23412495833E+02  0.36820821309E+02  0.00000000000E+00 0. -1.
         11    1    4    4    0    0 -0.27730838026E+00 -0.86413700519E+01 -0.57326404557E+01  0.10373685130E+02  0.51100000000E-03 0. -1.
        -11    1    4    4    0    0  0.91482177101E+01  0.32035329248E+01 -0.19222182699E+01  0.98816716101E+01  0.51100000000E-03 0.  1.
        -12    1    4    4    0    0  0.60049821782E+01  0.29652208326E+02 -0.15757637108E+02  0.34111821951E+02  0.00000000000E+00 0.  1.
</event>
<event>
 8    1  0.2401501E-006  0.9118800E+02  0.7816164E-02  0.1184000E+00
        -11   -1    0    0    0    0  0.00000000000E+00  0.00000000000E+00  0.45593999997E+02  0.45594000000E+02  0.51100000000E-03 0. -1.
         11   -1    0    0    0    0 -0.00000000000E+00 -0.00000000000E+00 -0.45593999997E+02  0.45594000000E+02  0.51100000000E-03 0.  1.
         23    2    1    2    0    0  0.35527136788E-14  0.35527136788E-14  0.00000000000E+00  0.91188000000E+02  0.91188000000E+02 0.  0.
    9900012    2    3    3    0    0 -0.19616574777E+02 -0.20531183524E+02 -0.23440131401E+02  0.54367092040E+02  0.40000017923E+02 0.  0.
         12    1    3    3    0    0  0.19616574777E+02  0.20531183524E+02  0.23440131401E+02  0.36820907960E+02  0.00000000000E+00 0. -1.
         11    1    4    4    0    0 -0.13621269624E+02  0.36932436072E+00 -0.18184487372E+01  0.13747077606E+02  0.51100000000E-03 0. -1.
        -11    1    4    4    0    0 -0.12653392732E+02 -0.21152459840E+02 -0.88028112092E+01  0.26172970606E+02  0.51100000000E-03 0.  1.
        -12    1    4    4    0    0  0.66580875783E+01  0.25195195449E+00 -0.12818871455E+02  0.14447043828E+02  0.00000000000E+00 0.  1.
</event>
<event>
 8    1  0.2401501E-006  0.9118800E+02  0.7816164E-02  0.1184000E+00
        -11   -1    0    0    0    0  0.00000000000E+00  0.00000000000E+00  0.45593999997E+02  0.45594000000E+02  0.51100000000E-03 0.  1.
         11   -1    0    0    0    0 -0.00000000000E+00 -0.00000000000E+00 -0.45593999997E+02  0.45594000000E+02  0.51100000000E-03 0. -1.
         23    2    1    2    0    0  0.00000000000E+00  0.00000000000E+00  0.00000000000E+00  0.91188000000E+02  0.91188000000E+02 0.  0.
    9900012    2    3    3    0    0 -0.12081429575E+02 -0.78990204883E+01 -0.33873658116E+02  0.54367079596E+02  0.39999989554E+02 0.  0.
        -12    1    3    3    0    0  0.12081429575E+02  0.78990204883E+01  0.33873658116E+02  0.36820920404E+02  0.00000000000E+00 0.  1.
         11    1    4    4    0    0  0.45589040237E+01 -0.94866690338E+01 -0.96854271826E+01  0.14303425996E+02  0.51100000000E-03 0.  1.
        -11    1    4    4    0    0 -0.62160767695E+01 -0.12263089091E+02 -0.15344851848E+02  0.20603093043E+02  0.51100000000E-03 0. -1.
         12    1    4    4    0    0 -0.10424256829E+02  0.13850737636E+02 -0.88433790852E+01  0.19460560556E+02  0.00000000000E+00 0. -1.
</event>
<event>
 8    1  0.2401501E-006  0.9118800E+02  0.7816164E-02  0.1184000E+00
        -11   -1    0    0    0    0  0.00000000000E+00  0.00000000000E+00  0.45593999997E+02  0.45594000000E+02  0.51100000000E-03 0.  1.
         11   -1    0    0    0    0 -0.00000000000E+00 -0.00000000000E+00 -0.45593999997E+02  0.45594000000E+02  0.51100000000E-03 0. -1.
         23    2    1    2    0    0  0.00000000000E+00  0.17763568394E-14  0.00000000000E+00  0.91188000000E+02  0.91188000000E+02 0.  0.
    9900012    2    3    3    0    0 -0.44897906852E+01 -0.11427555007E+02 -0.34713596893E+02  0.54367067867E+02  0.39999962817E+02 0.  0.
        -12    1    3    3    0    0  0.44897906852E+01  0.11427555007E+02  0.34713596893E+02  0.36820932133E+02  0.00000000000E+00 0.  1.
         11    1    4    4    0    0  0.21417476757E+01  0.74051599303E+01 -0.98792252722E+01  0.12530864652E+02  0.51100000000E-03 0. -1.
        -11    1    4    4    0    0  0.96949056199E+01 -0.13209009082E+02 -0.12714486762E+02  0.20739510355E+02  0.51100000000E-03 0.  1.
         12    1    4    4    0    0 -0.16326443981E+02 -0.56237058556E+01 -0.12119884859E+02  0.21096692859E+02  0.00000000000E+00 0. -1.
</event>
<event>
 8    1  0.2401501E-006  0.9118800E+02  0.7816164E-02  0.1184000E+00
        -11   -1    0    0    0    0  0.00000000000E+00  0.00000000000E+00  0.45593999997E+02  0.45594000000E+02  0.51100000000E-03 0. -1.
         11   -1    0    0    0    0 -0.00000000000E+00 -0.00000000000E+00 -0.45593999997E+02  0.45594000000E+02  0.51100000000E-03 0.  1.
         23    2    1    2    0    0  0.00000000000E+00  0.17763568394E-14  0.35527136788E-14  0.91188000000E+02  0.91188000000E+02 0.  0.
    9900012    2    3    3    0    0 -0.24809746505E+02  0.88043567474E+01 -0.25743734377E+02  0.54367080959E+02  0.39999992662E+02 0.  0.
         12    1    3    3    0    0  0.24809746505E+02 -0.88043567474E+01  0.25743734377E+02  0.36820919041E+02  0.00000000000E+00 0. -1.
         11    1    4    4    0    0  0.42034356169E+01 -0.62574722932E+00  0.19389729252E+01  0.46711933000E+01  0.51100000000E-03 0. -1.
        -11    1    4    4    0    0 -0.15601904118E+02  0.18105091685E+02 -0.22705547422E+02  0.32965977022E+02  0.51100000000E-03 0.  1.
        -12    1    4    4    0    0 -0.13411278004E+02 -0.86749877083E+01 -0.49771598797E+01  0.16729910637E+02  0.00000000000E+00 0.  1.
</event>
<event>
 8    1  0.2401501E-006  0.9118800E+02  0.7816164E-02  0.1184000E+00
        -11   -1    0    0    0    0  0.00000000000E+00  0.00000000000E+00  0.45593999997E+02  0.45594000000E+02  0.51100000000E-03 0.  1.
         11   -1    0    0    0    0 -0.00000000000E+00 -0.00000000000E+00 -0.45593999997E+02  0.45594000000E+02  0.51100000000E-03 0. -1.
         23    2    1    2    0    0  0.00000000000E+00  0.00000000000E+00  0.17763568394E-14  0.91188000000E+02  0.91188000000E+02 0.  0.
    9900012    2    3    3    0    0  0.18074745323E+02  0.28091414893E+02 -0.15490510016E+02  0.54367083257E+02  0.39999997902E+02 0.  0.
         12    1    3    3    0    0 -0.18074745323E+02 -0.28091414893E+02  0.15490510016E+02  0.36820916743E+02  0.00000000000E+00 0. -1.
         11    1    4    4    0    0  0.11501119859E+02  0.28453497995E+00  0.15031893200E+01  0.11602426322E+02  0.51100000000E-03 0. -1.
        -11    1    4    4    0    0 -0.54863426970E+01 -0.28354919342E+01 -0.40315158167E+01  0.73751671669E+01  0.51100000000E-03 0.  1.
        -12    1    4    4    0    0  0.12059968161E+02  0.30642371847E+02 -0.12962183519E+02  0.35389489769E+02  0.00000000000E+00 0.  1.
</event>
<event>
 8    1  0.2401501E-006  0.9118800E+02  0.7816164E-02  0.1184000E+00
        -11   -1    0    0    0    0  0.00000000000E+00  0.00000000000E+00  0.45593999997E+02  0.45594000000E+02  0.51100000000E-03 0.  1.
         11   -1    0    0    0    0 -0.00000000000E+00 -0.00000000000E+00 -0.45593999997E+02  0.45594000000E+02  0.51100000000E-03 0. -1.
         23    2    1    2    0    0  0.00000000000E+00  0.00000000000E+00 -0.17763568394E-14  0.91188000000E+02  0.91188000000E+02 0.  0.
    9900012    2    3    3    0    0  0.34698191697E+02  0.98467697022E+01 -0.74066159107E+01  0.54367063838E+02  0.39999953631E+02 0.  0.
        -12    1    3    3    0    0 -0.34698191697E+02 -0.98467697022E+01  0.74066159107E+01  0.36820936162E+02  0.00000000000E+00 0.  1.
         11    1    4    4    0    0 -0.70089109513E+00  0.51879431752E+01  0.91684329494E+01  0.10557753820E+02  0.51100000000E-03 0. -1.
        -11    1    4    4    0    0  0.93802018084E-01 -0.21936848949E+01 -0.58984279398E+01  0.62938465710E+01  0.51100000000E-03 0.  1.
         12    1    4    4    0    0  0.35305280774E+02  0.68525114219E+01 -0.10676620920E+02  0.37515463447E+02  0.00000000000E+00 0. -1.
</event>
<event>
 8    1  0.2401501E-006  0.9118800E+02  0.7816164E-02  0.1184000E+00
        -11   -1    0    0    0    0  0.00000000000E+00  0.00000000000E+00  0.45593999997E+02  0.45594000000E+02  0.51100000000E-03 0. -1.
         11   -1    0    0    0    0 -0.00000000000E+00 -0.00000000000E+00 -0.45593999997E+02  0.45594000000E+02  0.51100000000E-03 0.  1.
         23    2    1    2    0    0  0.00000000000E+00 -0.88817841970E-15  0.00000000000E+00  0.91188000000E+02  0.91188000000E+02 0.  0.
    9900012    2    3    3    0    0  0.34188516734E+02  0.29362192532E+01  0.13352989069E+02  0.54367104071E+02  0.40000045351E+02 0.  0.
        -12    1    3    3    0    0 -0.34188516734E+02 -0.29362192532E+01 -0.13352989069E+02  0.36820895929E+02  0.00000000000E+00 0.  1.
         11    1    4    4    0    0 -0.31334421507E+00 -0.95291988854E+00 -0.79492008463E+01  0.80122428363E+01  0.51100000000E-03 0. -1.
        -11    1    4    4    0    0  0.32928407976E+00 -0.55158311653E+01  0.45221690466E+01  0.71402265088E+01  0.51100000000E-03 0.  1.
         12    1    4    4    0    0  0.34172576869E+02  0.94049703070E+01  0.16780020868E+02  0.39214634726E+02  0.00000000000E+00 0. -1.
</event>
<event>
 8    1  0.2401501E-006  0.9118800E+02  0.7816164E-02  0.1184000E+00
        -11   -1    0    0    0    0  0.00000000000E+00  0.00000000000E+00  0.45593999997E+02  0.45594000000E+02  0.51100000000E-03 0. -1.
         11   -1    0    0    0    0 -0.00000000000E+00 -0.00000000000E+00 -0.45593999997E+02  0.45594000000E+02  0.51100000000E-03 0.  1.
         23    2    1    2    0    0  0.00000000000E+00  0.17763568394E-14  0.52041704279E-16  0.91188000000E+02  0.91188000000E+02 0.  0.
    9900012    2    3    3    0    0 -0.35852311529E+02 -0.83900083708E+01  0.83556498027E-02  0.54367074533E+02  0.39999978013E+02 0.  0.
        -12    1    3    3    0    0  0.35852311529E+02  0.83900083708E+01 -0.83556498027E-02  0.36820925467E+02  0.00000000000E+00 0.  1.
         11    1    4    4    0    0 -0.13439431595E+02  0.32993894664E+01 -0.17432681771E+01  0.13947877138E+02  0.51100000000E-03 0. -1.
        -11    1    4    4    0    0 -0.27378455026E+02  0.16221462317E+00 -0.44734842794E+00  0.27382589981E+02  0.51100000000E-03 0.  1.
        -12    1    4    4    0    0  0.49655750917E+01 -0.11851612460E+02  0.21989722549E+01  0.13036607415E+02  0.00000000000E+00 0.  1.
</event>
<event>
 8    1  0.2401501E-006  0.9118800E+02  0.7816164E-02  0.1184000E+00
        -11   -1    0    0    0    0  0.00000000000E+00  0.00000000000E+00  0.45593999997E+02  0.45594000000E+02  0.51100000000E-03 0. -1.
         11   -1    0    0    0    0 -0.00000000000E+00 -0.00000000000E+00 -0.45593999997E+02  0.45594000000E+02  0.51100000000E-03 0.  1.
         23    2    1    2    0    0  0.00000000000E+00 -0.14432899320E-14  0.00000000000E+00  0.91188000000E+02  0.91188000000E+02 0.  0.
    9900012    2    3    3    0    0 -0.10408612758E+01 -0.52695150205E+00 -0.36802417853E+02  0.54367095205E+02  0.40000025139E+02 0.  0.
         12    1    3    3    0    0  0.10408612758E+01  0.52695150205E+00  0.36802417853E+02  0.36820904795E+02  0.00000000000E+00 0. -1.
         11    1    4    4    0    0 -0.49190168470E+01 -0.13880138910E+02 -0.13740077024E+02  0.20140623123E+02  0.51100000000E-03 0. -1.
        -11    1    4    4    0    0  0.14481908347E+01  0.12774387839E+02 -0.26803943710E+02  0.29727657830E+02  0.51100000000E-03 0.  1.
         12    1    4    4    0    0  0.24299647365E+01  0.57879956926E+00  0.37416028806E+01  0.44988142525E+01  0.00000000000E+00 0. -1.
</event>
<event>
 8    1  0.2401501E-006  0.9118800E+02  0.7816164E-02  0.1184000E+00
        -11   -1    0    0    0    0  0.00000000000E+00  0.00000000000E+00  0.45593999997E+02  0.45594000000E+02  0.51100000000E-03 0. -1.
         11   -1    0    0    0    0 -0.00000000000E+00 -0.00000000000E+00 -0.45593999997E+02  0.45594000000E+02  0.51100000000E-03 0.  1.
         23    2    1    2    0    0  0.00000000000E+00  0.17763568394E-14  0.00000000000E+00  0.91188000000E+02  0.91188000000E+02 0.  0.
    9900012    2    3    3    0    0  0.11476364550E+02 -0.13123516573E+02  0.32432182384E+02  0.54367080881E+02  0.39999992485E+02 0.  0.
        -12    1    3    3    0    0 -0.11476364550E+02  0.13123516573E+02 -0.32432182384E+02  0.36820919119E+02  0.00000000000E+00 0.  1.
         11    1    4    4    0    0  0.15842759706E+01 -0.47848179561E+01  0.30048420310E+01  0.58680055484E+01  0.51100000000E-03 0. -1.
        -11    1    4    4    0    0  0.49707384285E+01  0.11674918476E+02  0.24061269516E+02  0.27202144271E+02  0.51100000000E-03 0.  1.
        -12    1    4    4    0    0  0.49213501511E+01 -0.20013617093E+02  0.53660708373E+01  0.21296931062E+02  0.00000000000E+00 0.  1.
</event>
<event>
 8    1  0.2401501E-006  0.9118800E+02  0.7816164E-02  0.1184000E+00
        -11   -1    0    0    0    0  0.00000000000E+00  0.00000000000E+00  0.45593999997E+02  0.45594000000E+02  0.51100000000E-03 0.  1.
         11   -1    0    0    0    0 -0.00000000000E+00 -0.00000000000E+00 -0.45593999997E+02  0.45594000000E+02  0.51100000000E-03 0. -1.
         23    2    1    2    0    0 -0.88817841970E-15  0.00000000000E+00  0.35527136788E-14  0.91188000000E+02  0.91188000000E+02 0.  0.
    9900012    2    3    3    0    0  0.75796944873E+01 -0.16603254031E+02 -0.31979058719E+02  0.54367081904E+02  0.39999994816E+02 0.  0.
        -12    1    3    3    0    0 -0.75796944873E+01  0.16603254031E+02  0.31979058719E+02  0.36820918096E+02  0.00000000000E+00 0.  1.
         11    1    4    4    0    0  0.98840432840E+01 -0.10030084499E+02  0.63537109888E+00  0.14096120154E+02  0.51100000000E-03 0. -1.
        -11    1    4    4    0    0  0.73352635565E+01  0.35757226013E+01 -0.19293072732E+02  0.20947900594E+02  0.51100000000E-03 0.  1.
        -12    1    4    4    0    0 -0.96396123533E+01 -0.10148892133E+02 -0.13321357085E+02  0.19323061156E+02  0.00000000000E+00 0.  1.
</event>
<event>
 8    1  0.2401501E-006  0.9118800E+02  0.7816164E-02  0.1184000E+00
        -11   -1    0    0    0    0  0.00000000000E+00  0.00000000000E+00  0.45593999997E+02  0.45594000000E+02  0.51100000000E-03 0.  1.
         11   -1    0    0    0    0 -0.00000000000E+00 -0.00000000000E+00 -0.45593999997E+02  0.45594000000E+02  0.51100000000E-03 0. -1.
         23    2    1    2    0    0  0.00000000000E+00 -0.88817841970E-15  0.00000000000E+00  0.91188000000E+02  0.91188000000E+02 0.  0.
    9900012    2    3    3    0    0 -0.34101649282E+02 -0.32912266135E+01 -0.13491682417E+02  0.54367079984E+02  0.39999990439E+02 0.  0.
         12    1    3    3    0    0  0.34101649282E+02  0.32912266135E+01  0.13491682417E+02  0.36820920016E+02  0.00000000000E+00 0. -1.
         11    1    4    4    0    0 -0.21910061107E+02 -0.82864151149E+01 -0.91187071398E+01  0.25136950358E+02  0.51100000000E-03 0. -1.
        -11    1    4    4    0    0 -0.13345101875E+02 -0.77702003629E+01  0.66855511233E+00  0.15456866563E+02  0.51100000000E-03 0.  1.
         12    1    4    4    0    0  0.11535137000E+01  0.12765388864E+02 -0.50415303900E+01  0.13773263062E+02  0.00000000000E+00 0. -1.
</event>
<event>
 8    1  0.2401501E-006  0.9118800E+02  0.7816164E-02  0.1184000E+00
        -11   -1    0    0    0    0  0.00000000000E+00  0.00000000000E+00  0.45593999997E+02  0.45594000000E+02  0.51100000000E-03 0. -1.
         11   -1    0    0    0    0 -0.00000000000E+00 -0.00000000000E+00 -0.45593999997E+02  0.45594000000E+02  0.51100000000E-03 0.  1.
         23    2    1    2    0    0  0.00000000000E+00  0.00000000000E+00 -0.35527136788E-14  0.91188000000E+02  0.91188000000E+02 0.  0.
    9900012    2    3    3    0    0  0.40603384172E+01 -0.28574481554E+02 -0.22864660334E+02  0.54367081539E+02  0.39999993984E+02 0.  0.
         12    1    3    3    0    0 -0.40603384172E+01  0.28574481554E+02  0.22864660334E+02  0.36820918461E+02  0.00000000000E+00 0. -1.
         11    1    4    4    0    0  0.68656170774E+01 -0.15678743187E+02 -0.27008892918E+01  0.17327852983E+02  0.51100000000E-03 0. -1.
        -11    1    4    4    0    0  0.10554702965E+02  0.21754038117E+01 -0.88083256274E+01  0.13918359711E+02  0.51100000000E-03 0.  1.
        -12    1    4    4    0    0 -0.13359981625E+02 -0.15071142179E+02 -0.11355445414E+02  0.23120868845E+02  0.00000000000E+00 0.  1.
</event>
<event>
 8    1  0.2401501E-006  0.9118800E+02  0.7816164E-02  0.1184000E+00
        -11   -1    0    0    0    0  0.00000000000E+00  0.00000000000E+00  0.45593999997E+02  0.45594000000E+02  0.51100000000E-03 0. -1.
         11   -1    0    0    0    0 -0.00000000000E+00 -0.00000000000E+00 -0.45593999997E+02  0.45594000000E+02  0.51100000000E-03 0.  1.
         23    2    1    2    0    0  0.00000000000E+00 -0.35527136788E-14 -0.17763568394E-14  0.91188000000E+02  0.91188000000E+02 0.  0.
    9900012    2    3    3    0    0  0.17098262861E+02 -0.30937300907E+02  0.10310811200E+02  0.54367081925E+02  0.39999994865E+02 0.  0.
        -12    1    3    3    0    0 -0.17098262861E+02  0.30937300907E+02 -0.10310811200E+02  0.36820918075E+02  0.00000000000E+00 0.  1.
         11    1    4    4    0    0  0.12113886205E+02 -0.51537291049E+01  0.10099606267E+02  0.16592444356E+02  0.51100000000E-03 0. -1.
        -11    1    4    4    0    0 -0.60167895556E+01 -0.14310405062E+02  0.10589137881E+02  0.18791468568E+02  0.51100000000E-03 0.  1.
         12    1    4    4    0    0  0.11001166211E+02 -0.11473166740E+02 -0.10377932949E+02  0.18983169002E+02  0.00000000000E+00 0. -1.
</event>
<event>
 8    1  0.2401501E-006  0.9118800E+02  0.7816164E-02  0.1184000E+00
        -11   -1    0    0    0    0  0.00000000000E+00  0.00000000000E+00  0.45593999997E+02  0.45594000000E+02  0.51100000000E-03 0. -1.
         11   -1    0    0    0    0 -0.00000000000E+00 -0.00000000000E+00 -0.45593999997E+02  0.45594000000E+02  0.51100000000E-03 0.  1.
         23    2    1    2    0    0 -0.35527136788E-14  0.00000000000E+00  0.00000000000E+00  0.91188000000E+02  0.91188000000E+02 0.  0.
    9900012    2    3    3    0    0  0.26778342193E+02  0.17550098288E+02 -0.18185010746E+02  0.54367079638E+02  0.39999989650E+02 0.  0.
         12    1    3    3    0    0 -0.26778342193E+02 -0.17550098288E+02  0.18185010746E+02  0.36820920362E+02  0.00000000000E+00 0. -1.
         11    1    4    4    0    0  0.18468389319E+02  0.14736658144E+02 -0.17512804615E+02  0.29410012293E+02  0.51100000000E-03 0. -1.
        -11    1    4    4    0    0  0.13317630304E+02  0.83038706170E+01 -0.48568471798E+01  0.16428709898E+02  0.51100000000E-03 0.  1.
         12    1    4    4    0    0 -0.50076774300E+01 -0.54904304732E+01  0.41846410496E+01  0.85283574466E+01  0.00000000000E+00 0. -1.
</event>
<event>
 8    1  0.2401501E-006  0.9118800E+02  0.7816164E-02  0.1184000E+00
        -11   -1    0    0    0    0  0.00000000000E+00  0.00000000000E+00  0.45593999997E+02  0.45594000000E+02  0.51100000000E-03 0.  1.
         11   -1    0    0    0    0 -0.00000000000E+00 -0.00000000000E+00 -0.45593999997E+02  0.45594000000E+02  0.51100000000E-03 0. -1.
         23    2    1    2    0    0  0.00000000000E+00 -0.88817841970E-15 -0.71054273576E-14  0.91188000000E+02  0.91188000000E+02 0.  0.
    9900012    2    3    3    0    0 -0.24991803194E+02 -0.18209833863E+01 -0.26979139202E+02  0.54367079866E+02  0.39999990171E+02 0.  0.
        -12    1    3    3    0    0  0.24991803194E+02  0.18209833863E+01  0.26979139202E+02  0.36820920134E+02  0.00000000000E+00 0.  1.
         11    1    4    4    0    0 -0.20799856340E+02 -0.60957769055E+01 -0.28681793546E+02  0.35950490972E+02  0.51100000000E-03 0. -1.
        -11    1    4    4    0    0 -0.11163694521E+01  0.23234044034E+01  0.94823324682E+01  0.98264499222E+01  0.51100000000E-03 0.  1.
        -12    1    4    4    0    0 -0.30755774019E+01  0.19513891157E+01 -0.77796781244E+01  0.85901389718E+01  0.00000000000E+00 0.  1.
</event>
<event>
 8    1  0.2401501E-006  0.9118800E+02  0.7816164E-02  0.1184000E+00
        -11   -1    0    0    0    0  0.00000000000E+00  0.00000000000E+00  0.45593999997E+02  0.45594000000E+02  0.51100000000E-03 0. -1.
         11   -1    0    0    0    0 -0.00000000000E+00 -0.00000000000E+00 -0.45593999997E+02  0.45594000000E+02  0.51100000000E-03 0.  1.
         23    2    1    2    0    0  0.17763568394E-14  0.00000000000E+00 -0.17763568394E-14  0.91188000000E+02  0.91188000000E+02 0.  0.
    9900012    2    3    3    0    0 -0.14508935293E+02  0.32457863136E+02 -0.95790468613E+01  0.54367079025E+02  0.39999988254E+02 0.  0.
        -12    1    3    3    0    0  0.14508935293E+02 -0.32457863136E+02  0.95790468613E+01  0.36820920975E+02  0.00000000000E+00 0.  1.
         11    1    4    4    0    0 -0.24287227588E+02  0.19915888560E+02 -0.94861557913E+01  0.32810047135E+02  0.51100000000E-03 0. -1.
        -11    1    4    4    0    0  0.48758980847E+01  0.13932288799E+02  0.36846816453E+01  0.15213807295E+02  0.51100000000E-03 0.  1.
        -12    1    4    4    0    0  0.49023942112E+01 -0.13903142234E+01 -0.37775727153E+01  0.63432245949E+01  0.00000000000E+00 0.  1.
</event>
<event>
 8    1  0.2401501E-006  0.9118800E+02  0.7816164E-02  0.1184000E+00
        -11   -1    0    0    0    0  0.00000000000E+00  0.00000000000E+00  0.45593999997E+02  0.45594000000E+02  0.51100000000E-03 0. -1.
         11   -1    0    0    0    0 -0.00000000000E+00 -0.00000000000E+00 -0.45593999997E+02  0.45594000000E+02  0.51100000000E-03 0.  1.
         23    2    1    2    0    0  0.00000000000E+00  0.35527136788E-14 -0.35527136788E-14  0.91188000000E+02  0.91188000000E+02 0.  0.
    9900012    2    3    3    0    0  0.17542931062E+02 -0.24301359319E+02  0.21388523183E+02  0.54367089922E+02  0.40000013095E+02 0.  0.
        -12    1    3    3    0    0 -0.17542931062E+02  0.24301359319E+02 -0.21388523183E+02  0.36820910078E+02  0.00000000000E+00 0.  1.
         11    1    4    4    0    0  0.18673723877E+02 -0.13684103232E+02  0.18332808076E+02  0.29530568856E+02  0.51100000000E-03 0. -1.
        -11    1    4    4    0    0  0.76496752970E+01 -0.62212995206E+00  0.75771735460E+01  0.10785088643E+02  0.51100000000E-03 0.  1.
        -12    1    4    4    0    0 -0.87804681128E+01 -0.99951261354E+01 -0.45214584388E+01  0.14051432424E+02  0.00000000000E+00 0.  1.
</event>
<event>
 8    1  0.2401501E-006  0.9118800E+02  0.7816164E-02  0.1184000E+00
        -11   -1    0    0    0    0  0.00000000000E+00  0.00000000000E+00  0.45593999997E+02  0.45594000000E+02  0.51100000000E-03 0. -1.
         11   -1    0    0    0    0 -0.00000000000E+00 -0.00000000000E+00 -0.45593999997E+02  0.45594000000E+02  0.51100000000E-03 0.  1.
         23    2    1    2    0    0  0.00000000000E+00  0.71054273576E-14  0.00000000000E+00  0.91188000000E+02  0.91188000000E+02 0.  0.
    9900012    2    3    3    0    0 -0.21833206069E+02  0.23863651114E+02  0.17595924859E+02  0.54367091492E+02  0.40000016673E+02 0.  0.
         12    1    3    3    0    0  0.21833206069E+02 -0.23863651114E+02 -0.17595924859E+02  0.36820908508E+02  0.00000000000E+00 0. -1.
         11    1    4    4    0    0 -0.71739959381E+01  0.14851880532E+02  0.23824304633E+01  0.16664949691E+02  0.51100000000E-03 0. -1.
        -11    1    4    4    0    0 -0.32228989384E+01  0.18621302884E+02  0.12110663650E+02  0.22445671587E+02  0.51100000000E-03 0.  1.
         12    1    4    4    0    0 -0.11436311192E+02 -0.96095323015E+01  0.31028307455E+01  0.15256470213E+02  0.00000000000E+00 0. -1.
</event>
<event>
 8    1  0.2401501E-006  0.9118800E+02  0.7816164E-02  0.1184000E+00
        -11   -1    0    0    0    0  0.00000000000E+00  0.00000000000E+00  0.45593999997E+02  0.45594000000E+02  0.51100000000E-03 0. -1.
         11   -1    0    0    0    0 -0.00000000000E+00 -0.00000000000E+00 -0.45593999997E+02  0.45594000000E+02  0.51100000000E-03 0.  1.
         23    2    1    2    0    0 -0.17763568394E-14 -0.71054273576E-14 -0.88817841970E-15  0.91188000000E+02  0.91188000000E+02 0.  0.
    9900012    2    3    3    0    0  0.11359191782E+02  0.34456707786E+02 -0.62836616246E+01  0.54367077241E+02  0.39999984186E+02 0.  0.
         12    1    3    3    0    0 -0.11359191782E+02 -0.34456707786E+02  0.62836616246E+01  0.36820922759E+02  0.00000000000E+00 0. -1.
         11    1    4    4    0    0  0.67543985534E+01  0.74892123403E+01  0.13362804527E+02  0.16741408136E+02  0.51100000000E-03 0. -1.
        -11    1    4    4    0    0  0.79329151321E+01  0.83418476254E+01 -0.13477847943E+02  0.17724839907E+02  0.51100000000E-03 0.  1.
         12    1    4    4    0    0 -0.33281219038E+01  0.18625647821E+02 -0.61686182091E+01  0.19900829198E+02  0.00000000000E+00 0. -1.
</event>
<event>
 8    1  0.2401501E-006  0.9118800E+02  0.7816164E-02  0.1184000E+00
        -11   -1    0    0    0    0  0.00000000000E+00  0.00000000000E+00  0.45593999997E+02  0.45594000000E+02  0.51100000000E-03 0.  1.
         11   -1    0    0    0    0 -0.00000000000E+00 -0.00000000000E+00 -0.45593999997E+02  0.45594000000E+02  0.51100000000E-03 0. -1.
         23    2    1    2    0    0  0.17763568394E-14 -0.35527136788E-14 -0.71054273576E-14  0.91188000000E+02  0.91188000000E+02 0.  0.
    9900012    2    3    3    0    0  0.65432113442E+01 -0.98633968457E+01 -0.34866593829E+02  0.54367087773E+02  0.40000008196E+02 0.  0.
        -12    1    3    3    0    0 -0.65432113442E+01  0.98633968457E+01  0.34866593829E+02  0.36820912227E+02  0.00000000000E+00 0.  1.
         11    1    4    4    0    0  0.15825068864E+02  0.99267273803E+00 -0.16844298035E+02  0.23133278632E+02  0.51100000000E-03 0. -1.
        -11    1    4    4    0    0  0.56351367111E+01 -0.77100189750E+01 -0.34773663827E+01  0.10163229584E+02  0.51100000000E-03 0.  1.
        -12    1    4    4    0    0 -0.14916994231E+02 -0.31460506087E+01 -0.14544929411E+02  0.21070579558E+02  0.00000000000E+00 0.  1.
</event>
<event>
 8    1  0.2401501E-006  0.9118800E+02  0.7816164E-02  0.1184000E+00
        -11   -1    0    0    0    0  0.00000000000E+00  0.00000000000E+00  0.45593999997E+02  0.45594000000E+02  0.51100000000E-03 0.  1.
         11   -1    0    0    0    0 -0.00000000000E+00 -0.00000000000E+00 -0.45593999997E+02  0.45594000000E+02  0.51100000000E-03 0. -1.
         23    2    1    2    0    0  0.00000000000E+00  0.88817841970E-15  0.00000000000E+00  0.91188000000E+02  0.91188000000E+02 0.  0.
    9900012    2    3    3    0    0 -0.28479134197E+02 -0.64092906613E+01  0.22441929290E+02  0.54367078208E+02  0.39999986391E+02 0.  0.
         12    1    3    3    0    0  0.28479134197E+02  0.64092906613E+01 -0.22441929290E+02  0.36820921792E+02  0.00000000000E+00 0. -1.
         11    1    4    4    0    0 -0.52405599988E+01 -0.60314967905E+01  0.17909759903E+02  0.19611270297E+02  0.51100000000E-03 0. -1.
        -11    1    4    4    0    0 -0.49806823064E+01 -0.66074502146E+01  0.11566900052E+02  0.14221771044E+02  0.51100000000E-03 0.  1.
         12    1    4    4    0    0 -0.18257891891E+02  0.62296563438E+01 -0.70347306651E+01  0.20534036866E+02  0.00000000000E+00 0. -1.
</event>
<event>
 8    1  0.2401501E-006  0.9118800E+02  0.7816164E-02  0.1184000E+00
        -11   -1    0    0    0    0  0.00000000000E+00  0.00000000000E+00  0.45593999997E+02  0.45594000000E+02  0.51100000000E-03 0. -1.
         11   -1    0    0    0    0 -0.00000000000E+00 -0.00000000000E+00 -0.45593999997E+02  0.45594000000E+02  0.51100000000E-03 0.  1.
         23    2    1    2    0    0  0.17763568394E-14  0.00000000000E+00 -0.71054273576E-14  0.91188000000E+02  0.91188000000E+02 0.  0.
    9900012    2    3    3    0    0  0.15296931903E+01 -0.13677919478E+02 -0.34151943586E+02  0.54367072619E+02  0.39999973650E+02 0.  0.
         12    1    3    3    0    0 -0.15296931903E+01  0.13677919478E+02  0.34151943586E+02  0.36820927381E+02  0.00000000000E+00 0. -1.
         11    1    4    4    0    0  0.12841008589E+02  0.28439933437E+00 -0.11934392749E+02  0.17532886673E+02  0.51100000000E-03 0. -1.
        -11    1    4    4    0    0 -0.18425991171E+02 -0.11955485355E+02 -0.15993851395E+02  0.27170831114E+02  0.51100000000E-03 0.  1.
        -12    1    4    4    0    0  0.71146757725E+01 -0.20068334581E+01 -0.62236994413E+01  0.96633548321E+01  0.00000000000E+00 0.  1.
</event>
<event>
 8    1  0.3139487E-006  0.9118800E+02  0.7816164E-02  0.1184000E+00
        -11   -1    0    0    0    0  0.00000000000E+00  0.00000000000E+00  0.45593999997E+02  0.45594000000E+02  0.51100000000E-03 0.  1.
         11   -1    0    0    0    0 -0.00000000000E+00 -0.00000000000E+00 -0.45593999997E+02  0.45594000000E+02  0.51100000000E-03 0. -1.
         23    2    1    2    0    0  0.00000000000E+00  0.00000000000E+00  0.00000000000E+00  0.91188000000E+02  0.91188000000E+02 0.  0.
    9900012    2    3    3    0    0  0.12852291938E+02  0.14695779661E+02  0.31219067592E+02  0.54367115583E+02  0.40000071595E+02 0.  0.
         12    1    3    3    0    0 -0.12852291938E+02 -0.14695779661E+02 -0.31219067592E+02  0.36820884417E+02  0.00000000000E+00 0. -1.
         11    1    4    4    0    0 -0.43296833625E+01  0.59979497953E+01 -0.48241374639E+01  0.88314133805E+01  0.51100000000E-03 0. -1.
        -11    1    4    4    0    0  0.87311897598E+01  0.13097674859E+02  0.12379052504E+02  0.20025576209E+02  0.51100000000E-03 0.  1.
        -12    1    4    4    0    0  0.84507855407E+01 -0.43998449936E+01  0.23664152552E+02  0.25510125994E+02  0.00000000000E+00 0.  1.
</event>
<event>
 8    1  0.2401501E-006  0.9118800E+02  0.7816164E-02  0.1184000E+00
        -11   -1    0    0    0    0  0.00000000000E+00  0.00000000000E+00  0.45593999997E+02  0.45594000000E+02  0.51100000000E-03 0.  1.
         11   -1    0    0    0    0 -0.00000000000E+00 -0.00000000000E+00 -0.45593999997E+02  0.45594000000E+02  0.51100000000E-03 0. -1.
         23    2    1    2    0    0  0.00000000000E+00  0.00000000000E+00  0.35527136788E-14  0.91188000000E+02  0.91188000000E+02 0.  0.
    9900012    2    3    3    0    0  0.11735837638E+02 -0.27320388831E+02 -0.21717421880E+02  0.54367082792E+02  0.39999996841E+02 0.  0.
        -12    1    3    3    0    0 -0.11735837638E+02  0.27320388831E+02  0.21717421880E+02  0.36820917208E+02  0.00000000000E+00 0.  1.
         11    1    4    4    0    0  0.55025508073E+01 -0.22800426241E+01 -0.23499131941E+02  0.24242233024E+02  0.51100000000E-03 0. -1.
        -11    1    4    4    0    0  0.63189403096E+01 -0.98533179579E+01  0.74940328012E+01  0.13898827623E+02  0.51100000000E-03 0.  1.
         12    1    4    4    0    0 -0.85653479277E-01 -0.15187028249E+02 -0.57123227406E+01  0.16226022145E+02  0.00000000000E+00 0. -1.
</event>
<event>
 8    1  0.2401501E-006  0.9118800E+02  0.7816164E-02  0.1184000E+00
        -11   -1    0    0    0    0  0.00000000000E+00  0.00000000000E+00  0.45593999997E+02  0.45594000000E+02  0.51100000000E-03 0.  1.
         11   -1    0    0    0    0 -0.00000000000E+00 -0.00000000000E+00 -0.45593999997E+02  0.45594000000E+02  0.51100000000E-03 0. -1.
         23    2    1    2    0    0  0.35527136788E-14 -0.35527136788E-14  0.00000000000E+00  0.91188000000E+02  0.91188000000E+02 0.  0.
    9900012    2    3    3    0    0  0.18649082460E+02 -0.24811537785E+02 -0.19808570204E+02  0.54367080166E+02  0.39999990854E+02 0.  0.
        -12    1    3    3    0    0 -0.18649082460E+02  0.24811537785E+02  0.19808570204E+02  0.36820919834E+02  0.00000000000E+00 0.  1.
         11    1    4    4    0    0  0.62234881301E+01  0.50437376556E+01 -0.79945863021E+01  0.11317442487E+02  0.51100000000E-03 0. -1.
        -11    1    4    4    0    0 -0.70056777289E+01 -0.12077412608E+02  0.51109456952E+00  0.13971565183E+02  0.51100000000E-03 0.  1.
         12    1    4    4    0    0  0.19431272059E+02 -0.17777862833E+02 -0.12325078472E+02  0.29078072496E+02  0.00000000000E+00 0. -1.
</event>
<event>
 8    1  0.2401501E-006  0.9118800E+02  0.7816164E-02  0.1184000E+00
        -11   -1    0    0    0    0  0.00000000000E+00  0.00000000000E+00  0.45593999997E+02  0.45594000000E+02  0.51100000000E-03 0.  1.
         11   -1    0    0    0    0 -0.00000000000E+00 -0.00000000000E+00 -0.45593999997E+02  0.45594000000E+02  0.51100000000E-03 0. -1.
         23    2    1    2    0    0  0.00000000000E+00  0.35527136788E-14  0.00000000000E+00  0.91188000000E+02  0.91188000000E+02 0.  0.
    9900012    2    3    3    0    0 -0.24909410180E+02  0.25012100305E+02 -0.10473476929E+02  0.54367114675E+02  0.40000069524E+02 0.  0.
        -12    1    3    3    0    0  0.24909410180E+02 -0.25012100305E+02  0.10473476929E+02  0.36820885325E+02  0.00000000000E+00 0.  1.
         11    1    4    4    0    0 -0.14240724120E+02  0.36238447633E+01 -0.11697699462E+02  0.18782083146E+02  0.51100000000E-03 0. -1.
        -11    1    4    4    0    0  0.61157061020E+01  0.55834670853E+01  0.80422005362E+01  0.11543567713E+02  0.51100000000E-03 0.  1.
        -12    1    4    4    0    0 -0.16784392161E+02  0.15804788456E+02 -0.68179780033E+01  0.24041463816E+02  0.00000000000E+00 0.  1.
</event>
<event>
 8    1  0.2401501E-006  0.9118800E+02  0.7816164E-02  0.1184000E+00
        -11   -1    0    0    0    0  0.00000000000E+00  0.00000000000E+00  0.45593999997E+02  0.45594000000E+02  0.51100000000E-03 0.  1.
         11   -1    0    0    0    0 -0.00000000000E+00 -0.00000000000E+00 -0.45593999997E+02  0.45594000000E+02  0.51100000000E-03 0. -1.
         23    2    1    2    0    0  0.00000000000E+00  0.00000000000E+00  0.00000000000E+00  0.91188000000E+02  0.91188000000E+02 0.  0.
    9900012    2    3    3    0    0 -0.16676623640E+02  0.87940033359E+01 -0.31628095798E+02  0.54367072330E+02  0.39999972990E+02 0.  0.
        -12    1    3    3    0    0  0.16676623640E+02 -0.87940033359E+01  0.31628095798E+02  0.36820927670E+02  0.00000000000E+00 0.  1.
         11    1    4    4    0    0  0.16150791718E+01  0.36332835195E+01 -0.96689133517E+01  0.10454526079E+02  0.51100000000E-03 0. -1.
        -11    1    4    4    0    0 -0.21008559605E+01  0.10419577932E+02  0.52202659651E+01  0.11841975218E+02  0.51100000000E-03 0.  1.
         12    1    4    4    0    0 -0.16190846851E+02 -0.52588581157E+01 -0.27179448411E+02  0.32070571033E+02  0.00000000000E+00 0. -1.
</event>
<event>
 8    1  0.2401501E-006  0.9118800E+02  0.7816164E-02  0.1184000E+00
        -11   -1    0    0    0    0  0.00000000000E+00  0.00000000000E+00  0.45593999997E+02  0.45594000000E+02  0.51100000000E-03 0. -1.
         11   -1    0    0    0    0 -0.00000000000E+00 -0.00000000000E+00 -0.45593999997E+02  0.45594000000E+02  0.51100000000E-03 0.  1.
         23    2    1    2    0    0 -0.17763568394E-14  0.17763568394E-14 -0.71054273576E-14  0.91188000000E+02  0.91188000000E+02 0.  0.
    9900012    2    3    3    0    0 -0.14442718830E+02  0.84313429906E+01 -0.32803983812E+02  0.54367068103E+02  0.39999963354E+02 0.  0.
         12    1    3    3    0    0  0.14442718830E+02 -0.84313429906E+01  0.32803983812E+02  0.36820931897E+02  0.00000000000E+00 0. -1.
         11    1    4    4    0    0  0.83644364693E+01 -0.59158113920E+01 -0.22602858618E+02  0.24816322045E+02  0.51100000000E-03 0. -1.
        -11    1    4    4    0    0 -0.13956402314E+02  0.76138438715E+01 -0.92403505071E+01  0.18388470893E+02  0.51100000000E-03 0.  1.
         12    1    4    4    0    0 -0.88507529857E+01  0.67333105111E+01 -0.96077468743E+00  0.11162275165E+02  0.00000000000E+00 0. -1.
</event>
<event>
 8    1  0.2401501E-006  0.9118800E+02  0.7816164E-02  0.1184000E+00
        -11   -1    0    0    0    0  0.00000000000E+00  0.00000000000E+00  0.45593999997E+02  0.45594000000E+02  0.51100000000E-03 0.  1.
         11   -1    0    0    0    0 -0.00000000000E+00 -0.00000000000E+00 -0.45593999997E+02  0.45594000000E+02  0.51100000000E-03 0. -1.
         23    2    1    2    0    0  0.00000000000E+00 -0.35527136788E-14  0.00000000000E+00  0.91188000000E+02  0.91188000000E+02 0.  0.
    9900012    2    3    3    0    0  0.10908500598E+02 -0.10890715870E+02 -0.33439161552E+02  0.54367073847E+02  0.39999976449E+02 0.  0.
        -12    1    3    3    0    0 -0.10908500598E+02  0.10890715870E+02  0.33439161552E+02  0.36820926153E+02  0.00000000000E+00 0.  1.
         11    1    4    4    0    0  0.62238052723E+01 -0.13579495816E+02 -0.38444991993E+01  0.15424611277E+02  0.51100000000E-03 0. -1.
        -11    1    4    4    0    0  0.40684428070E+01  0.12496694855E+02 -0.84464867315E+01  0.15622507722E+02  0.51100000000E-03 0.  1.
        -12    1    4    4    0    0  0.61625251904E+00 -0.98079149082E+01 -0.21148175621E+02  0.23319954848E+02  0.00000000000E+00 0.  1.
</event>
<event>
 8    1  0.2401501E-006  0.9118800E+02  0.7816164E-02  0.1184000E+00
        -11   -1    0    0    0    0  0.00000000000E+00  0.00000000000E+00  0.45593999997E+02  0.45594000000E+02  0.51100000000E-03 0. -1.
         11   -1    0    0    0    0 -0.00000000000E+00 -0.00000000000E+00 -0.45593999997E+02  0.45594000000E+02  0.51100000000E-03 0.  1.
         23    2    1    2    0    0  0.17763568394E-14  0.00000000000E+00  0.00000000000E+00  0.91188000000E+02  0.91188000000E+02 0.  0.
    9900012    2    3    3    0    0  0.12095193161E+02 -0.30566495761E+02  0.16588406755E+02  0.54367087472E+02  0.40000007511E+02 0.  0.
        -12    1    3    3    0    0 -0.12095193161E+02  0.30566495761E+02 -0.16588406755E+02  0.36820912528E+02  0.00000000000E+00 0.  1.
         11    1    4    4    0    0  0.80477740872E+01 -0.51649197179E+01  0.14061550817E+02  0.17005007353E+02  0.51100000000E-03 0. -1.
        -11    1    4    4    0    0 -0.98041164105E+01 -0.20095667777E+02  0.27443307274E+01  0.22527492391E+02  0.51100000000E-03 0.  1.
        -12    1    4    4    0    0  0.13851535484E+02 -0.53059082658E+01 -0.21747478923E+00  0.14834587729E+02  0.00000000000E+00 0.  1.
</event>
<event>
 8    1  0.2401501E-006  0.9118800E+02  0.7816164E-02  0.1184000E+00
        -11   -1    0    0    0    0  0.00000000000E+00  0.00000000000E+00  0.45593999997E+02  0.45594000000E+02  0.51100000000E-03 0. -1.
         11   -1    0    0    0    0 -0.00000000000E+00 -0.00000000000E+00 -0.45593999997E+02  0.45594000000E+02  0.51100000000E-03 0.  1.
         23    2    1    2    0    0 -0.17763568394E-14  0.00000000000E+00  0.00000000000E+00  0.91188000000E+02  0.91188000000E+02 0.  0.
    9900012    2    3    3    0    0  0.12083852189E+02 -0.27815384193E+02 -0.20882063831E+02  0.54367140811E+02  0.40000129107E+02 0.  0.
         12    1    3    3    0    0 -0.12083852189E+02  0.27815384193E+02  0.20882063831E+02  0.36820859189E+02  0.00000000000E+00 0. -1.
         11    1    4    4    0    0 -0.92114621567E+01 -0.68548681482E+01  0.10754753034E+01  0.11532428182E+02  0.51100000000E-03 0. -1.
        -11    1    4    4    0    0  0.17810878943E+02 -0.10976175286E+02 -0.24236163795E+02  0.32017112118E+02  0.51100000000E-03 0.  1.
        -12    1    4    4    0    0  0.34844354034E+01 -0.99843407592E+01  0.22786246602E+01  0.10817600511E+02  0.00000000000E+00 0.  1.
</event>
<event>
 8    1  0.2401501E-006  0.9118800E+02  0.7816164E-02  0.1184000E+00
        -11   -1    0    0    0    0  0.00000000000E+00  0.00000000000E+00  0.45593999997E+02  0.45594000000E+02  0.51100000000E-03 0. -1.
         11   -1    0    0    0    0 -0.00000000000E+00 -0.00000000000E+00 -0.45593999997E+02  0.45594000000E+02  0.51100000000E-03 0.  1.
         23    2    1    2    0    0 -0.35527136788E-14 -0.35527136788E-14 -0.35527136788E-14  0.91188000000E+02  0.91188000000E+02 0.  0.
    9900012    2    3    3    0    0  0.22591089358E+02  0.20941791638E+02  0.20170861737E+02  0.54367087211E+02  0.40000006914E+02 0.  0.
         12    1    3    3    0    0 -0.22591089358E+02 -0.20941791638E+02 -0.20170861737E+02  0.36820912789E+02  0.00000000000E+00 0. -1.
         11    1    4    4    0    0 -0.26534091926E+01 -0.24815354611E-01  0.59281419310E+00  0.27189382254E+01  0.51100000000E-03 0.  1.
        -11    1    4    4    0    0  0.25855939395E+02 -0.35204743222E+00  0.66181245934E+01  0.26691817338E+02  0.51100000000E-03 0. -1.
         12    1    4    4    0    0 -0.61144084423E+00  0.21318654425E+02  0.12959922951E+02  0.24956331648E+02  0.00000000000E+00 0. -1.
</event>
<event>
 8    1  0.2401501E-006  0.9118800E+02  0.7816164E-02  0.1184000E+00
        -11   -1    0    0    0    0  0.00000000000E+00  0.00000000000E+00  0.45593999997E+02  0.45594000000E+02  0.51100000000E-03 0.  1.
         11   -1    0    0    0    0 -0.00000000000E+00 -0.00000000000E+00 -0.45593999997E+02  0.45594000000E+02  0.51100000000E-03 0. -1.
         23    2    1    2    0    0  0.00000000000E+00 -0.88817841970E-15 -0.35527136788E-14  0.91188000000E+02  0.91188000000E+02 0.  0.
    9900012    2    3    3    0    0  0.23048479480E+02 -0.30576729762E+01  0.28551661044E+02  0.54367093999E+02  0.40000022389E+02 0.  0.
         12    1    3    3    0    0 -0.23048479480E+02  0.30576729762E+01 -0.28551661044E+02  0.36820906001E+02  0.00000000000E+00 0. -1.
         11    1    4    4    0    0 -0.48221078177E+01 -0.13296583889E+02  0.55452137585E+01  0.15192144773E+02  0.51100000000E-03 0. -1.
        -11    1    4    4    0    0  0.15866116287E+02  0.68647301537E+01  0.19829063567E+02  0.26306841854E+02  0.51100000000E-03 0.  1.
        -12    1    4    4    0    0  0.12004471010E+02  0.33741807588E+01  0.31773837189E+01  0.12868107372E+02  0.00000000000E+00 0.  1.
</event>
<event>
 8    1  0.2401501E-006  0.9118800E+02  0.7816164E-02  0.1184000E+00
        -11   -1    0    0    0    0  0.00000000000E+00  0.00000000000E+00  0.45593999997E+02  0.45594000000E+02  0.51100000000E-03 0.  1.
         11   -1    0    0    0    0 -0.00000000000E+00 -0.00000000000E+00 -0.45593999997E+02  0.45594000000E+02  0.51100000000E-03 0. -1.
         23    2    1    2    0    0 -0.35527136788E-14  0.00000000000E+00  0.00000000000E+00  0.91188000000E+02  0.91188000000E+02 0.  0.
    9900012    2    3    3    0    0 -0.24052005350E+02  0.21774576964E+02 -0.17411156528E+02  0.54367088347E+02  0.40000009505E+02 0.  0.
         12    1    3    3    0    0  0.24052005350E+02 -0.21774576964E+02  0.17411156528E+02  0.36820911653E+02  0.00000000000E+00 0. -1.
         11    1    4    4    0    0  0.37243030195E+01  0.15617804155E+02 -0.85107743558E+01  0.18171943209E+02  0.51100000000E-03 0. -1.
        -11    1    4    4    0    0 -0.15493868059E+01  0.36118031777E+01  0.50348333546E+01  0.63871174123E+01  0.51100000000E-03 0.  1.
         12    1    4    4    0    0 -0.26226921563E+02  0.25449696314E+01 -0.13935215527E+02  0.29808027726E+02  0.00000000000E+00 0. -1.
</event>
<event>
 8    1  0.2401501E-006  0.9118800E+02  0.7816164E-02  0.1184000E+00
        -11   -1    0    0    0    0  0.00000000000E+00  0.00000000000E+00  0.45593999997E+02  0.45594000000E+02  0.51100000000E-03 0. -1.
         11   -1    0    0    0    0 -0.00000000000E+00 -0.00000000000E+00 -0.45593999997E+02  0.45594000000E+02  0.51100000000E-03 0.  1.
         23    2    1    2    0    0  0.88817841970E-15 -0.88817841970E-15  0.71054273576E-14  0.91188000000E+02  0.91188000000E+02 0.  0.
    9900012    2    3    3    0    0 -0.62411014187E+01  0.60040130447E+01 -0.35787978303E+02  0.54367096825E+02  0.40000028833E+02 0.  0.
         12    1    3    3    0    0  0.62411014187E+01 -0.60040130447E+01  0.35787978303E+02  0.36820903175E+02  0.00000000000E+00 0. -1.
         11    1    4    4    0    0  0.10243815988E+02  0.43496852055E+01 -0.12311731835E+02  0.16596212472E+02  0.51100000000E-03 0. -1.
        -11    1    4    4    0    0 -0.11404395482E+02  0.37196095757E+01  0.16000362285E+01  0.12101894393E+02  0.51100000000E-03 0.  1.
        -12    1    4    4    0    0 -0.50805219243E+01 -0.20652817366E+01 -0.25076282697E+02  0.25668989960E+02  0.00000000000E+00 0.  1.
</event>
<event>
 8    1  0.2401501E-006  0.9118800E+02  0.7816164E-02  0.1184000E+00
        -11   -1    0    0    0    0  0.00000000000E+00  0.00000000000E+00  0.45593999997E+02  0.45594000000E+02  0.51100000000E-03 0.  1.
         11   -1    0    0    0    0 -0.00000000000E+00 -0.00000000000E+00 -0.45593999997E+02  0.45594000000E+02  0.51100000000E-03 0. -1.
         23    2    1    2    0    0  0.17763568394E-14  0.00000000000E+00  0.00000000000E+00  0.91188000000E+02  0.91188000000E+02 0.  0.
    9900012    2    3    3    0    0  0.11353300234E+02  0.34317461989E+02  0.70138792009E+01  0.54367080334E+02  0.39999991238E+02 0.  0.
         12    1    3    3    0    0 -0.11353300234E+02 -0.34317461989E+02 -0.70138792009E+01  0.36820919666E+02  0.00000000000E+00 0. -1.
         11    1    4    4    0    0 -0.27120782909E+01  0.48753978555E+01  0.20092306723E+01  0.59297454466E+01  0.51100000000E-03 0. -1.
        -11    1    4    4    0    0 -0.10509062691E+02  0.17007100408E+02 -0.17842252517E+01  0.20071505248E+02  0.51100000000E-03 0.  1.
        -12    1    4    4    0    0  0.24574441216E+02  0.12434963726E+02  0.67888737803E+01  0.28365829640E+02  0.00000000000E+00 0.  1.
</event>
<event>
 8    1  0.2401501E-006  0.9118800E+02  0.7816164E-02  0.1184000E+00
        -11   -1    0    0    0    0  0.00000000000E+00  0.00000000000E+00  0.45593999997E+02  0.45594000000E+02  0.51100000000E-03 0. -1.
         11   -1    0    0    0    0 -0.00000000000E+00 -0.00000000000E+00 -0.45593999997E+02  0.45594000000E+02  0.51100000000E-03 0.  1.
         23    2    1    2    0    0  0.00000000000E+00 -0.35527136788E-14  0.00000000000E+00  0.91188000000E+02  0.91188000000E+02 0.  0.
    9900012    2    3    3    0    0  0.16609526233E+02 -0.17344314339E+02 -0.27911956409E+02  0.54367096805E+02  0.40000028785E+02 0.  0.
         12    1    3    3    0    0 -0.16609526233E+02  0.17344314339E+02  0.27911956409E+02  0.36820903195E+02  0.00000000000E+00 0. -1.
         11    1    4    4    0    0  0.71025009680E+01 -0.37855727353E+01 -0.62991092962E+01  0.10220315999E+02  0.51100000000E-03 0. -1.
        -11    1    4    4    0    0  0.18058263766E+02 -0.20523326789E+02 -0.17004587867E+02  0.32194158500E+02  0.51100000000E-03 0.  1.
         12    1    4    4    0    0 -0.85512385008E+01  0.69645851857E+01 -0.46082592452E+01  0.11952622305E+02  0.00000000000E+00 0. -1.
</event>
<event>
 8    1  0.2401501E-006  0.9118800E+02  0.7816164E-02  0.1184000E+00
        -11   -1    0    0    0    0  0.00000000000E+00  0.00000000000E+00  0.45593999997E+02  0.45594000000E+02  0.51100000000E-03 0. -1.
         11   -1    0    0    0    0 -0.00000000000E+00 -0.00000000000E+00 -0.45593999997E+02  0.45594000000E+02  0.51100000000E-03 0.  1.
         23    2    1    2    0    0  0.00000000000E+00 -0.35527136788E-14  0.00000000000E+00  0.91188000000E+02  0.91188000000E+02 0.  0.
    9900012    2    3    3    0    0 -0.93618966736E+01  0.27474859991E+02  0.22655377001E+02  0.54367093603E+02  0.40000021487E+02 0.  0.
        -12    1    3    3    0    0  0.93618966736E+01 -0.27474859991E+02 -0.22655377001E+02  0.36820906397E+02  0.00000000000E+00 0.  1.
         11    1    4    4    0    0 -0.15945648205E+02  0.21676447005E+02  0.18263928157E+02  0.32522348061E+02  0.51100000000E-03 0. -1.
        -11    1    4    4    0    0  0.97158651405E+01  0.11390166240E+02  0.34894714849E+01  0.15372388686E+02  0.51100000000E-03 0.  1.
         12    1    4    4    0    0 -0.31321136095E+01 -0.55917532544E+01  0.90197735932E+00  0.64723568565E+01  0.00000000000E+00 0. -1.
</event>
<event>
 8    1  0.2401501E-006  0.9118800E+02  0.7816164E-02  0.1184000E+00
        -11   -1    0    0    0    0  0.00000000000E+00  0.00000000000E+00  0.45593999997E+02  0.45594000000E+02  0.51100000000E-03 0.  1.
         11   -1    0    0    0    0 -0.00000000000E+00 -0.00000000000E+00 -0.45593999997E+02  0.45594000000E+02  0.51100000000E-03 0. -1.
         23    2    1    2    0    0  0.17763568394E-14  0.00000000000E+00 -0.17763568394E-14  0.91188000000E+02  0.91188000000E+02 0.  0.
    9900012    2    3    3    0    0 -0.11333496051E+02 -0.33831744861E+02  0.90964161485E+01  0.54367083664E+02  0.39999998829E+02 0.  0.
         12    1    3    3    0    0  0.11333496051E+02  0.33831744861E+02 -0.90964161485E+01  0.36820916336E+02  0.00000000000E+00 0. -1.
         11    1    4    4    0    0 -0.95766449334E+00  0.76341692425E+01  0.28493626375E+01  0.82046650758E+01  0.51100000000E-03 0. -1.
        -11    1    4    4    0    0  0.33322712205E+01 -0.11320885817E+02  0.55464294526E+01  0.13039530939E+02  0.51100000000E-03 0.  1.
         12    1    4    4    0    0 -0.13708102778E+02 -0.30145028286E+02  0.70062405835E+00  0.33122887649E+02  0.00000000000E+00 0. -1.
</event>
<event>
 8    1  0.2401501E-006  0.9118800E+02  0.7816164E-02  0.1184000E+00
        -11   -1    0    0    0    0  0.00000000000E+00  0.00000000000E+00  0.45593999997E+02  0.45594000000E+02  0.51100000000E-03 0. -1.
         11   -1    0    0    0    0 -0.00000000000E+00 -0.00000000000E+00 -0.45593999997E+02  0.45594000000E+02  0.51100000000E-03 0.  1.
         23    2    1    2    0    0 -0.17763568394E-14  0.00000000000E+00 -0.17763568394E-14  0.91188000000E+02  0.91188000000E+02 0.  0.
    9900012    2    3    3    0    0  0.55339022608E+01  0.35734251615E+02  0.69440419692E+01  0.54367074814E+02  0.39999978653E+02 0.  0.
        -12    1    3    3    0    0 -0.55339022608E+01 -0.35734251615E+02 -0.69440419692E+01  0.36820925186E+02  0.00000000000E+00 0.  1.
         11    1    4    4    0    0 -0.59475213745E+01  0.89588977205E+01  0.13259626158E+01  0.10834806689E+02  0.51100000000E-03 0. -1.
        -11    1    4    4    0    0 -0.93608646698E+01  0.17244854397E+02 -0.10924992032E+01  0.19652082468E+02  0.51100000000E-03 0.  1.
         12    1    4    4    0    0  0.20842288305E+02  0.95304994968E+01  0.67105785566E+01  0.23880185657E+02  0.00000000000E+00 0. -1.
</event>
<event>
 8    1  0.2401501E-006  0.9118800E+02  0.7816164E-02  0.1184000E+00
        -11   -1    0    0    0    0  0.00000000000E+00  0.00000000000E+00  0.45593999997E+02  0.45594000000E+02  0.51100000000E-03 0.  1.
         11   -1    0    0    0    0 -0.00000000000E+00 -0.00000000000E+00 -0.45593999997E+02  0.45594000000E+02  0.51100000000E-03 0. -1.
         23    2    1    2    0    0  0.88817841970E-15  0.00000000000E+00  0.00000000000E+00  0.91188000000E+02  0.91188000000E+02 0.  0.
    9900012    2    3    3    0    0  0.74657054144E+01  0.53683087216E+01 -0.35654233469E+02  0.54367083932E+02  0.39999999440E+02 0.  0.
        -12    1    3    3    0    0 -0.74657054144E+01 -0.53683087216E+01  0.35654233469E+02  0.36820916068E+02  0.00000000000E+00 0.  1.
         11    1    4    4    0    0  0.18080182492E+02  0.10632352561E+02 -0.26025955811E+02  0.33425892600E+02  0.51100000000E-03 0. -1.
        -11    1    4    4    0    0 -0.39905037752E+01 -0.81818939725E+01 -0.10210997226E+02  0.13679618926E+02  0.51100000000E-03 0.  1.
        -12    1    4    4    0    0 -0.66239733024E+01  0.29178501329E+01  0.58271956918E+00  0.72615724058E+01  0.00000000000E+00 0.  1.
</event>
<event>
 8    1  0.2401501E-006  0.9118800E+02  0.7816164E-02  0.1184000E+00
        -11   -1    0    0    0    0  0.00000000000E+00  0.00000000000E+00  0.45593999997E+02  0.45594000000E+02  0.51100000000E-03 0.  1.
         11   -1    0    0    0    0 -0.00000000000E+00 -0.00000000000E+00 -0.45593999997E+02  0.45594000000E+02  0.51100000000E-03 0. -1.
         23    2    1    2    0    0  0.71054273576E-14  0.00000000000E+00  0.00000000000E+00  0.91188000000E+02  0.91188000000E+02 0.  0.
    9900012    2    3    3    0    0 -0.33610283296E+02 -0.14246391058E+02 -0.48135285457E+01  0.54367070375E+02  0.39999968533E+02 0.  0.
        -12    1    3    3    0    0  0.33610283296E+02  0.14246391058E+02  0.48135285457E+01  0.36820929625E+02  0.00000000000E+00 0.  1.
         11    1    4    4    0    0 -0.46346378734E+01 -0.73638629693E+01 -0.11777244806E+02  0.14642740233E+02  0.51100000000E-03 0.  1.
        -11    1    4    4    0    0 -0.20712157510E+02  0.15724264159E+01 -0.65396011709E+01  0.21776877124E+02  0.51100000000E-03 0. -1.
         12    1    4    4    0    0 -0.82634879126E+01 -0.84549545048E+01  0.13503317431E+02  0.17947453017E+02  0.00000000000E+00 0. -1.
</event>
<event>
 8    1  0.2401501E-006  0.9118800E+02  0.7816164E-02  0.1184000E+00
        -11   -1    0    0    0    0  0.00000000000E+00  0.00000000000E+00  0.45593999997E+02  0.45594000000E+02  0.51100000000E-03 0. -1.
         11   -1    0    0    0    0 -0.00000000000E+00 -0.00000000000E+00 -0.45593999997E+02  0.45594000000E+02  0.51100000000E-03 0.  1.
         23    2    1    2    0    0  0.00000000000E+00 -0.17763568394E-14  0.00000000000E+00  0.91188000000E+02  0.91188000000E+02 0.  0.
    9900012    2    3    3    0    0 -0.27434722589E+02 -0.29209759512E+01  0.24384067239E+02  0.54367097795E+02  0.40000031044E+02 0.  0.
        -12    1    3    3    0    0  0.27434722589E+02  0.29209759512E+01 -0.24384067239E+02  0.36820902205E+02  0.00000000000E+00 0.  1.
         11    1    4    4    0    0 -0.47899325589E+01 -0.12328747515E+02  0.26533202431E+02  0.29647129721E+02  0.51100000000E-03 0. -1.
        -11    1    4    4    0    0 -0.14095340685E+02  0.47078177570E+01 -0.96228567743E+00  0.14891882724E+02  0.51100000000E-03 0.  1.
         12    1    4    4    0    0 -0.85494493448E+01  0.46999538067E+01 -0.11868495144E+01  0.98280853504E+01  0.00000000000E+00 0. -1.
</event>
<event>
 8    1  0.2401501E-006  0.9118800E+02  0.7816164E-02  0.1184000E+00
        -11   -1    0    0    0    0  0.00000000000E+00  0.00000000000E+00  0.45593999997E+02  0.45594000000E+02  0.51100000000E-03 0. -1.
         11   -1    0    0    0    0 -0.00000000000E+00 -0.00000000000E+00 -0.45593999997E+02  0.45594000000E+02  0.51100000000E-03 0.  1.
         23    2    1    2    0    0 -0.17763568394E-14  0.00000000000E+00  0.00000000000E+00  0.91188000000E+02  0.91188000000E+02 0.  0.
    9900012    2    3    3    0    0 -0.15407901416E+02  0.28112029936E+02  0.18113234018E+02  0.54367096973E+02  0.40000029168E+02 0.  0.
        -12    1    3    3    0    0  0.15407901416E+02 -0.28112029936E+02 -0.18113234018E+02  0.36820903027E+02  0.00000000000E+00 0.  1.
         11    1    4    4    0    0 -0.22442251694E+02  0.54646973568E+01  0.14459987741E+02  0.27250849969E+02  0.51100000000E-03 0. -1.
        -11    1    4    4    0    0 -0.44474658510E+00  0.18121708755E+02  0.24276650430E+01  0.18289004498E+02  0.51100000000E-03 0.  1.
         12    1    4    4    0    0  0.74790968630E+01  0.45256238245E+01  0.12255812339E+01  0.88272425053E+01  0.00000000000E+00 0. -1.
</event>
<event>
 8    1  0.2401501E-006  0.9118800E+02  0.7816164E-02  0.1184000E+00
        -11   -1    0    0    0    0  0.00000000000E+00  0.00000000000E+00  0.45593999997E+02  0.45594000000E+02  0.51100000000E-03 0.  1.
         11   -1    0    0    0    0 -0.00000000000E+00 -0.00000000000E+00 -0.45593999997E+02  0.45594000000E+02  0.51100000000E-03 0. -1.
         23    2    1    2    0    0  0.00000000000E+00  0.17763568394E-14  0.17763568394E-14  0.91188000000E+02  0.91188000000E+02 0.  0.
    9900012    2    3    3    0    0 -0.32185673200E+02 -0.14008306515E+02  0.11119248439E+02  0.54366974803E+02  0.39999750657E+02 0.  0.
         12    1    3    3    0    0  0.32185673200E+02  0.14008306515E+02 -0.11119248439E+02  0.36821025197E+02  0.00000000000E+00 0. -1.
         11    1    4    4    0    0  0.14140860210E+01  0.40787880434E+01  0.61979270598E+00  0.43612262538E+01  0.51100000000E-03 0. -1.
        -11    1    4    4    0    0 -0.11756205188E+02  0.31177053495E-01 -0.96424085917E+01  0.15204781358E+02  0.51100000000E-03 0.  1.
        -12    1    4    4    0    0 -0.21843554033E+02 -0.18118271612E+02  0.20141864324E+02  0.34800967191E+02  0.00000000000E+00 0.  1.
</event>
<event>
 8    1  0.2401501E-006  0.9118800E+02  0.7816164E-02  0.1184000E+00
        -11   -1    0    0    0    0  0.00000000000E+00  0.00000000000E+00  0.45593999997E+02  0.45594000000E+02  0.51100000000E-03 0. -1.
         11   -1    0    0    0    0 -0.00000000000E+00 -0.00000000000E+00 -0.45593999997E+02  0.45594000000E+02  0.51100000000E-03 0.  1.
         23    2    1    2    0    0  0.00000000000E+00  0.35527136788E-14  0.00000000000E+00  0.91188000000E+02  0.91188000000E+02 0.  0.
    9900012    2    3    3    0    0  0.95063953324E+01  0.24971967131E+02  0.25333967001E+02  0.54367074174E+02  0.39999977195E+02 0.  0.
        -12    1    3    3    0    0 -0.95063953324E+01 -0.24971967131E+02 -0.25333967001E+02  0.36820925826E+02  0.00000000000E+00 0.  1.
         11    1    4    4    0    0 -0.36675075118E+01 -0.75429329488E+01  0.56525871006E+00  0.84063051627E+01  0.51100000000E-03 0. -1.
        -11    1    4    4    0    0 -0.13965131544E+01 -0.99041254151E+00 -0.17613488827E+00  0.17211013197E+01  0.51100000000E-03 0.  1.
         12    1    4    4    0    0  0.14570415999E+02  0.33505312622E+02  0.24944843180E+02  0.44239667692E+02  0.00000000000E+00 0. -1.
</event>
<event>
 8    1  0.2401501E-006  0.9118800E+02  0.7816164E-02  0.1184000E+00
        -11   -1    0    0    0    0  0.00000000000E+00  0.00000000000E+00  0.45593999997E+02  0.45594000000E+02  0.51100000000E-03 0.  1.
         11   -1    0    0    0    0 -0.00000000000E+00 -0.00000000000E+00 -0.45593999997E+02  0.45594000000E+02  0.51100000000E-03 0. -1.
         23    2    1    2    0    0  0.35527136788E-14  0.00000000000E+00  0.44408920985E-15  0.91188000000E+02  0.91188000000E+02 0.  0.
    9900012    2    3    3    0    0  0.30690636648E+02 -0.20211212801E+02  0.23176556020E+01  0.54367084365E+02  0.40000000427E+02 0.  0.
         12    1    3    3    0    0 -0.30690636648E+02  0.20211212801E+02 -0.23176556020E+01  0.36820915635E+02  0.00000000000E+00 0. -1.
         11    1    4    4    0    0 -0.40342483223E+00 -0.99525903361E+01  0.69153490207E+00  0.99847396949E+01  0.51100000000E-03 0. -1.
        -11    1    4    4    0    0  0.24316481819E+01 -0.40317827458E+01  0.12299363263E+02  0.13169757854E+02  0.51100000000E-03 0.  1.
        -12    1    4    4    0    0  0.28662413298E+02 -0.62268397190E+01 -0.10673242563E+02  0.31212586816E+02  0.00000000000E+00 0.  1.
</event>
<event>
 8    1  0.2401501E-006  0.9118800E+02  0.7816164E-02  0.1184000E+00
        -11   -1    0    0    0    0  0.00000000000E+00  0.00000000000E+00  0.45593999997E+02  0.45594000000E+02  0.51100000000E-03 0.  1.
         11   -1    0    0    0    0 -0.00000000000E+00 -0.00000000000E+00 -0.45593999997E+02  0.45594000000E+02  0.51100000000E-03 0. -1.
         23    2    1    2    0    0 -0.17763568394E-14 -0.13322676296E-14  0.00000000000E+00  0.91188000000E+02  0.91188000000E+02 0.  0.
    9900012    2    3    3    0    0 -0.12825240061E+02  0.30726639336E+01  0.34378091269E+02  0.54367065662E+02  0.39999957789E+02 0.  0.
         12    1    3    3    0    0  0.12825240061E+02 -0.30726639336E+01 -0.34378091269E+02  0.36820934338E+02  0.00000000000E+00 0. -1.
         11    1    4    4    0    0 -0.36568572176E+01 -0.10241454203E+01 -0.34851328077E+01  0.51543796426E+01  0.51100000000E-03 0. -1.
        -11    1    4    4    0    0 -0.12072818459E+01  0.81769621430E+01  0.39293370303E+02  0.40153321025E+02  0.51100000000E-03 0.  1.
        -12    1    4    4    0    0 -0.79611009972E+01 -0.40801527891E+01 -0.14301462263E+01  0.90593649942E+01  0.00000000000E+00 0.  1.
</event>
<event>
 8    1  0.2401501E-006  0.9118800E+02  0.7816164E-02  0.1184000E+00
        -11   -1    0    0    0    0  0.00000000000E+00  0.00000000000E+00  0.45593999997E+02  0.45594000000E+02  0.51100000000E-03 0. -1.
         11   -1    0    0    0    0 -0.00000000000E+00 -0.00000000000E+00 -0.45593999997E+02  0.45594000000E+02  0.51100000000E-03 0.  1.
         23    2    1    2    0    0  0.00000000000E+00  0.00000000000E+00  0.00000000000E+00  0.91188000000E+02  0.91188000000E+02 0.  0.
    9900012    2    3    3    0    0 -0.15969968123E+02  0.23097671150E+02  0.23816749027E+02  0.54367084359E+02  0.40000000413E+02 0.  0.
         12    1    3    3    0    0  0.15969968123E+02 -0.23097671150E+02 -0.23816749027E+02  0.36820915641E+02  0.00000000000E+00 0. -1.
         11    1    4    4    0    0 -0.29632639958E+01  0.94077273039E+01  0.29701657018E+02  0.31296560457E+02  0.51100000000E-03 0. -1.
        -11    1    4    4    0    0 -0.64130310874E+01 -0.50751874584E+00 -0.26549350953E+00  0.64385580739E+01  0.51100000000E-03 0.  1.
        -12    1    4    4    0    0 -0.65936730402E+01  0.14197462592E+02 -0.56194144814E+01  0.16631965828E+02  0.00000000000E+00 0.  1.
</event>
<event>
 8    1  0.2401501E-006  0.9118800E+02  0.7816164E-02  0.1184000E+00
        -11   -1    0    0    0    0  0.00000000000E+00  0.00000000000E+00  0.45593999997E+02  0.45594000000E+02  0.51100000000E-03 0. -1.
         11   -1    0    0    0    0 -0.00000000000E+00 -0.00000000000E+00 -0.45593999997E+02  0.45594000000E+02  0.51100000000E-03 0.  1.
         23    2    1    2    0    0  0.00000000000E+00  0.00000000000E+00  0.00000000000E+00  0.91188000000E+02  0.91188000000E+02 0.  0.
    9900012    2    3    3    0    0 -0.31982236288E+02 -0.17533638452E+02  0.50485303288E+01  0.54367087819E+02  0.40000008302E+02 0.  0.
        -12    1    3    3    0    0  0.31982236288E+02  0.17533638452E+02 -0.50485303288E+01  0.36820912181E+02  0.00000000000E+00 0.  1.
         11    1    4    4    0    0  0.10755525847E+01  0.22103991576E+01 -0.49315384853E+01  0.55102404568E+01  0.51100000000E-03 0. -1.
        -11    1    4    4    0    0 -0.14850627342E+02 -0.22612350661E+02 -0.15815850408E+01  0.27099094937E+02  0.51100000000E-03 0.  1.
         12    1    4    4    0    0 -0.18207161531E+02  0.28683130522E+01  0.11561653855E+02  0.21757752426E+02  0.00000000000E+00 0. -1.
</event>
<event>
 8    1  0.2401501E-006  0.9118800E+02  0.7816164E-02  0.1184000E+00
        -11   -1    0    0    0    0  0.00000000000E+00  0.00000000000E+00  0.45593999997E+02  0.45594000000E+02  0.51100000000E-03 0.  1.
         11   -1    0    0    0    0 -0.00000000000E+00 -0.00000000000E+00 -0.45593999997E+02  0.45594000000E+02  0.51100000000E-03 0. -1.
         23    2    1    2    0    0 -0.88817841970E-15 -0.35527136788E-14  0.35527136788E-14  0.91188000000E+02  0.91188000000E+02 0.  0.
    9900012    2    3    3    0    0  0.39198311816E+01 -0.24866927285E+02 -0.26871156646E+02  0.54366970566E+02  0.39999740998E+02 0.  0.
        -12    1    3    3    0    0 -0.39198311816E+01  0.24866927285E+02  0.26871156646E+02  0.36821029434E+02  0.00000000000E+00 0.  1.
         11    1    4    4    0    0  0.91313488027E+01  0.35897200558E+01 -0.37997499860E+00  0.98189613655E+01  0.51100000000E-03 0. -1.
        -11    1    4    4    0    0  0.72354751405E+00 -0.18580033200E+02 -0.36271837881E+01  0.18944593351E+02  0.51100000000E-03 0.  1.
         12    1    4    4    0    0 -0.59350651352E+01 -0.98766141404E+01 -0.22863997860E+02  0.25603415850E+02  0.00000000000E+00 0. -1.
</event>
<event>
 8    1  0.2401501E-006  0.9118800E+02  0.7816164E-02  0.1184000E+00
        -11   -1    0    0    0    0  0.00000000000E+00  0.00000000000E+00  0.45593999997E+02  0.45594000000E+02  0.51100000000E-03 0.  1.
         11   -1    0    0    0    0 -0.00000000000E+00 -0.00000000000E+00 -0.45593999997E+02  0.45594000000E+02  0.51100000000E-03 0. -1.
         23    2    1    2    0    0  0.00000000000E+00  0.88817841970E-15  0.17763568394E-14  0.91188000000E+02  0.91188000000E+02 0.  0.
    9900012    2    3    3    0    0  0.34026560810E+02 -0.68059171871E+01 -0.12314422786E+02  0.54367185807E+02  0.40000231683E+02 0.  0.
        -12    1    3    3    0    0 -0.34026560810E+02  0.68059171871E+01  0.12314422786E+02  0.36820814193E+02  0.00000000000E+00 0.  1.
         11    1    4    4    0    0  0.12851179478E+02  0.12071318781E+02 -0.98130858059E+01  0.20178359804E+02  0.51100000000E-03 0. -1.
        -11    1    4    4    0    0  0.23936710049E+02 -0.12855669393E+02 -0.18524387333E+00  0.27171099335E+02  0.51100000000E-03 0.  1.
        -12    1    4    4    0    0 -0.27613287171E+01 -0.60215665753E+01 -0.23160931064E+01  0.70177266677E+01  0.00000000000E+00 0.  1.
</event>
<event>
 8    1  0.2401501E-006  0.9118800E+02  0.7816164E-02  0.1184000E+00
        -11   -1    0    0    0    0  0.00000000000E+00  0.00000000000E+00  0.45593999997E+02  0.45594000000E+02  0.51100000000E-03 0. -1.
         11   -1    0    0    0    0 -0.00000000000E+00 -0.00000000000E+00 -0.45593999997E+02  0.45594000000E+02  0.51100000000E-03 0.  1.
         23    2    1    2    0    0  0.00000000000E+00 -0.35527136788E-14  0.00000000000E+00  0.91188000000E+02  0.91188000000E+02 0.  0.
    9900012    2    3    3    0    0 -0.28059026883E+02 -0.23077152249E+02  0.59930497318E+01  0.54367074012E+02  0.39999976825E+02 0.  0.
         12    1    3    3    0    0  0.28059026883E+02  0.23077152249E+02 -0.59930497318E+01  0.36820925988E+02  0.00000000000E+00 0. -1.
         11    1    4    4    0    0 -0.18535868483E+02 -0.14323396394E+02  0.10108330895E+02  0.25513064465E+02  0.51100000000E-03 0. -1.
        -11    1    4    4    0    0  0.80684589210E+01 -0.67481998068E+01  0.58642020925E+00  0.10534805120E+02  0.51100000000E-03 0.  1.
        -12    1    4    4    0    0 -0.17591617321E+02 -0.20055560488E+01 -0.47017013725E+01  0.18319204427E+02  0.00000000000E+00 0.  1.
</event>
<event>
 8    1  0.2401501E-006  0.9118800E+02  0.7816164E-02  0.1184000E+00
        -11   -1    0    0    0    0  0.00000000000E+00  0.00000000000E+00  0.45593999997E+02  0.45594000000E+02  0.51100000000E-03 0.  1.
         11   -1    0    0    0    0 -0.00000000000E+00 -0.00000000000E+00 -0.45593999997E+02  0.45594000000E+02  0.51100000000E-03 0. -1.
         23    2    1    2    0    0  0.13322676296E-14  0.35527136788E-14  0.00000000000E+00  0.91188000000E+02  0.91188000000E+02 0.  0.
    9900012    2    3    3    0    0  0.34463364046E+01 -0.27558726151E+02 -0.24174755115E+02  0.54367090090E+02  0.40000013479E+02 0.  0.
        -12    1    3    3    0    0 -0.34463364046E+01  0.27558726151E+02  0.24174755115E+02  0.36820909910E+02  0.00000000000E+00 0.  1.
         11    1    4    4    0    0  0.87342872303E+01  0.16509545832E+01 -0.98597837869E+00  0.89434656639E+01  0.51100000000E-03 0. -1.
        -11    1    4    4    0    0 -0.61550063006E+01 -0.10452280217E+01 -0.14738141995E+02  0.16005918715E+02  0.51100000000E-03 0.  1.
        -12    1    4    4    0    0  0.86705547497E+00 -0.28164452713E+02 -0.84506347417E+01  0.29417705712E+02  0.00000000000E+00 0.  1.
</event>
<event>
 8    1  0.2401501E-006  0.9118800E+02  0.7816164E-02  0.1184000E+00
        -11   -1    0    0    0    0  0.00000000000E+00  0.00000000000E+00  0.45593999997E+02  0.45594000000E+02  0.51100000000E-03 0.  1.
         11   -1    0    0    0    0 -0.00000000000E+00 -0.00000000000E+00 -0.45593999997E+02  0.45594000000E+02  0.51100000000E-03 0. -1.
         23    2    1    2    0    0  0.35527136788E-14  0.00000000000E+00 -0.35527136788E-14  0.91188000000E+02  0.91188000000E+02 0.  0.
    9900012    2    3    3    0    0  0.25874150410E+02 -0.10693350831E+02  0.23915696597E+02  0.54367082642E+02  0.39999996498E+02 0.  0.
         12    1    3    3    0    0 -0.25874150410E+02  0.10693350831E+02 -0.23915696597E+02  0.36820917358E+02  0.00000000000E+00 0. -1.
         11    1    4    4    0    0  0.19685012793E+02 -0.35815681187E+00 -0.99549868530E+00  0.19713422404E+02  0.51100000000E-03 0. -1.
        -11    1    4    4    0    0 -0.24325085083E+01  0.53048205699E+01  0.36341558093E+01  0.68749769185E+01  0.51100000000E-03 0.  1.
        -12    1    4    4    0    0  0.86216461245E+01 -0.15640014589E+02  0.21277039473E+02  0.27778683319E+02  0.00000000000E+00 0.  1.
</event>
<event>
 8    1  0.2401501E-006  0.9118800E+02  0.7816164E-02  0.1184000E+00
        -11   -1    0    0    0    0  0.00000000000E+00  0.00000000000E+00  0.45593999997E+02  0.45594000000E+02  0.51100000000E-03 0. -1.
         11   -1    0    0    0    0 -0.00000000000E+00 -0.00000000000E+00 -0.45593999997E+02  0.45594000000E+02  0.51100000000E-03 0.  1.
         23    2    1    2    0    0  0.00000000000E+00 -0.22204460493E-15  0.00000000000E+00  0.91188000000E+02  0.91188000000E+02 0.  0.
    9900012    2    3    3    0    0  0.10369494780E+02  0.16281838022E+01 -0.35293126707E+02  0.54367052195E+02  0.39999927088E+02 0.  0.
         12    1    3    3    0    0 -0.10369494780E+02 -0.16281838022E+01  0.35293126707E+02  0.36820947805E+02  0.00000000000E+00 0. -1.
         11    1    4    4    0    0  0.76345886896E+00 -0.34966717593E+01  0.43214984000E+01  0.56111435126E+01  0.51100000000E-03 0. -1.
        -11    1    4    4    0    0 -0.84940981919E+01 -0.52371393380E+00 -0.69528949489E+01  0.10989391649E+02  0.51100000000E-03 0.  1.
        -12    1    4    4    0    0  0.18100134103E+02  0.56485694953E+01 -0.32661730158E+02  0.37766517033E+02  0.00000000000E+00 0.  1.
</event>
<event>
 8    1  0.2401501E-006  0.9118800E+02  0.7816164E-02  0.1184000E+00
        -11   -1    0    0    0    0  0.00000000000E+00  0.00000000000E+00  0.45593999997E+02  0.45594000000E+02  0.51100000000E-03 0. -1.
         11   -1    0    0    0    0 -0.00000000000E+00 -0.00000000000E+00 -0.45593999997E+02  0.45594000000E+02  0.51100000000E-03 0.  1.
         23    2    1    2    0    0  0.00000000000E+00  0.00000000000E+00  0.00000000000E+00  0.91188000000E+02  0.91188000000E+02 0.  0.
    9900012    2    3    3    0    0  0.11023637527E+02 -0.61416943949E+01 -0.34591018637E+02  0.54367087943E+02  0.40000008584E+02 0.  0.
         12    1    3    3    0    0 -0.11023637527E+02  0.61416943949E+01  0.34591018637E+02  0.36820912057E+02  0.00000000000E+00 0. -1.
         11    1    4    4    0    0  0.15486166875E+02 -0.71113642303E+01 -0.33696200431E+02  0.37760121682E+02  0.51100000000E-03 0. -1.
        -11    1    4    4    0    0 -0.47103526504E+00  0.28306133154E+01 -0.78593574528E+01  0.83668241163E+01  0.51100000000E-03 0.  1.
         12    1    4    4    0    0 -0.39914940823E+01 -0.18609434800E+01  0.69645392472E+01  0.82401421450E+01  0.00000000000E+00 0. -1.
</event>
<event>
 8    1  0.2401501E-006  0.9118800E+02  0.7816164E-02  0.1184000E+00
        -11   -1    0    0    0    0  0.00000000000E+00  0.00000000000E+00  0.45593999997E+02  0.45594000000E+02  0.51100000000E-03 0.  1.
         11   -1    0    0    0    0 -0.00000000000E+00 -0.00000000000E+00 -0.45593999997E+02  0.45594000000E+02  0.51100000000E-03 0. -1.
         23    2    1    2    0    0 -0.44408920985E-15  0.00000000000E+00 -0.35527136788E-14  0.91188000000E+02  0.91188000000E+02 0.  0.
    9900012    2    3    3    0    0 -0.21256127119E+01 -0.34081125721E+02  0.13774536030E+02  0.54367092860E+02  0.40000019792E+02 0.  0.
        -12    1    3    3    0    0  0.21256127119E+01  0.34081125721E+02 -0.13774536030E+02  0.36820907140E+02  0.00000000000E+00 0.  1.
         11    1    4    4    0    0 -0.14481616293E+02 -0.30713310492E+02  0.19718389259E+02  0.39266264491E+02  0.51100000000E-03 0. -1.
        -11    1    4    4    0    0  0.27536084581E+01 -0.73991430203E+00  0.93421126871E+00  0.30004305809E+01  0.51100000000E-03 0.  1.
        -12    1    4    4    0    0  0.96023951230E+01 -0.26279009266E+01 -0.68780644982E+01  0.12100397788E+02  0.00000000000E+00 0.  1.
</event>
<event>
 8    1  0.2401501E-006  0.9118800E+02  0.7816164E-02  0.1184000E+00
        -11   -1    0    0    0    0  0.00000000000E+00  0.00000000000E+00  0.45593999997E+02  0.45594000000E+02  0.51100000000E-03 0. -1.
         11   -1    0    0    0    0 -0.00000000000E+00 -0.00000000000E+00 -0.45593999997E+02  0.45594000000E+02  0.51100000000E-03 0.  1.
         23    2    1    2    0    0  0.00000000000E+00  0.00000000000E+00  0.00000000000E+00  0.91188000000E+02  0.91188000000E+02 0.  0.
    9900012    2    3    3    0    0  0.18278015556E+02  0.73498746424E+01  0.31107288766E+02  0.54367218853E+02  0.40000307018E+02 0.  0.
        -12    1    3    3    0    0 -0.18278015556E+02 -0.73498746424E+01 -0.31107288766E+02  0.36820781147E+02  0.00000000000E+00 0.  1.
         11    1    4    4    0    0  0.17287344917E+01 -0.94552776438E+01  0.14375138097E+02  0.17292639875E+02  0.51100000000E-03 0.  1.
        -11    1    4    4    0    0 -0.23512969287E+01  0.51025670497E+01  0.13484876807E+02  0.14608445862E+02  0.51100000000E-03 0. -1.
        -12    1    4    4    0    0  0.18900577993E+02  0.11702585237E+02  0.32472738619E+01  0.22466133117E+02  0.00000000000E+00 0.  1.
</event>
<event>
 8    1  0.2401501E-006  0.9118800E+02  0.7816164E-02  0.1184000E+00
        -11   -1    0    0    0    0  0.00000000000E+00  0.00000000000E+00  0.45593999997E+02  0.45594000000E+02  0.51100000000E-03 0.  1.
         11   -1    0    0    0    0 -0.00000000000E+00 -0.00000000000E+00 -0.45593999997E+02  0.45594000000E+02  0.51100000000E-03 0. -1.
         23    2    1    2    0    0  0.00000000000E+00 -0.17763568394E-14 -0.35527136788E-14  0.91188000000E+02  0.91188000000E+02 0.  0.
    9900012    2    3    3    0    0 -0.21319525781E+02 -0.49149126256E+01  0.29615930985E+02  0.54367056045E+02  0.39999935866E+02 0.  0.
         12    1    3    3    0    0  0.21319525781E+02  0.49149126256E+01 -0.29615930985E+02  0.36820943955E+02  0.00000000000E+00 0. -1.
         11    1    4    4    0    0  0.38808278175E+01  0.43558532352E+01  0.17282864177E+02  0.18240934088E+02  0.51100000000E-03 0. -1.
        -11    1    4    4    0    0 -0.13992274807E+02  0.44603995649E+01  0.27478294814E+00  0.14688581432E+02  0.51100000000E-03 0.  1.
        -12    1    4    4    0    0 -0.11208078791E+02 -0.13731165426E+02  0.12058283859E+02  0.21437540525E+02  0.00000000000E+00 0.  1.
</event>
<event>
 8    1  0.2401501E-006  0.9118800E+02  0.7816164E-02  0.1184000E+00
        -11   -1    0    0    0    0  0.00000000000E+00  0.00000000000E+00  0.45593999997E+02  0.45594000000E+02  0.51100000000E-03 0. -1.
         11   -1    0    0    0    0 -0.00000000000E+00 -0.00000000000E+00 -0.45593999997E+02  0.45594000000E+02  0.51100000000E-03 0.  1.
         23    2    1    2    0    0  0.35527136788E-14 -0.44408920985E-15  0.35527136788E-14  0.91188000000E+02  0.91188000000E+02 0.  0.
    9900012    2    3    3    0    0  0.25671442402E+02  0.39016515793E+01  0.26106208782E+02  0.54367082344E+02  0.39999995820E+02 0.  0.
        -12    1    3    3    0    0 -0.25671442402E+02 -0.39016515793E+01 -0.26106208782E+02  0.36820917656E+02  0.00000000000E+00 0.  1.
         11    1    4    4    0    0  0.88270925209E-01  0.68271699061E+01  0.12639250569E+01  0.69437416062E+01  0.51100000000E-03 0. -1.
        -11    1    4    4    0    0 -0.65327448533E+01 -0.19222951087E+01  0.22055221897E-02  0.68096974183E+01  0.51100000000E-03 0.  1.
         12    1    4    4    0    0  0.32115916330E+02 -0.10032232181E+01  0.24840078203E+02  0.40613643320E+02  0.00000000000E+00 0. -1.
</event>
<event>
 8    1  0.2401501E-006  0.9118800E+02  0.7816164E-02  0.1184000E+00
        -11   -1    0    0    0    0  0.00000000000E+00  0.00000000000E+00  0.45593999997E+02  0.45594000000E+02  0.51100000000E-03 0. -1.
         11   -1    0    0    0    0 -0.00000000000E+00 -0.00000000000E+00 -0.45593999997E+02  0.45594000000E+02  0.51100000000E-03 0.  1.
         23    2    1    2    0    0  0.00000000000E+00 -0.35527136788E-14  0.00000000000E+00  0.91188000000E+02  0.91188000000E+02 0.  0.
    9900012    2    3    3    0    0  0.21081321561E+02 -0.23143464896E+02 -0.19383934170E+02  0.54367095746E+02  0.40000026372E+02 0.  0.
         12    1    3    3    0    0 -0.21081321561E+02  0.23143464896E+02  0.19383934170E+02  0.36820904254E+02  0.00000000000E+00 0. -1.
         11    1    4    4    0    0  0.17748662110E+02 -0.49474528914E+00 -0.18952057147E+02  0.25969987485E+02  0.51100000000E-03 0. -1.
        -11    1    4    4    0    0  0.66982340337E+01 -0.13531495632E+01 -0.16826086976E+00  0.68356173746E+01  0.51100000000E-03 0.  1.
         12    1    4    4    0    0 -0.33655745827E+01 -0.21295570044E+02 -0.26361615320E+00  0.21561490886E+02  0.00000000000E+00 0. -1.
</event>
<event>
 8    1  0.2401501E-006  0.9118800E+02  0.7816164E-02  0.1184000E+00
        -11   -1    0    0    0    0  0.00000000000E+00  0.00000000000E+00  0.45593999997E+02  0.45594000000E+02  0.51100000000E-03 0. -1.
         11   -1    0    0    0    0 -0.00000000000E+00 -0.00000000000E+00 -0.45593999997E+02  0.45594000000E+02  0.51100000000E-03 0.  1.
         23    2    1    2    0    0  0.17763568394E-14  0.17763568394E-14  0.00000000000E+00  0.91188000000E+02  0.91188000000E+02 0.  0.
    9900012    2    3    3    0    0 -0.76742992719E+01 -0.10647162987E+02  0.34402379834E+02  0.54367072700E+02  0.39999973834E+02 0.  0.
        -12    1    3    3    0    0  0.76742992719E+01  0.10647162987E+02 -0.34402379834E+02  0.36820927300E+02  0.00000000000E+00 0.  1.
         11    1    4    4    0    0 -0.12008975471E+02  0.74833394665E+01  0.15655231465E+01  0.14236106364E+02  0.51100000000E-03 0. -1.
        -11    1    4    4    0    0  0.77329477330E+01 -0.11103740627E+02  0.12794289647E+02  0.18622174534E+02  0.51100000000E-03 0.  1.
         12    1    4    4    0    0 -0.33982715343E+01 -0.70267618269E+01  0.20042567040E+02  0.21508791802E+02  0.00000000000E+00 0. -1.
</event>
<event>
 8    1  0.2401501E-006  0.9118800E+02  0.7816164E-02  0.1184000E+00
        -11   -1    0    0    0    0  0.00000000000E+00  0.00000000000E+00  0.45593999997E+02  0.45594000000E+02  0.51100000000E-03 0. -1.
         11   -1    0    0    0    0 -0.00000000000E+00 -0.00000000000E+00 -0.45593999997E+02  0.45594000000E+02  0.51100000000E-03 0.  1.
         23    2    1    2    0    0  0.00000000000E+00 -0.44408920985E-15 -0.17763568394E-14  0.91188000000E+02  0.91188000000E+02 0.  0.
    9900012    2    3    3    0    0 -0.35160963628E+02  0.16344371072E+01 -0.10808098748E+02  0.54367085475E+02  0.40000002956E+02 0.  0.
         12    1    3    3    0    0  0.35160963628E+02 -0.16344371072E+01  0.10808098748E+02  0.36820914525E+02  0.00000000000E+00 0. -1.
         11    1    4    4    0    0 -0.33354431928E+01  0.90466814752E+01 -0.45076617686E+01  0.10643619774E+02  0.51100000000E-03 0. -1.
        -11    1    4    4    0    0 -0.26436245945E+02 -0.12798893544E+02 -0.14306902778E+02  0.32670693946E+02  0.51100000000E-03 0.  1.
        -12    1    4    4    0    0 -0.53892744911E+01  0.53866491756E+01  0.80064657982E+01  0.11052771755E+02  0.00000000000E+00 0.  1.
</event>
<event>
 8    1  0.2401501E-006  0.9118800E+02  0.7816164E-02  0.1184000E+00
        -11   -1    0    0    0    0  0.00000000000E+00  0.00000000000E+00  0.45593999997E+02  0.45594000000E+02  0.51100000000E-03 0. -1.
         11   -1    0    0    0    0 -0.00000000000E+00 -0.00000000000E+00 -0.45593999997E+02  0.45594000000E+02  0.51100000000E-03 0.  1.
         23    2    1    2    0    0  0.00000000000E+00  0.00000000000E+00  0.00000000000E+00  0.91188000000E+02  0.91188000000E+02 0.  0.
    9900012    2    3    3    0    0  0.30340673410E+02 -0.12864915512E+02 -0.16423043160E+02  0.54367097503E+02  0.40000030377E+02 0.  0.
         12    1    3    3    0    0 -0.30340673410E+02  0.12864915512E+02  0.16423043160E+02  0.36820902497E+02  0.00000000000E+00 0. -1.
         11    1    4    4    0    0 -0.37097599285E+01 -0.17358957827E+01 -0.11536630171E+02  0.12242119459E+02  0.51100000000E-03 0. -1.
        -11    1    4    4    0    0  0.13682434556E+02 -0.98886798219E+01 -0.11780861951E+02  0.20586007689E+02  0.51100000000E-03 0.  1.
         12    1    4    4    0    0  0.20367998782E+02 -0.12403399070E+01  0.68944489611E+01  0.21538970355E+02  0.00000000000E+00 0. -1.
</event>
<event>
 8    1  0.2401501E-006  0.9118800E+02  0.7816164E-02  0.1184000E+00
        -11   -1    0    0    0    0  0.00000000000E+00  0.00000000000E+00  0.45593999997E+02  0.45594000000E+02  0.51100000000E-03 0.  1.
         11   -1    0    0    0    0 -0.00000000000E+00 -0.00000000000E+00 -0.45593999997E+02  0.45594000000E+02  0.51100000000E-03 0. -1.
         23    2    1    2    0    0  0.17763568394E-14  0.00000000000E+00 -0.71054273576E-14  0.91188000000E+02  0.91188000000E+02 0.  0.
    9900012    2    3    3    0    0 -0.78900528544E+01 -0.32081138090E+02  0.16258102136E+02  0.54367105928E+02  0.40000049584E+02 0.  0.
         12    1    3    3    0    0  0.78900528544E+01  0.32081138090E+02 -0.16258102136E+02  0.36820894072E+02  0.00000000000E+00 0. -1.
         11    1    4    4    0    0 -0.46357178101E+00  0.24751748257E+01  0.14101320770E+01  0.28861500220E+01  0.51100000000E-03 0. -1.
        -11    1    4    4    0    0  0.81196247607E+01 -0.20978367851E+02 -0.47805546823E+01  0.22997259126E+02  0.51100000000E-03 0.  1.
        -12    1    4    4    0    0 -0.15546105834E+02 -0.13577945064E+02  0.19628524741E+02  0.28483696781E+02  0.00000000000E+00 0.  1.
</event>
<event>
 8    1  0.2401501E-006  0.9118800E+02  0.7816164E-02  0.1184000E+00
        -11   -1    0    0    0    0  0.00000000000E+00  0.00000000000E+00  0.45593999997E+02  0.45594000000E+02  0.51100000000E-03 0.  1.
         11   -1    0    0    0    0 -0.00000000000E+00 -0.00000000000E+00 -0.45593999997E+02  0.45594000000E+02  0.51100000000E-03 0. -1.
         23    2    1    2    0    0 -0.35527136788E-14 -0.35527136788E-14  0.88817841970E-15  0.91188000000E+02  0.91188000000E+02 0.  0.
    9900012    2    3    3    0    0  0.18042278071E+02  0.31816873044E+02 -0.42356518778E+01  0.54367109800E+02  0.40000058411E+02 0.  0.
        -12    1    3    3    0    0 -0.18042278071E+02 -0.31816873044E+02  0.42356518778E+01  0.36820890200E+02  0.00000000000E+00 0.  1.
         11    1    4    4    0    0  0.10760309256E+02 -0.14945582437E+01 -0.64028860619E+01  0.12610111412E+02  0.51100000000E-03 0. -1.
        -11    1    4    4    0    0  0.12012137889E+02  0.65182202153E+01  0.46507260134E+01  0.14436339708E+02  0.51100000000E-03 0.  1.
        -12    1    4    4    0    0 -0.47301690748E+01  0.26793211073E+02 -0.24834918293E+01  0.27320658680E+02  0.00000000000E+00 0.  1.
</event>
<event>
 8    1  0.2401501E-006  0.9118800E+02  0.7816164E-02  0.1184000E+00
        -11   -1    0    0    0    0  0.00000000000E+00  0.00000000000E+00  0.45593999997E+02  0.45594000000E+02  0.51100000000E-03 0.  1.
         11   -1    0    0    0    0 -0.00000000000E+00 -0.00000000000E+00 -0.45593999997E+02  0.45594000000E+02  0.51100000000E-03 0. -1.
         23    2    1    2    0    0 -0.35527136788E-14  0.00000000000E+00  0.17763568394E-14  0.91188000000E+02  0.91188000000E+02 0.  0.
    9900012    2    3    3    0    0  0.31873136654E+02 -0.15519517031E+02 -0.99511194662E+01  0.54367122394E+02  0.40000087120E+02 0.  0.
         12    1    3    3    0    0 -0.31873136654E+02  0.15519517031E+02  0.99511194662E+01  0.36820877606E+02  0.00000000000E+00 0. -1.
         11    1    4    4    0    0  0.25781062966E+02 -0.13542698298E+02 -0.16258582982E+02  0.33352802067E+02  0.51100000000E-03 0. -1.
        -11    1    4    4    0    0  0.88351329020E+01 -0.67791665041E+01 -0.17177610941E+01  0.11267980091E+02  0.51100000000E-03 0.  1.
        -12    1    4    4    0    0 -0.27430592139E+01  0.48023477705E+01  0.80252246099E+01  0.97463402362E+01  0.00000000000E+00 0.  1.
</event>
<event>
 8    1  0.2401501E-006  0.9118800E+02  0.7816164E-02  0.1184000E+00
        -11   -1    0    0    0    0  0.00000000000E+00  0.00000000000E+00  0.45593999997E+02  0.45594000000E+02  0.51100000000E-03 0. -1.
         11   -1    0    0    0    0 -0.00000000000E+00 -0.00000000000E+00 -0.45593999997E+02  0.45594000000E+02  0.51100000000E-03 0.  1.
         23    2    1    2    0    0  0.00000000000E+00  0.00000000000E+00  0.00000000000E+00  0.91188000000E+02  0.91188000000E+02 0.  0.
    9900012    2    3    3    0    0 -0.23406803999E+02 -0.14679071847E+02 -0.24339786158E+02  0.54367098137E+02  0.40000031823E+02 0.  0.
         12    1    3    3    0    0  0.23406803999E+02  0.14679071847E+02  0.24339786158E+02  0.36820901863E+02  0.00000000000E+00 0. -1.
         11    1    4    4    0    0 -0.75915973653E+01 -0.18101484632E+01  0.47524979529E+01  0.91375721649E+01  0.51100000000E-03 0. -1.
        -11    1    4    4    0    0 -0.22195062594E+02 -0.48072483361E+01 -0.13098225563E+02  0.26216291753E+02  0.51100000000E-03 0.  1.
        -12    1    4    4    0    0  0.63798559597E+01 -0.80616750481E+01 -0.15994058547E+02  0.19013234219E+02  0.00000000000E+00 0.  1.
</event>
<event>
 8    1  0.2401501E-006  0.9118800E+02  0.7816164E-02  0.1184000E+00
        -11   -1    0    0    0    0  0.00000000000E+00  0.00000000000E+00  0.45593999997E+02  0.45594000000E+02  0.51100000000E-03 0. -1.
         11   -1    0    0    0    0 -0.00000000000E+00 -0.00000000000E+00 -0.45593999997E+02  0.45594000000E+02  0.51100000000E-03 0.  1.
         23    2    1    2    0    0  0.17763568394E-14  0.00000000000E+00 -0.22204460493E-15  0.91188000000E+02  0.91188000000E+02 0.  0.
    9900012    2    3    3    0    0 -0.14096237245E+02 -0.33974852758E+02 -0.16689609666E+01  0.54367082641E+02  0.39999996497E+02 0.  0.
        -12    1    3    3    0    0  0.14096237245E+02  0.33974852758E+02  0.16689609666E+01  0.36820917359E+02  0.00000000000E+00 0.  1.
         11    1    4    4    0    0 -0.25005823627E+02 -0.20186758023E+02 -0.84088731707E+01  0.33219054216E+02  0.51100000000E-03 0. -1.
        -11    1    4    4    0    0  0.20756264153E+01  0.13369612973E+01  0.13900334193E+01  0.28333520244E+01  0.51100000000E-03 0.  1.
         12    1    4    4    0    0  0.88339599658E+01 -0.15125056033E+02  0.53498787848E+01  0.18314676401E+02  0.00000000000E+00 0. -1.
</event>
<event>
 8    1  0.2401501E-006  0.9118800E+02  0.7816164E-02  0.1184000E+00
        -11   -1    0    0    0    0  0.00000000000E+00  0.00000000000E+00  0.45593999997E+02  0.45594000000E+02  0.51100000000E-03 0.  1.
         11   -1    0    0    0    0 -0.00000000000E+00 -0.00000000000E+00 -0.45593999997E+02  0.45594000000E+02  0.51100000000E-03 0. -1.
         23    2    1    2    0    0 -0.35527136788E-14  0.17763568394E-14  0.00000000000E+00  0.91188000000E+02  0.91188000000E+02 0.  0.
    9900012    2    3    3    0    0 -0.18416093638E+02  0.12951168341E+02 -0.29135926778E+02  0.54366980249E+02  0.39999763073E+02 0.  0.
        -12    1    3    3    0    0  0.18416093638E+02 -0.12951168341E+02  0.29135926778E+02  0.36821019751E+02  0.00000000000E+00 0.  1.
         11    1    4    4    0    0 -0.74579566460E+01  0.16204052941E+02 -0.18447129899E+02  0.25661041499E+02  0.51100000000E-03 0. -1.
        -11    1    4    4    0    0  0.54637584556E+01  0.52173122879E+01 -0.41934970552E+00  0.75662975363E+01  0.51100000000E-03 0.  1.
        -12    1    4    4    0    0 -0.16421895447E+02 -0.84701968874E+01 -0.10269447174E+02  0.21139641214E+02  0.00000000000E+00 0.  1.
</event>
<event>
 8    1  0.2401501E-006  0.9118800E+02  0.7816164E-02  0.1184000E+00
        -11   -1    0    0    0    0  0.00000000000E+00  0.00000000000E+00  0.45593999997E+02  0.45594000000E+02  0.51100000000E-03 0. -1.
         11   -1    0    0    0    0 -0.00000000000E+00 -0.00000000000E+00 -0.45593999997E+02  0.45594000000E+02  0.51100000000E-03 0.  1.
         23    2    1    2    0    0  0.00000000000E+00  0.00000000000E+00  0.44408920985E-15  0.91188000000E+02  0.91188000000E+02 0.  0.
    9900012    2    3    3    0    0  0.35744860388E+02 -0.82856050207E+01  0.30716554858E+01  0.54367063535E+02  0.39999952941E+02 0.  0.
        -12    1    3    3    0    0 -0.35744860388E+02  0.82856050207E+01 -0.30716554858E+01  0.36820936465E+02  0.00000000000E+00 0.  1.
         11    1    4    4    0    0  0.38357128617E+02 -0.63301037136E+01 -0.96930515832E+00  0.38888032626E+02  0.51100000000E-03 0. -1.
        -11    1    4    4    0    0  0.32994362224E+01 -0.61567937057E+01  0.43342291627E+01  0.82205797129E+01  0.51100000000E-03 0.  1.
         12    1    4    4    0    0 -0.59117044515E+01  0.42012923986E+01 -0.29326851858E+00  0.72584511960E+01  0.00000000000E+00 0. -1.
</event>
<event>
 8    1  0.3095729E-006  0.9118800E+02  0.7816164E-02  0.1184000E+00
        -11   -1    0    0    0    0  0.00000000000E+00  0.00000000000E+00  0.45593999997E+02  0.45594000000E+02  0.51100000000E-03 0.  1.
         11   -1    0    0    0    0 -0.00000000000E+00 -0.00000000000E+00 -0.45593999997E+02  0.45594000000E+02  0.51100000000E-03 0. -1.
         23    2    1    2    0    0  0.00000000000E+00 -0.44408920985E-15  0.00000000000E+00  0.91188000000E+02  0.91188000000E+02 0.  0.
    9900012    2    3    3    0    0 -0.28558673397E+02 -0.33342599854E+01  0.23001412331E+02  0.54367080877E+02  0.39999992475E+02 0.  0.
         12    1    3    3    0    0  0.28558673397E+02  0.33342599854E+01 -0.23001412331E+02  0.36820919123E+02  0.00000000000E+00 0. -1.
         11    1    4    4    0    0  0.58307026886E+01  0.34197837579E+01  0.65917096655E+01  0.94415386124E+01  0.51100000000E-03 0. -1.
        -11    1    4    4    0    0 -0.65704884383E+01 -0.10996590936E+02  0.95024334678E+01  0.15949688793E+02  0.51100000000E-03 0.  1.
        -12    1    4    4    0    0 -0.27818887647E+02  0.42425471926E+01  0.69072691978E+01  0.28975853471E+02  0.00000000000E+00 0.  1.
</event>
<event>
 8    1  0.2401501E-006  0.9118800E+02  0.7816164E-02  0.1184000E+00
        -11   -1    0    0    0    0  0.00000000000E+00  0.00000000000E+00  0.45593999997E+02  0.45594000000E+02  0.51100000000E-03 0. -1.
         11   -1    0    0    0    0 -0.00000000000E+00 -0.00000000000E+00 -0.45593999997E+02  0.45594000000E+02  0.51100000000E-03 0.  1.
         23    2    1    2    0    0  0.00000000000E+00 -0.44408920985E-15  0.71054273576E-14  0.91188000000E+02  0.91188000000E+02 0.  0.
    9900012    2    3    3    0    0  0.10306119003E+02  0.17498586866E+01 -0.35305846316E+02  0.54367070104E+02  0.39999967915E+02 0.  0.
         12    1    3    3    0    0 -0.10306119003E+02 -0.17498586866E+01  0.35305846316E+02  0.36820929896E+02  0.00000000000E+00 0. -1.
         11    1    4    4    0    0  0.14052596152E+02 -0.77339809943E+01 -0.57332186942E+01  0.17034075187E+02  0.51100000000E-03 0. -1.
        -11    1    4    4    0    0  0.73305156770E+01 -0.31294311033E+00 -0.14310958429E+02  0.16082223879E+02  0.51100000000E-03 0.  1.
        -12    1    4    4    0    0 -0.11076992826E+02  0.97967827912E+01 -0.15261669193E+02  0.21250771037E+02  0.00000000000E+00 0.  1.
</event>
<event>
 8    1  0.2401501E-006  0.9118800E+02  0.7816164E-02  0.1184000E+00
        -11   -1    0    0    0    0  0.00000000000E+00  0.00000000000E+00  0.45593999997E+02  0.45594000000E+02  0.51100000000E-03 0. -1.
         11   -1    0    0    0    0 -0.00000000000E+00 -0.00000000000E+00 -0.45593999997E+02  0.45594000000E+02  0.51100000000E-03 0.  1.
         23    2    1    2    0    0  0.00000000000E+00  0.17763568394E-14  0.00000000000E+00  0.91188000000E+02  0.91188000000E+02 0.  0.
    9900012    2    3    3    0    0 -0.56288173920E+01 -0.11895713910E+02 -0.34388771232E+02  0.54367093146E+02  0.40000020446E+02 0.  0.
         12    1    3    3    0    0  0.56288173920E+01  0.11895713910E+02  0.34388771232E+02  0.36820906854E+02  0.00000000000E+00 0. -1.
         11    1    4    4    0    0  0.30380971118E+01  0.34486430637E+01  0.37937823291E+01  0.59595266308E+01  0.51100000000E-03 0. -1.
        -11    1    4    4    0    0 -0.89559052042E+01  0.43856429695E+01 -0.11498694670E+02  0.15220449457E+02  0.51100000000E-03 0.  1.
        -12    1    4    4    0    0  0.28899070039E+00 -0.19729999943E+02 -0.26683858891E+02  0.33187117059E+02  0.00000000000E+00 0.  1.
</event>
<event>
 8    1  0.2401501E-006  0.9118800E+02  0.7816164E-02  0.1184000E+00
        -11   -1    0    0    0    0  0.00000000000E+00  0.00000000000E+00  0.45593999997E+02  0.45594000000E+02  0.51100000000E-03 0. -1.
         11   -1    0    0    0    0 -0.00000000000E+00 -0.00000000000E+00 -0.45593999997E+02  0.45594000000E+02  0.51100000000E-03 0.  1.
         23    2    1    2    0    0  0.44408920985E-15 -0.88817841970E-15  0.00000000000E+00  0.91188000000E+02  0.91188000000E+02 0.  0.
    9900012    2    3    3    0    0 -0.39830286462E+01 -0.16061168224E+01  0.36569612530E+02  0.54367072676E+02  0.39999973779E+02 0.  0.
        -12    1    3    3    0    0  0.39830286462E+01  0.16061168224E+01 -0.36569612530E+02  0.36820927324E+02  0.00000000000E+00 0.  1.
         11    1    4    4    0    0 -0.17885389085E+02 -0.80219470256E+01  0.30431733129E+02  0.36198469005E+02  0.51100000000E-03 0. -1.
        -11    1    4    4    0    0  0.91369279360E+01  0.76476023653E+00  0.11263674171E+01  0.92378035348E+01  0.51100000000E-03 0.  1.
         12    1    4    4    0    0  0.47654325027E+01  0.56510699667E+01  0.50115119838E+01  0.89308001361E+01  0.00000000000E+00 0. -1.
</event>
<event>
 8    1  0.2401501E-006  0.9118800E+02  0.7816164E-02  0.1184000E+00
        -11   -1    0    0    0    0  0.00000000000E+00  0.00000000000E+00  0.45593999997E+02  0.45594000000E+02  0.51100000000E-03 0.  1.
         11   -1    0    0    0    0 -0.00000000000E+00 -0.00000000000E+00 -0.45593999997E+02  0.45594000000E+02  0.51100000000E-03 0. -1.
         23    2    1    2    0    0  0.71054273576E-14  0.44408920985E-15  0.00000000000E+00  0.91188000000E+02  0.91188000000E+02 0.  0.
    9900012    2    3    3    0    0  0.36296923348E+02 -0.31096886495E+01 -0.53520153692E+01  0.54367070129E+02  0.39999967974E+02 0.  0.
        -12    1    3    3    0    0 -0.36296923348E+02  0.31096886495E+01  0.53520153692E+01  0.36820929871E+02  0.00000000000E+00 0.  1.
         11    1    4    4    0    0  0.23122988650E+02  0.19526293015E+01 -0.13670993414E+02  0.26932906016E+02  0.51100000000E-03 0. -1.
        -11    1    4    4    0    0 -0.52721949398E+01 -0.53760793695E+01  0.10399395045E+01  0.76012987906E+01  0.51100000000E-03 0.  1.
        -12    1    4    4    0    0  0.18446129637E+02  0.31376141855E+00  0.72790385402E+01  0.19832865322E+02  0.00000000000E+00 0.  1.
</event>
<event>
 8    1  0.2401501E-006  0.9118800E+02  0.7816164E-02  0.1184000E+00
        -11   -1    0    0    0    0  0.00000000000E+00  0.00000000000E+00  0.45593999997E+02  0.45594000000E+02  0.51100000000E-03 0. -1.
         11   -1    0    0    0    0 -0.00000000000E+00 -0.00000000000E+00 -0.45593999997E+02  0.45594000000E+02  0.51100000000E-03 0.  1.
         23    2    1    2    0    0  0.17763568394E-14  0.35527136788E-14 -0.35527136788E-14  0.91188000000E+02  0.91188000000E+02 0.  0.
    9900012    2    3    3    0    0 -0.78579222959E+01 -0.24542890367E+02  0.26299779148E+02  0.54367098414E+02  0.40000032455E+02 0.  0.
         12    1    3    3    0    0  0.78579222959E+01  0.24542890367E+02 -0.26299779148E+02  0.36820901586E+02  0.00000000000E+00 0. -1.
         11    1    4    4    0    0  0.55300965252E+01 -0.10140765669E+02  0.15305874605E+02  0.19175163457E+02  0.51100000000E-03 0. -1.
        -11    1    4    4    0    0 -0.13547143569E+02 -0.38765147704E+01  0.17765498304E+02  0.22675215454E+02  0.51100000000E-03 0.  1.
        -12    1    4    4    0    0  0.15912474745E+00 -0.10525609928E+02 -0.67715937615E+01  0.12516719503E+02  0.00000000000E+00 0.  1.
</event>
<event>
 8    1  0.2401501E-006  0.9118800E+02  0.7816164E-02  0.1184000E+00
        -11   -1    0    0    0    0  0.00000000000E+00  0.00000000000E+00  0.45593999997E+02  0.45594000000E+02  0.51100000000E-03 0. -1.
         11   -1    0    0    0    0 -0.00000000000E+00 -0.00000000000E+00 -0.45593999997E+02  0.45594000000E+02  0.51100000000E-03 0.  1.
         23    2    1    2    0    0  0.00000000000E+00 -0.17763568394E-14 -0.55511151231E-15  0.91188000000E+02  0.91188000000E+02 0.  0.
    9900012    2    3    3    0    0  0.33665153821E+02 -0.14911338459E+02 -0.29935981334E+00  0.54367079144E+02  0.39999988524E+02 0.  0.
         12    1    3    3    0    0 -0.33665153821E+02  0.14911338459E+02  0.29935981334E+00  0.36820920856E+02  0.00000000000E+00 0. -1.
         11    1    4    4    0    0  0.69292242779E+01  0.56237077519E+01  0.82676489711E+00  0.89623533979E+01  0.51100000000E-03 0. -1.
        -11    1    4    4    0    0  0.17048963333E+02 -0.20100955477E+01 -0.12843726108E+02  0.21439891219E+02  0.51100000000E-03 0.  1.
        -12    1    4    4    0    0  0.96869662093E+01 -0.18524950663E+02  0.11717601398E+02  0.23964834527E+02  0.00000000000E+00 0.  1.
</event>
<event>
 8    1  0.2401501E-006  0.9118800E+02  0.7816164E-02  0.1184000E+00
        -11   -1    0    0    0    0  0.00000000000E+00  0.00000000000E+00  0.45593999997E+02  0.45594000000E+02  0.51100000000E-03 0.  1.
         11   -1    0    0    0    0 -0.00000000000E+00 -0.00000000000E+00 -0.45593999997E+02  0.45594000000E+02  0.51100000000E-03 0. -1.
         23    2    1    2    0    0  0.35527136788E-14  0.00000000000E+00  0.13322676296E-14  0.91188000000E+02  0.91188000000E+02 0.  0.
    9900012    2    3    3    0    0  0.29258240640E+02  0.22299160069E+02  0.15754690012E+01  0.54367091705E+02  0.40000017159E+02 0.  0.
        -12    1    3    3    0    0 -0.29258240640E+02 -0.22299160069E+02 -0.15754690012E+01  0.36820908295E+02  0.00000000000E+00 0.  1.
         11    1    4    4    0    0  0.13350199107E+01  0.20713363533E+02 -0.82931683110E+01  0.22351786235E+02  0.51100000000E-03 0. -1.
        -11    1    4    4    0    0  0.80104227729E+01  0.27734582670E+01  0.85244825863E+01  0.12021886182E+02  0.51100000000E-03 0.  1.
        -12    1    4    4    0    0  0.19912797957E+02 -0.11876617315E+01  0.13441547259E+01  0.19993419287E+02  0.00000000000E+00 0.  1.
</event>
<event>
 8    1  0.2401501E-006  0.9118800E+02  0.7816164E-02  0.1184000E+00
        -11   -1    0    0    0    0  0.00000000000E+00  0.00000000000E+00  0.45593999997E+02  0.45594000000E+02  0.51100000000E-03 0.  1.
         11   -1    0    0    0    0 -0.00000000000E+00 -0.00000000000E+00 -0.45593999997E+02  0.45594000000E+02  0.51100000000E-03 0. -1.
         23    2    1    2    0    0  0.17763568394E-14 -0.66613381478E-15  0.00000000000E+00  0.91188000000E+02  0.91188000000E+02 0.  0.
    9900012    2    3    3    0    0  0.15027750465E+02 -0.10842749047E+01 -0.33597211850E+02  0.54367060574E+02  0.39999946190E+02 0.  0.
        -12    1    3    3    0    0 -0.15027750465E+02  0.10842749047E+01  0.33597211850E+02  0.36820939426E+02  0.00000000000E+00 0.  1.
         11    1    4    4    0    0 -0.58458515048E+01 -0.11169142914E+01 -0.14672146323E+02  0.15833298940E+02  0.51100000000E-03 0. -1.
        -11    1    4    4    0    0  0.55124044871E+01 -0.53830687892E+01 -0.20759191819E+02  0.22142901302E+02  0.51100000000E-03 0.  1.
        -12    1    4    4    0    0  0.15361197483E+02  0.54157081759E+01  0.18341262918E+01  0.16390860332E+02  0.00000000000E+00 0.  1.
</event>
<event>
 8    1  0.2401501E-006  0.9118800E+02  0.7816164E-02  0.1184000E+00
        -11   -1    0    0    0    0  0.00000000000E+00  0.00000000000E+00  0.45593999997E+02  0.45594000000E+02  0.51100000000E-03 0. -1.
         11   -1    0    0    0    0 -0.00000000000E+00 -0.00000000000E+00 -0.45593999997E+02  0.45594000000E+02  0.51100000000E-03 0.  1.
         23    2    1    2    0    0 -0.88817841970E-15  0.00000000000E+00  0.00000000000E+00  0.91188000000E+02  0.91188000000E+02 0.  0.
    9900012    2    3    3    0    0  0.65144567388E+01  0.34179182557E+01 -0.36078509997E+02  0.54367092958E+02  0.40000020017E+02 0.  0.
         12    1    3    3    0    0 -0.65144567388E+01 -0.34179182557E+01  0.36078509997E+02  0.36820907042E+02  0.00000000000E+00 0. -1.
         11    1    4    4    0    0  0.13618419765E+02 -0.17662077030E+01 -0.11196793100E+02  0.17718606675E+02  0.51100000000E-03 0. -1.
        -11    1    4    4    0    0 -0.91449149319E+00 -0.83824157453E+01 -0.18686708681E+02  0.20501079728E+02  0.51100000000E-03 0.  1.
        -12    1    4    4    0    0 -0.61894715327E+01  0.13566541704E+02 -0.61950082164E+01  0.16147406555E+02  0.00000000000E+00 0.  1.
</event>
<event>
 8    1  0.2401501E-006  0.9118800E+02  0.7816164E-02  0.1184000E+00
        -11   -1    0    0    0    0  0.00000000000E+00  0.00000000000E+00  0.45593999997E+02  0.45594000000E+02  0.51100000000E-03 0.  1.
         11   -1    0    0    0    0 -0.00000000000E+00 -0.00000000000E+00 -0.45593999997E+02  0.45594000000E+02  0.51100000000E-03 0. -1.
         23    2    1    2    0    0  0.10547118734E-14  0.44408920985E-15 -0.71054273576E-14  0.91188000000E+02  0.91188000000E+02 0.  0.
    9900012    2    3    3    0    0  0.28312539253E+00  0.39788893793E+01 -0.36604205733E+02  0.54367087491E+02  0.40000007553E+02 0.  0.
        -12    1    3    3    0    0 -0.28312539253E+00 -0.39788893793E+01  0.36604205733E+02  0.36820912509E+02  0.00000000000E+00 0.  1.
         11    1    4    4    0    0 -0.54995998926E+01 -0.15194506076E+02 -0.79231782586E+01  0.17997093317E+02  0.51100000000E-03 0. -1.
        -11    1    4    4    0    0  0.32823963013E+01  0.38810944188E+01 -0.18946870585E+01  0.54246528623E+01  0.51100000000E-03 0.  1.
         12    1    4    4    0    0  0.25003289838E+01  0.15292301037E+02 -0.26786340415E+02  0.30945341312E+02  0.00000000000E+00 0. -1.
</event>
<event>
 8    1  0.2401501E-006  0.9118800E+02  0.7816164E-02  0.1184000E+00
        -11   -1    0    0    0    0  0.00000000000E+00  0.00000000000E+00  0.45593999997E+02  0.45594000000E+02  0.51100000000E-03 0.  1.
         11   -1    0    0    0    0 -0.00000000000E+00 -0.00000000000E+00 -0.45593999997E+02  0.45594000000E+02  0.51100000000E-03 0. -1.
         23    2    1    2    0    0 -0.88817841970E-15  0.35527136788E-14  0.00000000000E+00  0.91188000000E+02  0.91188000000E+02 0.  0.
    9900012    2    3    3    0    0  0.24074432115E+01  0.23659395592E+02 -0.28110819835E+02  0.54367068801E+02  0.39999964945E+02 0.  0.
        -12    1    3    3    0    0 -0.24074432115E+01 -0.23659395592E+02  0.28110819835E+02  0.36820931199E+02  0.00000000000E+00 0.  1.
         11    1    4    4    0    0 -0.15981303238E+02  0.80421683445E+01 -0.75573555076E+01  0.19421435256E+02  0.51100000000E-03 0. -1.
        -11    1    4    4    0    0  0.63658751590E+01  0.59081592972E+01  0.64868145426E+00  0.87092767042E+01  0.51100000000E-03 0.  1.
        -12    1    4    4    0    0  0.12022871290E+02  0.97090679500E+01 -0.21202145782E+02  0.26236356841E+02  0.00000000000E+00 0.  1.
</event>
<event>
 8    1  0.2401501E-006  0.9118800E+02  0.7816164E-02  0.1184000E+00
        -11   -1    0    0    0    0  0.00000000000E+00  0.00000000000E+00  0.45593999997E+02  0.45594000000E+02  0.51100000000E-03 0.  1.
         11   -1    0    0    0    0 -0.00000000000E+00 -0.00000000000E+00 -0.45593999997E+02  0.45594000000E+02  0.51100000000E-03 0. -1.
         23    2    1    2    0    0  0.00000000000E+00  0.00000000000E+00  0.17763568394E-14  0.91188000000E+02  0.91188000000E+02 0.  0.
    9900012    2    3    3    0    0  0.21051386850E+02  0.27599500053E+02  0.12283613818E+02  0.54367075787E+02  0.39999980872E+02 0.  0.
         12    1    3    3    0    0 -0.21051386850E+02 -0.27599500053E+02 -0.12283613818E+02  0.36820924213E+02  0.00000000000E+00 0. -1.
         11    1    4    4    0    0  0.50993399321E+01  0.23468216434E+02 -0.51026473545E+00  0.24021257684E+02  0.51100000000E-03 0. -1.
        -11    1    4    4    0    0  0.96919719155E+01  0.13267371784E+02  0.80729649599E+01  0.18306562680E+02  0.51100000000E-03 0.  1.
         12    1    4    4    0    0  0.62600750020E+01 -0.91360881653E+01  0.47209135936E+01  0.12039255424E+02  0.00000000000E+00 0. -1.
</event>
<event>
 8    1  0.2401501E-006  0.9118800E+02  0.7816164E-02  0.1184000E+00
        -11   -1    0    0    0    0  0.00000000000E+00  0.00000000000E+00  0.45593999997E+02  0.45594000000E+02  0.51100000000E-03 0. -1.
         11   -1    0    0    0    0 -0.00000000000E+00 -0.00000000000E+00 -0.45593999997E+02  0.45594000000E+02  0.51100000000E-03 0.  1.
         23    2    1    2    0    0  0.11102230246E-15 -0.35527136788E-14  0.00000000000E+00  0.91188000000E+02  0.91188000000E+02 0.  0.
    9900012    2    3    3    0    0 -0.43395257273E+00 -0.17780321245E+02 -0.32240527961E+02  0.54367084998E+02  0.40000001870E+02 0.  0.
         12    1    3    3    0    0  0.43395257273E+00  0.17780321245E+02  0.32240527961E+02  0.36820915002E+02  0.00000000000E+00 0. -1.
         11    1    4    4    0    0 -0.15104477443E+01 -0.21818917350E+02 -0.18356708667E+02  0.28553727603E+02  0.51100000000E-03 0. -1.
        -11    1    4    4    0    0 -0.17189781018E+01  0.72923233189E+01 -0.18228296122E+02  0.19707958922E+02  0.51100000000E-03 0.  1.
        -12    1    4    4    0    0  0.27954732734E+01 -0.32537272137E+01  0.43444768282E+01  0.61053984730E+01  0.00000000000E+00 0.  1.
</event>
<event>
 8    1  0.2401501E-006  0.9118800E+02  0.7816164E-02  0.1184000E+00
        -11   -1    0    0    0    0  0.00000000000E+00  0.00000000000E+00  0.45593999997E+02  0.45594000000E+02  0.51100000000E-03 0.  1.
         11   -1    0    0    0    0 -0.00000000000E+00 -0.00000000000E+00 -0.45593999997E+02  0.45594000000E+02  0.51100000000E-03 0. -1.
         23    2    1    2    0    0  0.00000000000E+00  0.22204460493E-15  0.00000000000E+00  0.91188000000E+02  0.91188000000E+02 0.  0.
    9900012    2    3    3    0    0 -0.33368561612E+02  0.12364295577E+01  0.15517390651E+02  0.54367094597E+02  0.40000023753E+02 0.  0.
         12    1    3    3    0    0  0.33368561612E+02 -0.12364295577E+01 -0.15517390651E+02  0.36820905403E+02  0.00000000000E+00 0. -1.
         11    1    4    4    0    0 -0.25959181640E+02  0.71184585522E+01 -0.56777505834E+01  0.27509787632E+02  0.51100000000E-03 0. -1.
        -11    1    4    4    0    0 -0.16725526401E+01  0.35950808234E+01  0.11399564024E+02  0.12069469692E+02  0.51100000000E-03 0.  1.
        -12    1    4    4    0    0 -0.57368273313E+01 -0.94771098179E+01  0.97955772106E+01  0.14787837273E+02  0.00000000000E+00 0.  1.
</event>
<event>
 8    1  0.2401501E-006  0.9118800E+02  0.7816164E-02  0.1184000E+00
        -11   -1    0    0    0    0  0.00000000000E+00  0.00000000000E+00  0.45593999997E+02  0.45594000000E+02  0.51100000000E-03 0. -1.
         11   -1    0    0    0    0 -0.00000000000E+00 -0.00000000000E+00 -0.45593999997E+02  0.45594000000E+02  0.51100000000E-03 0.  1.
         23    2    1    2    0    0 -0.35527136788E-14  0.17763568394E-14  0.00000000000E+00  0.91188000000E+02  0.91188000000E+02 0.  0.
    9900012    2    3    3    0    0 -0.21779084953E+02 -0.15495306236E+02  0.25324832996E+02  0.54367079004E+02  0.39999988205E+02 0.  0.
        -12    1    3    3    0    0  0.21779084953E+02  0.15495306236E+02 -0.25324832996E+02  0.36820920996E+02  0.00000000000E+00 0.  1.
         11    1    4    4    0    0 -0.88935899123E+01  0.36986901186E+00  0.15925891003E+02  0.18244636174E+02  0.51100000000E-03 0. -1.
        -11    1    4    4    0    0  0.18077208571E+01 -0.19627821073E+02  0.53090193388E+01  0.20413351056E+02  0.51100000000E-03 0.  1.
        -12    1    4    4    0    0 -0.14693215898E+02  0.37626458251E+01  0.40899226541E+01  0.15709091774E+02  0.00000000000E+00 0.  1.
</event>
<event>
 8    1  0.2401501E-006  0.9118800E+02  0.7816164E-02  0.1184000E+00
        -11   -1    0    0    0    0  0.00000000000E+00  0.00000000000E+00  0.45593999997E+02  0.45594000000E+02  0.51100000000E-03 0.  1.
         11   -1    0    0    0    0 -0.00000000000E+00 -0.00000000000E+00 -0.45593999997E+02  0.45594000000E+02  0.51100000000E-03 0. -1.
         23    2    1    2    0    0  0.88817841970E-15  0.00000000000E+00  0.00000000000E+00  0.91188000000E+02  0.91188000000E+02 0.  0.
    9900012    2    3    3    0    0  0.27982199021E+01 -0.26591651258E+02  0.25314609079E+02  0.54367144713E+02  0.40000138002E+02 0.  0.
         12    1    3    3    0    0 -0.27982199021E+01  0.26591651258E+02 -0.25314609079E+02  0.36820855287E+02  0.00000000000E+00 0. -1.
         11    1    4    4    0    0  0.12936268477E+00  0.65219591810E+01 -0.53316209171E+01  0.84248957339E+01  0.51100000000E-03 0. -1.
        -11    1    4    4    0    0  0.41886721755E+01 -0.27897760561E+02  0.22192805237E+02  0.35893601428E+02  0.51100000000E-03 0.  1.
        -12    1    4    4    0    0 -0.15198149581E+01 -0.52158498771E+01  0.84534247587E+01  0.10048647551E+02  0.00000000000E+00 0.  1.
</event>
<event>
 8    1  0.2401501E-006  0.9118800E+02  0.7816164E-02  0.1184000E+00
        -11   -1    0    0    0    0  0.00000000000E+00  0.00000000000E+00  0.45593999997E+02  0.45594000000E+02  0.51100000000E-03 0.  1.
         11   -1    0    0    0    0 -0.00000000000E+00 -0.00000000000E+00 -0.45593999997E+02  0.45594000000E+02  0.51100000000E-03 0. -1.
         23    2    1    2    0    0 -0.44408920985E-15  0.00000000000E+00  0.00000000000E+00  0.91188000000E+02  0.91188000000E+02 0.  0.
    9900012    2    3    3    0    0 -0.13163522506E+01 -0.27764301540E+02  0.24149326160E+02  0.54367093204E+02  0.40000020577E+02 0.  0.
         12    1    3    3    0    0  0.13163522506E+01  0.27764301540E+02 -0.24149326160E+02  0.36820906796E+02  0.00000000000E+00 0. -1.
         11    1    4    4    0    0 -0.17119368678E+02 -0.18429413775E+02  0.53990345041E+01  0.25726749695E+02  0.51100000000E-03 0. -1.
        -11    1    4    4    0    0  0.10526227679E+02 -0.11678594762E+02  0.12142305998E+02  0.19865211803E+02  0.51100000000E-03 0.  1.
        -12    1    4    4    0    0  0.52767887492E+01  0.23437069975E+01  0.66079856584E+01  0.87751317059E+01  0.00000000000E+00 0.  1.
</event>
<event>
 8    1  0.2401501E-006  0.9118800E+02  0.7816164E-02  0.1184000E+00
        -11   -1    0    0    0    0  0.00000000000E+00  0.00000000000E+00  0.45593999997E+02  0.45594000000E+02  0.51100000000E-03 0. -1.
         11   -1    0    0    0    0 -0.00000000000E+00 -0.00000000000E+00 -0.45593999997E+02  0.45594000000E+02  0.51100000000E-03 0.  1.
         23    2    1    2    0    0  0.35527136788E-14  0.00000000000E+00 -0.35527136788E-14  0.91188000000E+02  0.91188000000E+02 0.  0.
    9900012    2    3    3    0    0  0.21975496624E+02  0.27568684186E+02 -0.10621988109E+02  0.54367062600E+02  0.39999950809E+02 0.  0.
         12    1    3    3    0    0 -0.21975496624E+02 -0.27568684186E+02  0.10621988109E+02  0.36820937400E+02  0.00000000000E+00 0. -1.
         11    1    4    4    0    0  0.17002542544E+02  0.16236203038E+02  0.60087432416E+01  0.24265319649E+02  0.51100000000E-03 0. -1.
        -11    1    4    4    0    0 -0.57615285300E+01 -0.11161787090E+01  0.10483647316E+01  0.59615547287E+01  0.51100000000E-03 0.  1.
        -12    1    4    4    0    0  0.10734482610E+02  0.12448659857E+02 -0.17679096082E+02  0.24140188222E+02  0.00000000000E+00 0.  1.
</event>
<event>
 8    1  0.2401501E-006  0.9118800E+02  0.7816164E-02  0.1184000E+00
        -11   -1    0    0    0    0  0.00000000000E+00  0.00000000000E+00  0.45593999997E+02  0.45594000000E+02  0.51100000000E-03 0.  1.
         11   -1    0    0    0    0 -0.00000000000E+00 -0.00000000000E+00 -0.45593999997E+02  0.45594000000E+02  0.51100000000E-03 0. -1.
         23    2    1    2    0    0  0.17763568394E-14 -0.22204460493E-15  0.71054273576E-14  0.91188000000E+02  0.91188000000E+02 0.  0.
    9900012    2    3    3    0    0 -0.12156427896E+02  0.10453305259E+01 -0.34740593785E+02  0.54367077801E+02  0.39999985462E+02 0.  0.
        -12    1    3    3    0    0  0.12156427896E+02 -0.10453305259E+01  0.34740593785E+02  0.36820922199E+02  0.00000000000E+00 0.  1.
         11    1    4    4    0    0 -0.25174628644E+01  0.86767964534E+01 -0.15699512509E+02  0.18113506266E+02  0.51100000000E-03 0. -1.
        -11    1    4    4    0    0  0.12280309901E+01 -0.39177510085E+01  0.68182061033E+01  0.79589426311E+01  0.51100000000E-03 0.  1.
        -12    1    4    4    0    0 -0.10866996022E+02 -0.37137149190E+01 -0.25859287379E+02  0.28294628903E+02  0.00000000000E+00 0.  1.
</event>
<event>
 8    1  0.2401501E-006  0.9118800E+02  0.7816164E-02  0.1184000E+00
        -11   -1    0    0    0    0  0.00000000000E+00  0.00000000000E+00  0.45593999997E+02  0.45594000000E+02  0.51100000000E-03 0.  1.
         11   -1    0    0    0    0 -0.00000000000E+00 -0.00000000000E+00 -0.45593999997E+02  0.45594000000E+02  0.51100000000E-03 0. -1.
         23    2    1    2    0    0  0.71054273576E-14  0.00000000000E+00  0.35527136788E-14  0.91188000000E+02  0.91188000000E+02 0.  0.
    9900012    2    3    3    0    0 -0.27190293250E+02  0.31604834362E+01 -0.24626793897E+02  0.54367086374E+02  0.40000005008E+02 0.  0.
         12    1    3    3    0    0  0.27190293250E+02 -0.31604834362E+01  0.24626793897E+02  0.36820913626E+02  0.00000000000E+00 0. -1.
         11    1    4    4    0    0  0.56452959246E+01 -0.19044918629E+01  0.57280147320E+01  0.82647812048E+01  0.51100000000E-03 0. -1.
        -11    1    4    4    0    0 -0.27922141438E+02  0.78985503667E+01 -0.24996728703E+02  0.38299732721E+02  0.51100000000E-03 0.  1.
         12    1    4    4    0    0 -0.49134477366E+01 -0.28335750676E+01 -0.53580799260E+01  0.78025724487E+01  0.00000000000E+00 0. -1.
</event>
<event>
 8    1  0.2401501E-006  0.9118800E+02  0.7816164E-02  0.1184000E+00
        -11   -1    0    0    0    0  0.00000000000E+00  0.00000000000E+00  0.45593999997E+02  0.45594000000E+02  0.51100000000E-03 0.  1.
         11   -1    0    0    0    0 -0.00000000000E+00 -0.00000000000E+00 -0.45593999997E+02  0.45594000000E+02  0.51100000000E-03 0. -1.
         23    2    1    2    0    0 -0.88817841970E-15 -0.71054273576E-14  0.00000000000E+00  0.91188000000E+02  0.91188000000E+02 0.  0.
    9900012    2    3    3    0    0 -0.79268592267E+01  0.30751480550E+02  0.18635745797E+02  0.54367086450E+02  0.40000005180E+02 0.  0.
         12    1    3    3    0    0  0.79268592267E+01 -0.30751480550E+02 -0.18635745797E+02  0.36820913550E+02  0.00000000000E+00 0. -1.
         11    1    4    4    0    0  0.20855212107E+01 -0.10336414521E+01  0.49860207228E+00  0.23804238403E+01  0.51100000000E-03 0. -1.
        -11    1    4    4    0    0 -0.21115192123E+02  0.29371637748E+02  0.86723595745E+01  0.37198847606E+02  0.51100000000E-03 0.  1.
        -12    1    4    4    0    0  0.11102811685E+02  0.24134842541E+01  0.94647841506E+01  0.14787815004E+02  0.00000000000E+00 0.  1.
</event>
<event>
 8    1  0.2401501E-006  0.9118800E+02  0.7816164E-02  0.1184000E+00
        -11   -1    0    0    0    0  0.00000000000E+00  0.00000000000E+00  0.45593999997E+02  0.45594000000E+02  0.51100000000E-03 0. -1.
         11   -1    0    0    0    0 -0.00000000000E+00 -0.00000000000E+00 -0.45593999997E+02  0.45594000000E+02  0.51100000000E-03 0.  1.
         23    2    1    2    0    0  0.00000000000E+00  0.17763568394E-14  0.00000000000E+00  0.91188000000E+02  0.91188000000E+02 0.  0.
    9900012    2    3    3    0    0 -0.90600343325E+01 -0.14458987670E+02  0.32628716845E+02  0.54367085977E+02  0.40000004102E+02 0.  0.
         12    1    3    3    0    0  0.90600343325E+01  0.14458987670E+02 -0.32628716845E+02  0.36820914023E+02  0.00000000000E+00 0. -1.
         11    1    4    4    0    0  0.11919668597E+01 -0.87743602057E+01  0.79093755905E+01  0.11873011602E+02  0.51100000000E-03 0. -1.
        -11    1    4    4    0    0 -0.11684281407E+02 -0.16357731768E+02  0.61391355894E+01  0.21018725143E+02  0.51100000000E-03 0.  1.
         12    1    4    4    0    0  0.14322802147E+01  0.10673104304E+02  0.18580205665E+02  0.21475349232E+02  0.00000000000E+00 0. -1.
</event>
<event>
 8    1  0.2401501E-006  0.9118800E+02  0.7816164E-02  0.1184000E+00
        -11   -1    0    0    0    0  0.00000000000E+00  0.00000000000E+00  0.45593999997E+02  0.45594000000E+02  0.51100000000E-03 0.  1.
         11   -1    0    0    0    0 -0.00000000000E+00 -0.00000000000E+00 -0.45593999997E+02  0.45594000000E+02  0.51100000000E-03 0. -1.
         23    2    1    2    0    0  0.00000000000E+00 -0.88817841970E-15  0.71054273576E-14  0.91188000000E+02  0.91188000000E+02 0.  0.
    9900012    2    3    3    0    0 -0.17258775691E+02  0.38392522792E+01  0.32298215594E+02  0.54367083023E+02  0.39999997369E+02 0.  0.
         12    1    3    3    0    0  0.17258775691E+02 -0.38392522792E+01 -0.32298215594E+02  0.36820916977E+02  0.00000000000E+00 0. -1.
         11    1    4    4    0    0 -0.85532128803E+00  0.16287791775E+02  0.11696142044E+02  0.20070462735E+02  0.51100000000E-03 0. -1.
        -11    1    4    4    0    0 -0.19219837420E+01 -0.12587753391E+02  0.11729768293E+02  0.17312799352E+02  0.51100000000E-03 0.  1.
         12    1    4    4    0    0 -0.14481470661E+02  0.13921389507E+00  0.88723052571E+01  0.16983820936E+02  0.00000000000E+00 0. -1.
</event>
<event>
 8    1  0.2401501E-006  0.9118800E+02  0.7816164E-02  0.1184000E+00
        -11   -1    0    0    0    0  0.00000000000E+00  0.00000000000E+00  0.45593999997E+02  0.45594000000E+02  0.51100000000E-03 0.  1.
         11   -1    0    0    0    0 -0.00000000000E+00 -0.00000000000E+00 -0.45593999997E+02  0.45594000000E+02  0.51100000000E-03 0. -1.
         23    2    1    2    0    0  0.00000000000E+00 -0.35527136788E-14 -0.44408920985E-15  0.91188000000E+02  0.91188000000E+02 0.  0.
    9900012    2    3    3    0    0  0.20780286164E+02  0.30206041515E+02 -0.33992460332E+01  0.54367080529E+02  0.39999991682E+02 0.  0.
         12    1    3    3    0    0 -0.20780286164E+02 -0.30206041515E+02  0.33992460332E+01  0.36820919471E+02  0.00000000000E+00 0. -1.
         11    1    4    4    0    0  0.13223710596E+02 -0.49967937117E+01  0.31087537366E+01  0.14474074042E+02  0.51100000000E-03 0. -1.
        -11    1    4    4    0    0  0.12214140142E+01  0.18705769629E+02 -0.10899294378E+02  0.21683917723E+02  0.51100000000E-03 0.  1.
        -12    1    4    4    0    0  0.63351615538E+01  0.16497065598E+02  0.43912946087E+01  0.18209088763E+02  0.00000000000E+00 0.  1.
</event>
<event>
 8    1  0.2401501E-006  0.9118800E+02  0.7816164E-02  0.1184000E+00
        -11   -1    0    0    0    0  0.00000000000E+00  0.00000000000E+00  0.45593999997E+02  0.45594000000E+02  0.51100000000E-03 0.  1.
         11   -1    0    0    0    0 -0.00000000000E+00 -0.00000000000E+00 -0.45593999997E+02  0.45594000000E+02  0.51100000000E-03 0. -1.
         23    2    1    2    0    0  0.00000000000E+00  0.00000000000E+00 -0.88817841970E-15  0.91188000000E+02  0.91188000000E+02 0.  0.
    9900012    2    3    3    0    0  0.16638920106E+02  0.32019015739E+02 -0.73285515232E+01  0.54367099704E+02  0.40000035395E+02 0.  0.
        -12    1    3    3    0    0 -0.16638920106E+02 -0.32019015739E+02  0.73285515232E+01  0.36820900296E+02  0.00000000000E+00 0.  1.
         11    1    4    4    0    0 -0.19038758907E+01  0.21376989542E+02 -0.93583495460E+01  0.23413225574E+02  0.51100000000E-03 0. -1.
        -11    1    4    4    0    0 -0.21095255703E+01  0.50619113174E+01  0.70971832438E+01  0.89690052166E+01  0.51100000000E-03 0.  1.
        -12    1    4    4    0    0  0.20652321567E+02  0.55801148795E+01 -0.50673852210E+01  0.21984868913E+02  0.00000000000E+00 0.  1.
</event>
<event>
 8    1  0.2401501E-006  0.9118800E+02  0.7816164E-02  0.1184000E+00
        -11   -1    0    0    0    0  0.00000000000E+00  0.00000000000E+00  0.45593999997E+02  0.45594000000E+02  0.51100000000E-03 0. -1.
         11   -1    0    0    0    0 -0.00000000000E+00 -0.00000000000E+00 -0.45593999997E+02  0.45594000000E+02  0.51100000000E-03 0.  1.
         23    2    1    2    0    0  0.00000000000E+00  0.00000000000E+00  0.00000000000E+00  0.91188000000E+02  0.91188000000E+02 0.  0.
    9900012    2    3    3    0    0 -0.31040637527E+02  0.17718672085E+02  0.88491989400E+01  0.54367070620E+02  0.39999969092E+02 0.  0.
        -12    1    3    3    0    0  0.31040637527E+02 -0.17718672085E+02 -0.88491989400E+01  0.36820929380E+02  0.00000000000E+00 0.  1.
         11    1    4    4    0    0  0.33357472771E+01  0.10551655474E+02  0.32469970773E+01  0.11532893540E+02  0.51100000000E-03 0. -1.
        -11    1    4    4    0    0 -0.16099450243E+01  0.94354406967E+01  0.40243830937E+00  0.95802620516E+01  0.51100000000E-03 0.  1.
         12    1    4    4    0    0 -0.32766439780E+02 -0.22684240853E+01  0.51997635533E+01  0.33253915028E+02  0.00000000000E+00 0. -1.
</event>
<event>
 8    1  0.2401501E-006  0.9118800E+02  0.7816164E-02  0.1184000E+00
        -11   -1    0    0    0    0  0.00000000000E+00  0.00000000000E+00  0.45593999997E+02  0.45594000000E+02  0.51100000000E-03 0.  1.
         11   -1    0    0    0    0 -0.00000000000E+00 -0.00000000000E+00 -0.45593999997E+02  0.45594000000E+02  0.51100000000E-03 0. -1.
         23    2    1    2    0    0  0.00000000000E+00 -0.17763568394E-14  0.00000000000E+00  0.91188000000E+02  0.91188000000E+02 0.  0.
    9900012    2    3    3    0    0 -0.72959315595E+01  0.12847234218E+02  0.33726810802E+02  0.54367084595E+02  0.40000000951E+02 0.  0.
         12    1    3    3    0    0  0.72959315595E+01 -0.12847234218E+02 -0.33726810802E+02  0.36820915405E+02  0.00000000000E+00 0. -1.
         11    1    4    4    0    0 -0.13238608014E+02 -0.59703576407E+01  0.32830338467E+01  0.14889063906E+02  0.51100000000E-03 0. -1.
        -11    1    4    4    0    0  0.89456927981E+01  0.11081306918E+02  0.99649512959E+01  0.17381629304E+02  0.51100000000E-03 0.  1.
        -12    1    4    4    0    0 -0.30030163434E+01  0.77362849407E+01  0.20478825660E+02  0.22096391385E+02  0.00000000000E+00 0.  1.
</event>
<event>
 8    1  0.2401501E-006  0.9118800E+02  0.7816164E-02  0.1184000E+00
        -11   -1    0    0    0    0  0.00000000000E+00  0.00000000000E+00  0.45593999997E+02  0.45594000000E+02  0.51100000000E-03 0.  1.
         11   -1    0    0    0    0 -0.00000000000E+00 -0.00000000000E+00 -0.45593999997E+02  0.45594000000E+02  0.51100000000E-03 0. -1.
         23    2    1    2    0    0  0.00000000000E+00  0.00000000000E+00  0.00000000000E+00  0.91188000000E+02  0.91188000000E+02 0.  0.
    9900012    2    3    3    0    0  0.12728429710E+02 -0.11620163558E+02  0.32538269708E+02  0.54367080408E+02  0.39999991406E+02 0.  0.
         12    1    3    3    0    0 -0.12728429710E+02  0.11620163558E+02 -0.32538269708E+02  0.36820919592E+02  0.00000000000E+00 0. -1.
         11    1    4    4    0    0  0.94706255368E+01 -0.20443939591E+02  0.86195575188E+01  0.24123519357E+02  0.51100000000E-03 0. -1.
        -11    1    4    4    0    0  0.69468327804E+01 -0.12208155431E+01  0.13889076525E+02  0.15577397833E+02  0.51100000000E-03 0.  1.
         12    1    4    4    0    0 -0.36890286070E+01  0.10044591576E+02  0.10029635665E+02  0.14666163219E+02  0.00000000000E+00 0. -1.
</event>
<event>
 8    1  0.2401501E-006  0.9118800E+02  0.7816164E-02  0.1184000E+00
        -11   -1    0    0    0    0  0.00000000000E+00  0.00000000000E+00  0.45593999997E+02  0.45594000000E+02  0.51100000000E-03 0.  1.
         11   -1    0    0    0    0 -0.00000000000E+00 -0.00000000000E+00 -0.45593999997E+02  0.45594000000E+02  0.51100000000E-03 0. -1.
         23    2    1    2    0    0  0.17763568394E-14  0.00000000000E+00  0.00000000000E+00  0.91188000000E+02  0.91188000000E+02 0.  0.
    9900012    2    3    3    0    0  0.15422956953E+02  0.32812506685E+02  0.64231346672E+01  0.54367016103E+02  0.39999844811E+02 0.  0.
         12    1    3    3    0    0 -0.15422956953E+02 -0.32812506685E+02 -0.64231346672E+01  0.36820983897E+02  0.00000000000E+00 0. -1.
         11    1    4    4    0    0  0.39337261526E+01  0.29580487685E+00  0.94821384604E+01  0.10269987927E+02  0.51100000000E-03 0. -1.
        -11    1    4    4    0    0  0.10597034253E+02  0.12217134425E+01  0.49818816609E+01  0.11773226569E+02  0.51100000000E-03 0.  1.
         12    1    4    4    0    0  0.89219654779E+00  0.31294988366E+02 -0.80408854541E+01  0.32323801608E+02  0.00000000000E+00 0. -1.
</event>
<event>
 8    1  0.2401501E-006  0.9118800E+02  0.7816164E-02  0.1184000E+00
        -11   -1    0    0    0    0  0.00000000000E+00  0.00000000000E+00  0.45593999997E+02  0.45594000000E+02  0.51100000000E-03 0. -1.
         11   -1    0    0    0    0 -0.00000000000E+00 -0.00000000000E+00 -0.45593999997E+02  0.45594000000E+02  0.51100000000E-03 0.  1.
         23    2    1    2    0    0  0.00000000000E+00 -0.88817841970E-15  0.00000000000E+00  0.91188000000E+02  0.91188000000E+02 0.  0.
    9900012    2    3    3    0    0  0.10276083812E+02  0.56965964338E+01  0.34895997526E+02  0.54367085389E+02  0.40000002762E+02 0.  0.
        -12    1    3    3    0    0 -0.10276083812E+02 -0.56965964338E+01 -0.34895997526E+02  0.36820914611E+02  0.00000000000E+00 0.  1.
         11    1    4    4    0    0  0.76885953947E+01 -0.30758615582E+01  0.22997900841E+02  0.24443380838E+02  0.51100000000E-03 0. -1.
        -11    1    4    4    0    0 -0.32256163383E+00  0.94781616339E+01  0.19537949523E+02  0.21717989451E+02  0.51100000000E-03 0.  1.
        -12    1    4    4    0    0  0.29100500509E+01 -0.70570364188E+00 -0.76398528372E+01  0.82057151001E+01  0.00000000000E+00 0.  1.
</event>
<event>
 8    1  0.2401501E-006  0.9118800E+02  0.7816164E-02  0.1184000E+00
        -11   -1    0    0    0    0  0.00000000000E+00  0.00000000000E+00  0.45593999997E+02  0.45594000000E+02  0.51100000000E-03 0.  1.
         11   -1    0    0    0    0 -0.00000000000E+00 -0.00000000000E+00 -0.45593999997E+02  0.45594000000E+02  0.51100000000E-03 0. -1.
         23    2    1    2    0    0  0.00000000000E+00  0.00000000000E+00 -0.17763568394E-14  0.91188000000E+02  0.91188000000E+02 0.  0.
    9900012    2    3    3    0    0  0.11797923345E+02 -0.33324357640E+02 -0.10299205826E+02  0.54367116686E+02  0.40000074110E+02 0.  0.
        -12    1    3    3    0    0 -0.11797923345E+02  0.33324357640E+02  0.10299205826E+02  0.36820883314E+02  0.00000000000E+00 0.  1.
         11    1    4    4    0    0 -0.95693148280E+01 -0.16431740060E+02 -0.88009728675E+01  0.20953066395E+02  0.51100000000E-03 0. -1.
        -11    1    4    4    0    0  0.13617613797E+02 -0.52906517762E+01  0.78838700877E+01  0.16600777379E+02  0.51100000000E-03 0.  1.
         12    1    4    4    0    0  0.77496243760E+01 -0.11601965803E+02 -0.93821030458E+01  0.16813272913E+02  0.00000000000E+00 0. -1.
</event>
<event>
 8    1  0.2401501E-006  0.9118800E+02  0.7816164E-02  0.1184000E+00
        -11   -1    0    0    0    0  0.00000000000E+00  0.00000000000E+00  0.45593999997E+02  0.45594000000E+02  0.51100000000E-03 0. -1.
         11   -1    0    0    0    0 -0.00000000000E+00 -0.00000000000E+00 -0.45593999997E+02  0.45594000000E+02  0.51100000000E-03 0.  1.
         23    2    1    2    0    0  0.00000000000E+00 -0.71054273576E-14  0.35527136788E-14  0.91188000000E+02  0.91188000000E+02 0.  0.
    9900012    2    3    3    0    0  0.80971952908E+01 -0.27698393773E+02  0.22869475818E+02  0.54367102219E+02  0.40000041129E+02 0.  0.
        -12    1    3    3    0    0 -0.80971952908E+01  0.27698393773E+02 -0.22869475818E+02  0.36820897781E+02  0.00000000000E+00 0.  1.
         11    1    4    4    0    0 -0.44458079631E+01  0.74115413957E+01  0.13631765426E+01  0.87495374079E+01  0.51100000000E-03 0.  1.
        -11    1    4    4    0    0 -0.11212182703E+01 -0.51455730562E+01  0.89257990158E+01  0.10363587256E+02  0.51100000000E-03 0. -1.
        -12    1    4    4    0    0  0.13664221524E+02 -0.29964362113E+02  0.12580500259E+02  0.35253977555E+02  0.00000000000E+00 0.  1.
</event>
<event>
 8    1  0.2401501E-006  0.9118800E+02  0.7816164E-02  0.1184000E+00
        -11   -1    0    0    0    0  0.00000000000E+00  0.00000000000E+00  0.45593999997E+02  0.45594000000E+02  0.51100000000E-03 0.  1.
         11   -1    0    0    0    0 -0.00000000000E+00 -0.00000000000E+00 -0.45593999997E+02  0.45594000000E+02  0.51100000000E-03 0. -1.
         23    2    1    2    0    0  0.00000000000E+00  0.00000000000E+00  0.35527136788E-14  0.91188000000E+02  0.91188000000E+02 0.  0.
    9900012    2    3    3    0    0 -0.23607260290E+02 -0.16711252816E+02 -0.22786210182E+02  0.54367080898E+02  0.39999992523E+02 0.  0.
        -12    1    3    3    0    0  0.23607260290E+02  0.16711252816E+02  0.22786210182E+02  0.36820919102E+02  0.00000000000E+00 0.  1.
         11    1    4    4    0    0 -0.14283575467E+02 -0.11239236711E+02 -0.44759999580E+01  0.18718321128E+02  0.51100000000E-03 0. -1.
        -11    1    4    4    0    0 -0.17717889002E+02 -0.69094789445E+01 -0.46934375759E+01  0.19588079194E+02  0.51100000000E-03 0.  1.
        -12    1    4    4    0    0  0.83942041788E+01  0.14374628398E+01 -0.13616772648E+02  0.16060680576E+02  0.00000000000E+00 0.  1.
</event>
<event>
 8    1  0.2401501E-006  0.9118800E+02  0.7816164E-02  0.1184000E+00
        -11   -1    0    0    0    0  0.00000000000E+00  0.00000000000E+00  0.45593999997E+02  0.45594000000E+02  0.51100000000E-03 0. -1.
         11   -1    0    0    0    0 -0.00000000000E+00 -0.00000000000E+00 -0.45593999997E+02  0.45594000000E+02  0.51100000000E-03 0.  1.
         23    2    1    2    0    0  0.00000000000E+00  0.00000000000E+00  0.35527136788E-14  0.91188000000E+02  0.91188000000E+02 0.  0.
    9900012    2    3    3    0    0  0.26937224236E+02 -0.17912129155E+02 -0.17587503993E+02  0.54367099453E+02  0.40000034822E+02 0.  0.
         12    1    3    3    0    0 -0.26937224236E+02  0.17912129155E+02  0.17587503993E+02  0.36820900547E+02  0.00000000000E+00 0. -1.
         11    1    4    4    0    0  0.23552681982E+02 -0.51098559367E-01 -0.21763378068E+02  0.32068303116E+02  0.51100000000E-03 0. -1.
        -11    1    4    4    0    0  0.70898242009E+01 -0.12823370527E+02 -0.22057890941E+00  0.14654456462E+02  0.51100000000E-03 0.  1.
         12    1    4    4    0    0 -0.37052819470E+01 -0.50376600693E+01  0.43964529839E+01  0.76443398747E+01  0.00000000000E+00 0. -1.
</event>
<event>
 8    1  0.2401501E-006  0.9118800E+02  0.7816164E-02  0.1184000E+00
        -11   -1    0    0    0    0  0.00000000000E+00  0.00000000000E+00  0.45593999997E+02  0.45594000000E+02  0.51100000000E-03 0.  1.
         11   -1    0    0    0    0 -0.00000000000E+00 -0.00000000000E+00 -0.45593999997E+02  0.45594000000E+02  0.51100000000E-03 0. -1.
         23    2    1    2    0    0  0.00000000000E+00 -0.71054273576E-14 -0.35527136788E-14  0.91188000000E+02  0.91188000000E+02 0.  0.
    9900012    2    3    3    0    0 -0.43543810345E+01  0.18416629387E+02  0.31585543421E+02  0.54367089835E+02  0.40000012897E+02 0.  0.
         12    1    3    3    0    0  0.43543810345E+01 -0.18416629387E+02 -0.31585543421E+02  0.36820910165E+02  0.00000000000E+00 0. -1.
         11    1    4    4    0    0 -0.35931736516E+01 -0.50437835804E+01  0.13374902831E+01  0.63355765496E+01  0.51100000000E-03 0. -1.
        -11    1    4    4    0    0 -0.12464196327E+02  0.64642288467E+01  0.21363652027E+02  0.25564586304E+02  0.51100000000E-03 0.  1.
         12    1    4    4    0    0  0.11702988945E+02  0.16996184121E+02  0.88844011105E+01  0.22466926982E+02  0.00000000000E+00 0. -1.
</event>
<event>
 8    1  0.2401501E-006  0.9118800E+02  0.7816164E-02  0.1184000E+00
        -11   -1    0    0    0    0  0.00000000000E+00  0.00000000000E+00  0.45593999997E+02  0.45594000000E+02  0.51100000000E-03 0. -1.
         11   -1    0    0    0    0 -0.00000000000E+00 -0.00000000000E+00 -0.45593999997E+02  0.45594000000E+02  0.51100000000E-03 0.  1.
         23    2    1    2    0    0  0.00000000000E+00  0.00000000000E+00  0.35527136788E-14  0.91188000000E+02  0.91188000000E+02 0.  0.
    9900012    2    3    3    0    0  0.13949067262E+02  0.19084190413E+02 -0.28231143964E+02  0.54367078084E+02  0.39999986109E+02 0.  0.
         12    1    3    3    0    0 -0.13949067262E+02 -0.19084190413E+02  0.28231143964E+02  0.36820921916E+02  0.00000000000E+00 0. -1.
         11    1    4    4    0    0 -0.10384822273E+01 -0.70539657800E+01 -0.17196296961E+01  0.73344396592E+01  0.51100000000E-03 0. -1.
        -11    1    4    4    0    0  0.13800296973E+02  0.13038984671E+02 -0.27963668125E+02  0.33799852856E+02  0.51100000000E-03 0.  1.
        -12    1    4    4    0    0  0.11872525159E+01  0.13099171522E+02  0.14521538573E+01  0.13232785569E+02  0.00000000000E+00 0.  1.
</event>
<event>
 8    1  0.2401501E-006  0.9118800E+02  0.7816164E-02  0.1184000E+00
        -11   -1    0    0    0    0  0.00000000000E+00  0.00000000000E+00  0.45593999997E+02  0.45594000000E+02  0.51100000000E-03 0.  1.
         11   -1    0    0    0    0 -0.00000000000E+00 -0.00000000000E+00 -0.45593999997E+02  0.45594000000E+02  0.51100000000E-03 0. -1.
         23    2    1    2    0    0 -0.17763568394E-14  0.00000000000E+00 -0.35527136788E-14  0.91188000000E+02  0.91188000000E+02 0.  0.
    9900012    2    3    3    0    0  0.12359246961E+02 -0.32703046034E+02  0.11555944901E+02  0.54367081111E+02  0.39999993008E+02 0.  0.
         12    1    3    3    0    0 -0.12359246961E+02  0.32703046034E+02 -0.11555944901E+02  0.36820918889E+02  0.00000000000E+00 0. -1.
         11    1    4    4    0    0  0.46435240626E+01  0.49266780727E+01  0.81359858826E+00  0.68188280134E+01  0.51100000000E-03 0. -1.
        -11    1    4    4    0    0  0.85232401868E+01 -0.18483931494E+02 -0.69087652372E+01  0.21494938570E+02  0.51100000000E-03 0.  1.
         12    1    4    4    0    0 -0.80751728844E+00 -0.19145792613E+02  0.17651111550E+02  0.26053314528E+02  0.00000000000E+00 0. -1.
</event>
<event>
 8    1  0.2401501E-006  0.9118800E+02  0.7816164E-02  0.1184000E+00
        -11   -1    0    0    0    0  0.00000000000E+00  0.00000000000E+00  0.45593999997E+02  0.45594000000E+02  0.51100000000E-03 0. -1.
         11   -1    0    0    0    0 -0.00000000000E+00 -0.00000000000E+00 -0.45593999997E+02  0.45594000000E+02  0.51100000000E-03 0.  1.
         23    2    1    2    0    0  0.00000000000E+00 -0.88817841970E-15 -0.35527136788E-14  0.91188000000E+02  0.91188000000E+02 0.  0.
    9900012    2    3    3    0    0  0.29877185017E+02 -0.77596281020E+01 -0.20072898258E+02  0.54367092118E+02  0.40000018101E+02 0.  0.
         12    1    3    3    0    0 -0.29877185017E+02  0.77596281020E+01  0.20072898258E+02  0.36820907882E+02  0.00000000000E+00 0. -1.
         11    1    4    4    0    0  0.42648200154E+01 -0.14822850200E+02 -0.17919284571E+02  0.23643314860E+02  0.51100000000E-03 0. -1.
        -11    1    4    4    0    0  0.16603682762E+02  0.75294659588E+01 -0.80684682573E+01  0.19936783069E+02  0.51100000000E-03 0.  1.
         12    1    4    4    0    0  0.90086822393E+01 -0.46624386094E+00  0.59148545697E+01  0.10786994188E+02  0.00000000000E+00 0. -1.
</event>
<event>
 8    1  0.2401501E-006  0.9118800E+02  0.7816164E-02  0.1184000E+00
        -11   -1    0    0    0    0  0.00000000000E+00  0.00000000000E+00  0.45593999997E+02  0.45594000000E+02  0.51100000000E-03 0. -1.
         11   -1    0    0    0    0 -0.00000000000E+00 -0.00000000000E+00 -0.45593999997E+02  0.45594000000E+02  0.51100000000E-03 0.  1.
         23    2    1    2    0    0  0.35527136788E-14  0.00000000000E+00 -0.35527136788E-14  0.91188000000E+02  0.91188000000E+02 0.  0.
    9900012    2    3    3    0    0  0.24301466107E+02  0.11684831426E+02 -0.25073557528E+02  0.54367084374E+02  0.40000000448E+02 0.  0.
         12    1    3    3    0    0 -0.24301466107E+02 -0.11684831426E+02  0.25073557528E+02  0.36820915626E+02  0.00000000000E+00 0. -1.
         11    1    4    4    0    0  0.11994545757E+02  0.14212411594E-01  0.61226801692E+01  0.13466868330E+02  0.51100000000E-03 0. -1.
        -11    1    4    4    0    0  0.14827538586E+02  0.98881028495E+01 -0.12066105325E+02  0.21522578295E+02  0.51100000000E-03 0.  1.
        -12    1    4    4    0    0 -0.25206182353E+01  0.17825161648E+01 -0.19130132372E+02  0.19377637749E+02  0.00000000000E+00 0.  1.
</event>
<event>
 8    1  0.2401501E-006  0.9118800E+02  0.7816164E-02  0.1184000E+00
        -11   -1    0    0    0    0  0.00000000000E+00  0.00000000000E+00  0.45593999997E+02  0.45594000000E+02  0.51100000000E-03 0.  1.
         11   -1    0    0    0    0 -0.00000000000E+00 -0.00000000000E+00 -0.45593999997E+02  0.45594000000E+02  0.51100000000E-03 0. -1.
         23    2    1    2    0    0 -0.88817841970E-15 -0.35527136788E-14  0.35527136788E-14  0.91188000000E+02  0.91188000000E+02 0.  0.
    9900012    2    3    3    0    0  0.46692820587E+01 -0.19419845423E+02 -0.30932961302E+02  0.54367072715E+02  0.39999973869E+02 0.  0.
        -12    1    3    3    0    0 -0.46692820587E+01  0.19419845423E+02  0.30932961302E+02  0.36820927285E+02  0.00000000000E+00 0.  1.
         11    1    4    4    0    0  0.35027452922E+01 -0.22311391012E+01 -0.11590419209E+02  0.12311987003E+02  0.51100000000E-03 0.  1.
        -11    1    4    4    0    0  0.34048992944E+01 -0.79846100825E+01 -0.27943381459E+02  0.29260552028E+02  0.51100000000E-03 0. -1.
        -12    1    4    4    0    0 -0.22383625279E+01 -0.92040962397E+01  0.86008393656E+01  0.12794533684E+02  0.00000000000E+00 0.  1.
</event>
<event>
 8    1  0.2401501E-006  0.9118800E+02  0.7816164E-02  0.1184000E+00
        -11   -1    0    0    0    0  0.00000000000E+00  0.00000000000E+00  0.45593999997E+02  0.45594000000E+02  0.51100000000E-03 0. -1.
         11   -1    0    0    0    0 -0.00000000000E+00 -0.00000000000E+00 -0.45593999997E+02  0.45594000000E+02  0.51100000000E-03 0.  1.
         23    2    1    2    0    0 -0.44408920985E-15  0.00000000000E+00  0.00000000000E+00  0.91188000000E+02  0.91188000000E+02 0.  0.
    9900012    2    3    3    0    0  0.32740525223E+01 -0.22742676389E+02  0.28772054522E+02  0.54367083788E+02  0.39999999112E+02 0.  0.
        -12    1    3    3    0    0 -0.32740525223E+01  0.22742676389E+02 -0.28772054522E+02  0.36820916212E+02  0.00000000000E+00 0.  1.
         11    1    4    4    0    0  0.57061496463E+01 -0.15507220825E+02  0.17645709111E+02  0.24174471903E+02  0.51100000000E-03 0. -1.
        -11    1    4    4    0    0 -0.22397510351E+01 -0.12484959956E+02 -0.46924548774E+01  0.13524416544E+02  0.51100000000E-03 0.  1.
        -12    1    4    4    0    0 -0.19234608882E+00  0.52495043922E+01  0.15818800288E+02  0.16668195341E+02  0.00000000000E+00 0.  1.
</event>
<event>
 8    1  0.2401501E-006  0.9118800E+02  0.7816164E-02  0.1184000E+00
        -11   -1    0    0    0    0  0.00000000000E+00  0.00000000000E+00  0.45593999997E+02  0.45594000000E+02  0.51100000000E-03 0.  1.
         11   -1    0    0    0    0 -0.00000000000E+00 -0.00000000000E+00 -0.45593999997E+02  0.45594000000E+02  0.51100000000E-03 0. -1.
         23    2    1    2    0    0  0.71054273576E-14 -0.17763568394E-14  0.00000000000E+00  0.91188000000E+02  0.91188000000E+02 0.  0.
    9900012    2    3    3    0    0 -0.32712013276E+02  0.11155067262E+02  0.12699137308E+02  0.54367089819E+02  0.40000012861E+02 0.  0.
         12    1    3    3    0    0  0.32712013276E+02 -0.11155067262E+02 -0.12699137308E+02  0.36820910181E+02  0.00000000000E+00 0. -1.
         11    1    4    4    0    0 -0.92303773582E+01  0.68332172489E+01 -0.53760042244E+01  0.12680463155E+02  0.51100000000E-03 0. -1.
        -11    1    4    4    0    0 -0.23515883684E+02  0.66291568860E+01  0.99641750617E+00  0.24452716711E+02  0.51100000000E-03 0.  1.
         12    1    4    4    0    0  0.34247766238E-01 -0.23073068732E+01  0.17078724026E+02  0.17233909953E+02  0.00000000000E+00 0. -1.
</event>
<event>
 8    1  0.2401501E-006  0.9118800E+02  0.7816164E-02  0.1184000E+00
        -11   -1    0    0    0    0  0.00000000000E+00  0.00000000000E+00  0.45593999997E+02  0.45594000000E+02  0.51100000000E-03 0. -1.
         11   -1    0    0    0    0 -0.00000000000E+00 -0.00000000000E+00 -0.45593999997E+02  0.45594000000E+02  0.51100000000E-03 0.  1.
         23    2    1    2    0    0  0.00000000000E+00 -0.35527136788E-14 -0.44408920985E-15  0.91188000000E+02  0.91188000000E+02 0.  0.
    9900012    2    3    3    0    0 -0.22439648577E+02 -0.29117529829E+02 -0.21011390695E+01  0.54367039163E+02  0.39999897379E+02 0.  0.
        -12    1    3    3    0    0  0.22439648577E+02  0.29117529829E+02  0.21011390695E+01  0.36820960837E+02  0.00000000000E+00 0.  1.
         11    1    4    4    0    0 -0.28480787920E+01  0.58515727201E+01  0.50382854499E+01  0.82302355154E+01  0.51100000000E-03 0. -1.
        -11    1    4    4    0    0 -0.36387987358E+01 -0.17220799255E+02 -0.12612166261E+02  0.21653256598E+02  0.51100000000E-03 0.  1.
         12    1    4    4    0    0 -0.15952771049E+02 -0.17748303294E+02  0.54727417414E+01  0.24483547049E+02  0.00000000000E+00 0. -1.
</event>
<event>
 8    1  0.2401501E-006  0.9118800E+02  0.7816164E-02  0.1184000E+00
        -11   -1    0    0    0    0  0.00000000000E+00  0.00000000000E+00  0.45593999997E+02  0.45594000000E+02  0.51100000000E-03 0.  1.
         11   -1    0    0    0    0 -0.00000000000E+00 -0.00000000000E+00 -0.45593999997E+02  0.45594000000E+02  0.51100000000E-03 0. -1.
         23    2    1    2    0    0  0.00000000000E+00  0.88817841970E-15 -0.17763568394E-14  0.91188000000E+02  0.91188000000E+02 0.  0.
    9900012    2    3    3    0    0  0.33001394211E+02 -0.77235894118E+01  0.14388649413E+02  0.54367094455E+02  0.40000023428E+02 0.  0.
        -12    1    3    3    0    0 -0.33001394211E+02  0.77235894118E+01 -0.14388649413E+02  0.36820905545E+02  0.00000000000E+00 0.  1.
         11    1    4    4    0    0  0.21773024602E+02  0.28533498313E+01 -0.28234883842E+01  0.22139970472E+02  0.51100000000E-03 0. -1.
        -11    1    4    4    0    0  0.82531339720E+01 -0.14539389984E+02  0.27544599874E+01  0.16943881832E+02  0.51100000000E-03 0.  1.
        -12    1    4    4    0    0  0.29752356365E+01  0.39624507410E+01  0.14457677810E+02  0.15283242150E+02  0.00000000000E+00 0.  1.
</event>
<event>
 8    1  0.2705048E-006  0.9118800E+02  0.7816164E-02  0.1184000E+00
        -11   -1    0    0    0    0  0.00000000000E+00  0.00000000000E+00  0.45593999997E+02  0.45594000000E+02  0.51100000000E-03 0.  1.
         11   -1    0    0    0    0 -0.00000000000E+00 -0.00000000000E+00 -0.45593999997E+02  0.45594000000E+02  0.51100000000E-03 0. -1.
         23    2    1    2    0    0  0.71054273576E-14  0.35527136788E-14  0.00000000000E+00  0.91188000000E+02  0.91188000000E+02 0.  0.
    9900012    2    3    3    0    0  0.32896589886E+02 -0.13034351460E+02  0.10183381200E+02  0.54367065781E+02  0.39999958060E+02 0.  0.
         12    1    3    3    0    0 -0.32896589886E+02  0.13034351460E+02 -0.10183381200E+02  0.36820934219E+02  0.00000000000E+00 0. -1.
         11    1    4    4    0    0  0.41815698295E+00  0.59604759694E+01  0.73860999832E+01  0.95003474814E+01  0.51100000000E-03 0. -1.
        -11    1    4    4    0    0  0.15224567017E+02  0.39192716330E+01 -0.17753750506E+01  0.15820875065E+02  0.51100000000E-03 0.  1.
        -12    1    4    4    0    0  0.17253865886E+02 -0.22914099063E+02  0.45726562679E+01  0.29045843235E+02  0.00000000000E+00 0.  1.
</event>
<event>
 8    1  0.2401501E-006  0.9118800E+02  0.7816164E-02  0.1184000E+00
        -11   -1    0    0    0    0  0.00000000000E+00  0.00000000000E+00  0.45593999997E+02  0.45594000000E+02  0.51100000000E-03 0. -1.
         11   -1    0    0    0    0 -0.00000000000E+00 -0.00000000000E+00 -0.45593999997E+02  0.45594000000E+02  0.51100000000E-03 0.  1.
         23    2    1    2    0    0  0.00000000000E+00  0.35527136788E-14  0.00000000000E+00  0.91188000000E+02  0.91188000000E+02 0.  0.
    9900012    2    3    3    0    0  0.10474250391E+02  0.27607772995E+02 -0.21997287589E+02  0.54367085939E+02  0.40000004016E+02 0.  0.
         12    1    3    3    0    0 -0.10474250391E+02 -0.27607772995E+02  0.21997287589E+02  0.36820914061E+02  0.00000000000E+00 0. -1.
         11    1    4    4    0    0  0.12764486241E+02  0.16838187995E+02 -0.89510479886E+01  0.22947286208E+02  0.51100000000E-03 0. -1.
        -11    1    4    4    0    0  0.15877368655E+00  0.17511597647E+02 -0.11774813691E+01  0.17551858132E+02  0.51100000000E-03 0.  1.
        -12    1    4    4    0    0 -0.24490095368E+01 -0.67420126475E+01 -0.11868758232E+02  0.13867941600E+02  0.00000000000E+00 0.  1.
</event>
<event>
 8    1  0.2401501E-006  0.9118800E+02  0.7816164E-02  0.1184000E+00
        -11   -1    0    0    0    0  0.00000000000E+00  0.00000000000E+00  0.45593999997E+02  0.45594000000E+02  0.51100000000E-03 0.  1.
         11   -1    0    0    0    0 -0.00000000000E+00 -0.00000000000E+00 -0.45593999997E+02  0.45594000000E+02  0.51100000000E-03 0. -1.
         23    2    1    2    0    0  0.71054273576E-14  0.00000000000E+00 -0.44408920985E-15  0.91188000000E+02  0.91188000000E+02 0.  0.
    9900012    2    3    3    0    0 -0.34408858281E+02  0.12586816563E+02  0.36582528367E+01  0.54367078051E+02  0.39999986033E+02 0.  0.
         12    1    3    3    0    0  0.34408858281E+02 -0.12586816563E+02 -0.36582528367E+01  0.36820921949E+02  0.00000000000E+00 0. -1.
         11    1    4    4    0    0 -0.15296306897E+01  0.15883311952E+02  0.75112437815E+01  0.17636273756E+02  0.51100000000E-03 0. -1.
        -11    1    4    4    0    0 -0.12031001485E+01  0.65340042394E+00  0.36852620644E+01  0.39313533071E+01  0.51100000000E-03 0.  1.
        -12    1    4    4    0    0 -0.31676127442E+02 -0.39498958129E+01 -0.75382530092E+01  0.32799450988E+02  0.00000000000E+00 0.  1.
</event>
<event>
 8    1  0.2401501E-006  0.9118800E+02  0.7816164E-02  0.1184000E+00
        -11   -1    0    0    0    0  0.00000000000E+00  0.00000000000E+00  0.45593999997E+02  0.45594000000E+02  0.51100000000E-03 0.  1.
         11   -1    0    0    0    0 -0.00000000000E+00 -0.00000000000E+00 -0.45593999997E+02  0.45594000000E+02  0.51100000000E-03 0. -1.
         23    2    1    2    0    0 -0.17763568394E-14  0.35527136788E-14  0.00000000000E+00  0.91188000000E+02  0.91188000000E+02 0.  0.
    9900012    2    3    3    0    0 -0.15517955581E+02  0.31831801972E+02  0.10085047226E+02  0.54367099145E+02  0.40000034122E+02 0.  0.
         12    1    3    3    0    0  0.15517955581E+02 -0.31831801972E+02 -0.10085047226E+02  0.36820900855E+02  0.00000000000E+00 0. -1.
         11    1    4    4    0    0  0.26491219304E+01  0.58269239267E+01  0.10513675553E+02  0.12308869296E+02  0.51100000000E-03 0. -1.
        -11    1    4    4    0    0 -0.10871424271E+02  0.30428123043E+02 -0.44665371320E+01  0.32619143027E+02  0.51100000000E-03 0.  1.
         12    1    4    4    0    0 -0.72956532411E+01 -0.44232449979E+01  0.40379088048E+01  0.94390868224E+01  0.00000000000E+00 0. -1.
</event>
<event>
 8    1  0.2401501E-006  0.9118800E+02  0.7816164E-02  0.1184000E+00
        -11   -1    0    0    0    0  0.00000000000E+00  0.00000000000E+00  0.45593999997E+02  0.45594000000E+02  0.51100000000E-03 0.  1.
         11   -1    0    0    0    0 -0.00000000000E+00 -0.00000000000E+00 -0.45593999997E+02  0.45594000000E+02  0.51100000000E-03 0. -1.
         23    2    1    2    0    0  0.00000000000E+00  0.00000000000E+00  0.00000000000E+00  0.91188000000E+02  0.91188000000E+02 0.  0.
    9900012    2    3    3    0    0 -0.21388165811E+02 -0.23883753839E+02 -0.18107807014E+02  0.54367081909E+02  0.39999994827E+02 0.  0.
         12    1    3    3    0    0  0.21388165811E+02  0.23883753839E+02  0.18107807014E+02  0.36820918091E+02  0.00000000000E+00 0. -1.
         11    1    4    4    0    0  0.52122001619E+00 -0.75872806855E+00  0.13063890822E+01  0.15981211726E+01  0.51100000000E-03 0. -1.
        -11    1    4    4    0    0 -0.56601592291E+01 -0.99354289071E+01  0.10988885043E+02  0.15858932651E+02  0.51100000000E-03 0.  1.
         12    1    4    4    0    0 -0.16249226598E+02 -0.13189596864E+02 -0.30403081140E+02  0.36910028085E+02  0.00000000000E+00 0. -1.
</event>
<event>
 8    1  0.2401501E-006  0.9118800E+02  0.7816164E-02  0.1184000E+00
        -11   -1    0    0    0    0  0.00000000000E+00  0.00000000000E+00  0.45593999997E+02  0.45594000000E+02  0.51100000000E-03 0. -1.
         11   -1    0    0    0    0 -0.00000000000E+00 -0.00000000000E+00 -0.45593999997E+02  0.45594000000E+02  0.51100000000E-03 0.  1.
         23    2    1    2    0    0  0.00000000000E+00  0.35527136788E-14  0.71054273576E-14  0.91188000000E+02  0.91188000000E+02 0.  0.
    9900012    2    3    3    0    0  0.17447154990E+01 -0.18042521881E+02 -0.32050006637E+02  0.54367088096E+02  0.40000008933E+02 0.  0.
         12    1    3    3    0    0 -0.17447154990E+01  0.18042521881E+02  0.32050006637E+02  0.36820911904E+02  0.00000000000E+00 0. -1.
         11    1    4    4    0    0  0.12718877012E+01 -0.70148388392E+01  0.87139711431E+01  0.11258727975E+02  0.51100000000E-03 0. -1.
        -11    1    4    4    0    0  0.96022864271E+00 -0.62952749475E+01 -0.92064897367E+01  0.11194283329E+02  0.51100000000E-03 0.  1.
         12    1    4    4    0    0 -0.48740084493E+00 -0.47324080942E+01 -0.31557488043E+02  0.31914076793E+02  0.00000000000E+00 0. -1.
</event>
<event>
 8    1  0.2401501E-006  0.9118800E+02  0.7816164E-02  0.1184000E+00
        -11   -1    0    0    0    0  0.00000000000E+00  0.00000000000E+00  0.45593999997E+02  0.45594000000E+02  0.51100000000E-03 0. -1.
         11   -1    0    0    0    0 -0.00000000000E+00 -0.00000000000E+00 -0.45593999997E+02  0.45594000000E+02  0.51100000000E-03 0.  1.
         23    2    1    2    0    0  0.00000000000E+00  0.00000000000E+00  0.00000000000E+00  0.91188000000E+02  0.91188000000E+02 0.  0.
    9900012    2    3    3    0    0  0.10525017112E+01 -0.80750192154E+01  0.35909144226E+02  0.54367077494E+02  0.39999984762E+02 0.  0.
        -12    1    3    3    0    0 -0.10525017112E+01  0.80750192154E+01 -0.35909144226E+02  0.36820922506E+02  0.00000000000E+00 0.  1.
         11    1    4    4    0    0  0.50896818109E+01 -0.16310362356E+02  0.15741005188E+02  0.23231703031E+02  0.51100000000E-03 0. -1.
        -11    1    4    4    0    0  0.77844476402E+01  0.85815512961E+01  0.74848051824E+01  0.13793583892E+02  0.51100000000E-03 0.  1.
        -12    1    4    4    0    0 -0.11821627740E+02 -0.34620815567E+00  0.12683333856E+02  0.17341790571E+02  0.00000000000E+00 0.  1.
</event>
<event>
 8    1  0.2401501E-006  0.9118800E+02  0.7816164E-02  0.1184000E+00
        -11   -1    0    0    0    0  0.00000000000E+00  0.00000000000E+00  0.45593999997E+02  0.45594000000E+02  0.51100000000E-03 0.  1.
         11   -1    0    0    0    0 -0.00000000000E+00 -0.00000000000E+00 -0.45593999997E+02  0.45594000000E+02  0.51100000000E-03 0. -1.
         23    2    1    2    0    0  0.11102230246E-14 -0.71054273576E-14  0.00000000000E+00  0.91188000000E+02  0.91188000000E+02 0.  0.
    9900012    2    3    3    0    0 -0.29348400243E+00 -0.19786147757E+02 -0.31051625917E+02  0.54367065086E+02  0.39999956475E+02 0.  0.
        -12    1    3    3    0    0  0.29348400243E+00  0.19786147757E+02  0.31051625917E+02  0.36820934914E+02  0.00000000000E+00 0.  1.
         11    1    4    4    0    0 -0.45599882391E+01  0.95659183195E+00 -0.60954820605E+01  0.76722527647E+01  0.51100000000E-03 0. -1.
        -11    1    4    4    0    0 -0.92550493983E+01 -0.21180406898E+01 -0.21392975281E+02  0.23405158136E+02  0.51100000000E-03 0.  1.
        -12    1    4    4    0    0  0.13521553635E+02 -0.18624698899E+02 -0.35631685754E+01  0.23289654185E+02  0.00000000000E+00 0.  1.
</event>
<event>
 8    1  0.2401501E-006  0.9118800E+02  0.7816164E-02  0.1184000E+00
        -11   -1    0    0    0    0  0.00000000000E+00  0.00000000000E+00  0.45593999997E+02  0.45594000000E+02  0.51100000000E-03 0.  1.
         11   -1    0    0    0    0 -0.00000000000E+00 -0.00000000000E+00 -0.45593999997E+02  0.45594000000E+02  0.51100000000E-03 0. -1.
         23    2    1    2    0    0 -0.35527136788E-14  0.35527136788E-14 -0.22204460493E-15  0.91188000000E+02  0.91188000000E+02 0.  0.
    9900012    2    3    3    0    0  0.30054846526E+02 -0.21184685599E+02 -0.19224564827E+01  0.54367074665E+02  0.39999978314E+02 0.  0.
        -12    1    3    3    0    0 -0.30054846526E+02  0.21184685599E+02  0.19224564827E+01  0.36820925335E+02  0.00000000000E+00 0.  1.
         11    1    4    4    0    0 -0.15345571508E+00 -0.63825932600E+01 -0.53340255349E+01  0.83194275072E+01  0.51100000000E-03 0. -1.
        -11    1    4    4    0    0 -0.13758321836E+01 -0.27638948061E+01 -0.94049962478E+01  0.98987869650E+01  0.51100000000E-03 0.  1.
        -12    1    4    4    0    0  0.31584134424E+02 -0.12038197532E+02  0.12816565300E+02  0.36148860193E+02  0.00000000000E+00 0.  1.
</event>
<event>
 8    1  0.2401501E-006  0.9118800E+02  0.7816164E-02  0.1184000E+00
        -11   -1    0    0    0    0  0.00000000000E+00  0.00000000000E+00  0.45593999997E+02  0.45594000000E+02  0.51100000000E-03 0.  1.
         11   -1    0    0    0    0 -0.00000000000E+00 -0.00000000000E+00 -0.45593999997E+02  0.45594000000E+02  0.51100000000E-03 0. -1.
         23    2    1    2    0    0  0.00000000000E+00  0.00000000000E+00  0.00000000000E+00  0.91188000000E+02  0.91188000000E+02 0.  0.
    9900012    2    3    3    0    0 -0.34682611411E+02  0.93341573221E+01 -0.81097203810E+01  0.54367114733E+02  0.40000069656E+02 0.  0.
        -12    1    3    3    0    0  0.34682611411E+02 -0.93341573221E+01  0.81097203810E+01  0.36820885267E+02  0.00000000000E+00 0.  1.
         11    1    4    4    0    0 -0.18344183201E+02  0.14158377831E+02 -0.20542418394E+02  0.30967074028E+02  0.51100000000E-03 0. -1.
        -11    1    4    4    0    0 -0.81491586038E+01  0.27266341326E+01  0.65362149808E+01  0.10796546956E+02  0.51100000000E-03 0.  1.
         12    1    4    4    0    0 -0.81892696065E+01 -0.75508546417E+01  0.58964830326E+01  0.12603493748E+02  0.00000000000E+00 0. -1.
</event>
<event>
 8    1  0.2401501E-006  0.9118800E+02  0.7816164E-02  0.1184000E+00
        -11   -1    0    0    0    0  0.00000000000E+00  0.00000000000E+00  0.45593999997E+02  0.45594000000E+02  0.51100000000E-03 0. -1.
         11   -1    0    0    0    0 -0.00000000000E+00 -0.00000000000E+00 -0.45593999997E+02  0.45594000000E+02  0.51100000000E-03 0.  1.
         23    2    1    2    0    0  0.00000000000E+00  0.88817841970E-15  0.00000000000E+00  0.91188000000E+02  0.91188000000E+02 0.  0.
    9900012    2    3    3    0    0 -0.80090826006E+01  0.72993845366E+01 -0.35190220051E+02  0.54367109110E+02  0.40000056838E+02 0.  0.
         12    1    3    3    0    0  0.80090826006E+01 -0.72993845366E+01  0.35190220051E+02  0.36820890890E+02  0.00000000000E+00 0. -1.
         11    1    4    4    0    0 -0.15285686256E+02 -0.30864490933E+01 -0.51066137421E+01  0.16409018145E+02  0.51100000000E-03 0. -1.
        -11    1    4    4    0    0  0.99870874040E+01  0.79069328555E+01 -0.31533517040E+02  0.34009178161E+02  0.51100000000E-03 0.  1.
        -12    1    4    4    0    0 -0.27104837490E+01  0.24789007744E+01  0.14499107316E+01  0.39489128039E+01  0.00000000000E+00 0.  1.
</event>
<event>
 8    1  0.2401501E-006  0.9118800E+02  0.7816164E-02  0.1184000E+00
        -11   -1    0    0    0    0  0.00000000000E+00  0.00000000000E+00  0.45593999997E+02  0.45594000000E+02  0.51100000000E-03 0.  1.
         11   -1    0    0    0    0 -0.00000000000E+00 -0.00000000000E+00 -0.45593999997E+02  0.45594000000E+02  0.51100000000E-03 0. -1.
         23    2    1    2    0    0  0.00000000000E+00  0.17763568394E-14  0.00000000000E+00  0.91188000000E+02  0.91188000000E+02 0.  0.
    9900012    2    3    3    0    0 -0.33506642069E+02 -0.14939337891E+02  0.31467056575E+01  0.54367073397E+02  0.39999975424E+02 0.  0.
        -12    1    3    3    0    0  0.33506642069E+02  0.14939337891E+02 -0.31467056575E+01  0.36820926603E+02  0.00000000000E+00 0.  1.
         11    1    4    4    0    0 -0.65469807524E+01 -0.58529241306E+01 -0.15193699847E+01  0.89122479354E+01  0.51100000000E-03 0. -1.
        -11    1    4    4    0    0 -0.25210476142E+02 -0.21222038931E+02  0.33872587482E+01  0.33127278273E+02  0.51100000000E-03 0.  1.
        -12    1    4    4    0    0 -0.17491851754E+01  0.12135625170E+02  0.12788168940E+01  0.12327547189E+02  0.00000000000E+00 0.  1.
</event>
<event>
 8    1  0.2401501E-006  0.9118800E+02  0.7816164E-02  0.1184000E+00
        -11   -1    0    0    0    0  0.00000000000E+00  0.00000000000E+00  0.45593999997E+02  0.45594000000E+02  0.51100000000E-03 0.  1.
         11   -1    0    0    0    0 -0.00000000000E+00 -0.00000000000E+00 -0.45593999997E+02  0.45594000000E+02  0.51100000000E-03 0. -1.
         23    2    1    2    0    0  0.22204460493E-15  0.00000000000E+00  0.00000000000E+00  0.91188000000E+02  0.91188000000E+02 0.  0.
    9900012    2    3    3    0    0  0.17755380733E+00  0.36034305523E+02 -0.75681309014E+01  0.54367091467E+02  0.40000016617E+02 0.  0.
        -12    1    3    3    0    0 -0.17755380733E+00 -0.36034305523E+02  0.75681309014E+01  0.36820908533E+02  0.00000000000E+00 0.  1.
         11    1    4    4    0    0  0.25596111551E+00  0.38247021164E+02 -0.12485705383E+02  0.40234226514E+02  0.51100000000E-03 0. -1.
        -11    1    4    4    0    0 -0.28680389139E+01 -0.63317665059E+01 -0.25567717586E+00  0.69557375868E+01  0.51100000000E-03 0.  1.
         12    1    4    4    0    0  0.27896316057E+01  0.41190508643E+01  0.51732516571E+01  0.71771273659E+01  0.00000000000E+00 0. -1.
</event>
<event>
 8    1  0.2401501E-006  0.9118800E+02  0.7816164E-02  0.1184000E+00
        -11   -1    0    0    0    0  0.00000000000E+00  0.00000000000E+00  0.45593999997E+02  0.45594000000E+02  0.51100000000E-03 0. -1.
         11   -1    0    0    0    0 -0.00000000000E+00 -0.00000000000E+00 -0.45593999997E+02  0.45594000000E+02  0.51100000000E-03 0.  1.
         23    2    1    2    0    0  0.88817841970E-15  0.00000000000E+00  0.00000000000E+00  0.91188000000E+02  0.91188000000E+02 0.  0.
    9900012    2    3    3    0    0 -0.73261314853E+01  0.27471286593E+02 -0.23397403293E+02  0.54367051201E+02  0.39999924822E+02 0.  0.
         12    1    3    3    0    0  0.73261314853E+01 -0.27471286593E+02  0.23397403293E+02  0.36820948799E+02  0.00000000000E+00 0. -1.
         11    1    4    4    0    0  0.99447203481E+01  0.33178854865E+01  0.40307937706E+00  0.10491344058E+02  0.51100000000E-03 0. -1.
        -11    1    4    4    0    0 -0.16948427580E+02  0.13731310248E+02 -0.50018917821E+01  0.22378940999E+02  0.51100000000E-03 0.  1.
        -12    1    4    4    0    0 -0.32242425308E+00  0.10422090859E+02 -0.18798590888E+02  0.21496766144E+02  0.00000000000E+00 0.  1.
</event>
<event>
 8    1  0.2401501E-006  0.9118800E+02  0.7816164E-02  0.1184000E+00
        -11   -1    0    0    0    0  0.00000000000E+00  0.00000000000E+00  0.45593999997E+02  0.45594000000E+02  0.51100000000E-03 0.  1.
         11   -1    0    0    0    0 -0.00000000000E+00 -0.00000000000E+00 -0.45593999997E+02  0.45594000000E+02  0.51100000000E-03 0. -1.
         23    2    1    2    0    0  0.00000000000E+00 -0.35527136788E-14  0.00000000000E+00  0.91188000000E+02  0.91188000000E+02 0.  0.
    9900012    2    3    3    0    0 -0.19924269443E+02  0.29619992302E+02  0.90253517090E+01  0.54367116927E+02  0.40000074659E+02 0.  0.
         12    1    3    3    0    0  0.19924269443E+02 -0.29619992302E+02 -0.90253517090E+01  0.36820883073E+02  0.00000000000E+00 0. -1.
         11    1    4    4    0    0 -0.13820418598E+02 -0.50664220968E+01  0.93150651784E+01  0.17419616604E+02  0.51100000000E-03 0. -1.
        -11    1    4    4    0    0 -0.77244947733E+01  0.12641437466E+02 -0.81174275005E+00  0.14836869186E+02  0.51100000000E-03 0.  1.
        -12    1    4    4    0    0  0.16206439281E+01  0.22044976933E+02  0.52202928064E+00  0.22110631137E+02  0.00000000000E+00 0.  1.
</event>
<event>
 8    1  0.2401501E-006  0.9118800E+02  0.7816164E-02  0.1184000E+00
        -11   -1    0    0    0    0  0.00000000000E+00  0.00000000000E+00  0.45593999997E+02  0.45594000000E+02  0.51100000000E-03 0. -1.
         11   -1    0    0    0    0 -0.00000000000E+00 -0.00000000000E+00 -0.45593999997E+02  0.45594000000E+02  0.51100000000E-03 0.  1.
         23    2    1    2    0    0  0.35527136788E-14  0.00000000000E+00  0.00000000000E+00  0.91188000000E+02  0.91188000000E+02 0.  0.
    9900012    2    3    3    0    0  0.20172100664E+02 -0.13017319630E+02 -0.27917925503E+02  0.54367152374E+02  0.40000155466E+02 0.  0.
        -12    1    3    3    0    0 -0.20172100664E+02  0.13017319630E+02  0.27917925503E+02  0.36820847626E+02  0.00000000000E+00 0.  1.
         11    1    4    4    0    0 -0.36079968352E+01 -0.14871159419E+02  0.15156896975E+01  0.15377462052E+02  0.51100000000E-03 0. -1.
        -11    1    4    4    0    0  0.73271527857E+01  0.44363616661E+01 -0.13177732383E+02  0.15716905032E+02  0.51100000000E-03 0.  1.
         12    1    4    4    0    0  0.16452944713E+02 -0.25825218769E+01 -0.16255882817E+02  0.23272785290E+02  0.00000000000E+00 0. -1.
</event>
<event>
 8    1  0.2401501E-006  0.9118800E+02  0.7816164E-02  0.1184000E+00
        -11   -1    0    0    0    0  0.00000000000E+00  0.00000000000E+00  0.45593999997E+02  0.45594000000E+02  0.51100000000E-03 0.  1.
         11   -1    0    0    0    0 -0.00000000000E+00 -0.00000000000E+00 -0.45593999997E+02  0.45594000000E+02  0.51100000000E-03 0. -1.
         23    2    1    2    0    0 -0.88817841970E-15  0.00000000000E+00 -0.35527136788E-14  0.91188000000E+02  0.91188000000E+02 0.  0.
    9900012    2    3    3    0    0  0.21849920162E+01  0.20601818360E+02 -0.30439555542E+02  0.54367141082E+02  0.40000129725E+02 0.  0.
        -12    1    3    3    0    0 -0.21849920162E+01 -0.20601818360E+02  0.30439555542E+02  0.36820858918E+02  0.00000000000E+00 0.  1.
         11    1    4    4    0    0  0.12551821279E+02  0.12516064434E+02 -0.35337430284E+01  0.18074496574E+02  0.51100000000E-03 0.  1.
        -11    1    4    4    0    0 -0.35815773934E+01  0.17468911647E+01 -0.26709426400E+02  0.27005051087E+02  0.51100000000E-03 0. -1.
         12    1    4    4    0    0 -0.67852518699E+01  0.63388627611E+01 -0.19638611383E+00  0.92875934207E+01  0.00000000000E+00 0. -1.
</event>
<event>
 8    1  0.2401501E-006  0.9118800E+02  0.7816164E-02  0.1184000E+00
        -11   -1    0    0    0    0  0.00000000000E+00  0.00000000000E+00  0.45593999997E+02  0.45594000000E+02  0.51100000000E-03 0.  1.
         11   -1    0    0    0    0 -0.00000000000E+00 -0.00000000000E+00 -0.45593999997E+02  0.45594000000E+02  0.51100000000E-03 0. -1.
         23    2    1    2    0    0 -0.88817841970E-15  0.00000000000E+00  0.35527136788E-14  0.91188000000E+02  0.91188000000E+02 0.  0.
    9900012    2    3    3    0    0 -0.11889253652E+01 -0.28977049231E+02  0.22686941886E+02  0.54367078531E+02  0.39999987128E+02 0.  0.
         12    1    3    3    0    0  0.11889253652E+01  0.28977049231E+02 -0.22686941886E+02  0.36820921469E+02  0.00000000000E+00 0. -1.
         11    1    4    4    0    0 -0.16928227160E+01 -0.84008091651E+01  0.15251907842E+02  0.17494568770E+02  0.51100000000E-03 0.  1.
        -11    1    4    4    0    0  0.13879473608E+02 -0.10866081159E+02  0.98119937754E+01  0.20173912102E+02  0.51100000000E-03 0. -1.
        -12    1    4    4    0    0 -0.13375576258E+02 -0.97101589068E+01 -0.23769597313E+01  0.16698597659E+02  0.00000000000E+00 0.  1.
</event>
<event>
 8    1  0.2401501E-006  0.9118800E+02  0.7816164E-02  0.1184000E+00
        -11   -1    0    0    0    0  0.00000000000E+00  0.00000000000E+00  0.45593999997E+02  0.45594000000E+02  0.51100000000E-03 0. -1.
         11   -1    0    0    0    0 -0.00000000000E+00 -0.00000000000E+00 -0.45593999997E+02  0.45594000000E+02  0.51100000000E-03 0.  1.
         23    2    1    2    0    0  0.99920072216E-15  0.00000000000E+00  0.00000000000E+00  0.91188000000E+02  0.91188000000E+02 0.  0.
    9900012    2    3    3    0    0  0.47046251552E+00  0.31641061285E+02 -0.18825561555E+02  0.54367083905E+02  0.39999999378E+02 0.  0.
         12    1    3    3    0    0 -0.47046251552E+00 -0.31641061285E+02  0.18825561555E+02  0.36820916095E+02  0.00000000000E+00 0. -1.
         11    1    4    4    0    0 -0.10919115870E+01 -0.19744047400E+01  0.15914705973E+01  0.27610367463E+01  0.51100000000E-03 0. -1.
        -11    1    4    4    0    0  0.80092564879E+01 -0.41100908260E+01 -0.24724541527E+01  0.93356341984E+01  0.51100000000E-03 0.  1.
        -12    1    4    4    0    0 -0.64468823853E+01  0.37725556851E+02 -0.17944577999E+02  0.42270412960E+02  0.00000000000E+00 0.  1.
</event>
<event>
 8    1  0.2401501E-006  0.9118800E+02  0.7816164E-02  0.1184000E+00
        -11   -1    0    0    0    0  0.00000000000E+00  0.00000000000E+00  0.45593999997E+02  0.45594000000E+02  0.51100000000E-03 0. -1.
         11   -1    0    0    0    0 -0.00000000000E+00 -0.00000000000E+00 -0.45593999997E+02  0.45594000000E+02  0.51100000000E-03 0.  1.
         23    2    1    2    0    0  0.17763568394E-14  0.00000000000E+00 -0.35527136788E-14  0.91188000000E+02  0.91188000000E+02 0.  0.
    9900012    2    3    3    0    0 -0.15720917391E+02  0.26065353065E+02  0.20717868854E+02  0.54367082522E+02  0.39999996226E+02 0.  0.
        -12    1    3    3    0    0  0.15720917391E+02 -0.26065353065E+02 -0.20717868854E+02  0.36820917478E+02  0.00000000000E+00 0.  1.
         11    1    4    4    0    0 -0.14000546454E+02  0.92441609859E+01  0.27307617073E+02  0.32049582896E+02  0.51100000000E-03 0. -1.
        -11    1    4    4    0    0  0.60279355197E+00  0.72085501493E+01  0.36324453165E+01  0.80945175619E+01  0.51100000000E-03 0.  1.
         12    1    4    4    0    0 -0.23231644898E+01  0.96126419301E+01 -0.10222193536E+02  0.14222982064E+02  0.00000000000E+00 0. -1.
</event>
<event>
 8    1  0.2401501E-006  0.9118800E+02  0.7816164E-02  0.1184000E+00
        -11   -1    0    0    0    0  0.00000000000E+00  0.00000000000E+00  0.45593999997E+02  0.45594000000E+02  0.51100000000E-03 0.  1.
         11   -1    0    0    0    0 -0.00000000000E+00 -0.00000000000E+00 -0.45593999997E+02  0.45594000000E+02  0.51100000000E-03 0. -1.
         23    2    1    2    0    0 -0.17763568394E-14  0.00000000000E+00  0.00000000000E+00  0.91188000000E+02  0.91188000000E+02 0.  0.
    9900012    2    3    3    0    0  0.12136344393E+02 -0.19768678468E+02 -0.28595236478E+02  0.54367094894E+02  0.40000024430E+02 0.  0.
        -12    1    3    3    0    0 -0.12136344393E+02  0.19768678468E+02  0.28595236478E+02  0.36820905106E+02  0.00000000000E+00 0.  1.
         11    1    4    4    0    0  0.21879776802E+02 -0.11071094731E+02 -0.20713763328E+02  0.32099124021E+02  0.51100000000E-03 0. -1.
        -11    1    4    4    0    0 -0.33511617616E+01 -0.20055061162E+01  0.50388980102E+01  0.63751732018E+01  0.51100000000E-03 0.  1.
         12    1    4    4    0    0 -0.63922706471E+01 -0.66920776208E+01 -0.12920371160E+02  0.15892797671E+02  0.00000000000E+00 0. -1.
</event>
<event>
 8    1  0.2401501E-006  0.9118800E+02  0.7816164E-02  0.1184000E+00
        -11   -1    0    0    0    0  0.00000000000E+00  0.00000000000E+00  0.45593999997E+02  0.45594000000E+02  0.51100000000E-03 0.  1.
         11   -1    0    0    0    0 -0.00000000000E+00 -0.00000000000E+00 -0.45593999997E+02  0.45594000000E+02  0.51100000000E-03 0. -1.
         23    2    1    2    0    0 -0.71054273576E-14  0.00000000000E+00  0.00000000000E+00  0.91188000000E+02  0.91188000000E+02 0.  0.
    9900012    2    3    3    0    0  0.32238084372E+02  0.12828439886E+02  0.12325462987E+02  0.54367082144E+02  0.39999995364E+02 0.  0.
         12    1    3    3    0    0 -0.32238084372E+02 -0.12828439886E+02 -0.12325462987E+02  0.36820917856E+02  0.00000000000E+00 0. -1.
         11    1    4    4    0    0 -0.67256877507E+01 -0.25191491021E-02  0.79227540961E+01  0.10392541306E+02  0.51100000000E-03 0. -1.
        -11    1    4    4    0    0  0.16123388149E+02  0.13304706722E+02  0.17975018727E+01  0.20981179176E+02  0.51100000000E-03 0.  1.
         12    1    4    4    0    0  0.22840383974E+02 -0.47374768628E+00  0.26052070184E+01  0.22993361662E+02  0.00000000000E+00 0. -1.
</event>
<event>
 8    1  0.2401501E-006  0.9118800E+02  0.7816164E-02  0.1184000E+00
        -11   -1    0    0    0    0  0.00000000000E+00  0.00000000000E+00  0.45593999997E+02  0.45594000000E+02  0.51100000000E-03 0.  1.
         11   -1    0    0    0    0 -0.00000000000E+00 -0.00000000000E+00 -0.45593999997E+02  0.45594000000E+02  0.51100000000E-03 0. -1.
         23    2    1    2    0    0  0.00000000000E+00 -0.35527136788E-14  0.00000000000E+00  0.91188000000E+02  0.91188000000E+02 0.  0.
    9900012    2    3    3    0    0 -0.85862604560E+01 -0.24204388815E+02 -0.26385681472E+02  0.54367075334E+02  0.39999979840E+02 0.  0.
        -12    1    3    3    0    0  0.85862604560E+01  0.24204388815E+02  0.26385681472E+02  0.36820924666E+02  0.00000000000E+00 0.  1.
         11    1    4    4    0    0 -0.60879117214E+01 -0.21735196180E+02 -0.49161537071E+01  0.23100865560E+02  0.51100000000E-03 0. -1.
        -11    1    4    4    0    0  0.90864782760E-01  0.18787775262E+01 -0.25016053507E+02  0.25086669662E+02  0.51100000000E-03 0.  1.
        -12    1    4    4    0    0 -0.25892135174E+01 -0.43479701608E+01  0.35465257421E+01  0.61795401121E+01  0.00000000000E+00 0.  1.
</event>
<event>
 8    1  0.2401501E-006  0.9118800E+02  0.7816164E-02  0.1184000E+00
        -11   -1    0    0    0    0  0.00000000000E+00  0.00000000000E+00  0.45593999997E+02  0.45594000000E+02  0.51100000000E-03 0.  1.
         11   -1    0    0    0    0 -0.00000000000E+00 -0.00000000000E+00 -0.45593999997E+02  0.45594000000E+02  0.51100000000E-03 0. -1.
         23    2    1    2    0    0  0.00000000000E+00 -0.71054273576E-14 -0.17763568394E-14  0.91188000000E+02  0.91188000000E+02 0.  0.
    9900012    2    3    3    0    0  0.22741048812E+02 -0.26548935270E+02 -0.11566179182E+02  0.54367112369E+02  0.40000064268E+02 0.  0.
        -12    1    3    3    0    0 -0.22741048812E+02  0.26548935270E+02  0.11566179182E+02  0.36820887631E+02  0.00000000000E+00 0.  1.
         11    1    4    4    0    0  0.11392996210E+02  0.26907793977E+01 -0.10120327842E+02  0.15474549825E+02  0.51100000000E-03 0. -1.
        -11    1    4    4    0    0  0.37226335644E+01  0.25410329069E+01 -0.41121793907E+01  0.61012186071E+01  0.51100000000E-03 0.  1.
        -12    1    4    4    0    0  0.76254190381E+01 -0.31780747575E+02  0.26663280509E+01  0.32791343937E+02  0.00000000000E+00 0.  1.
</event>
<event>
 8    1  0.2401501E-006  0.9118800E+02  0.7816164E-02  0.1184000E+00
        -11   -1    0    0    0    0  0.00000000000E+00  0.00000000000E+00  0.45593999997E+02  0.45594000000E+02  0.51100000000E-03 0. -1.
         11   -1    0    0    0    0 -0.00000000000E+00 -0.00000000000E+00 -0.45593999997E+02  0.45594000000E+02  0.51100000000E-03 0.  1.
         23    2    1    2    0    0 -0.35527136788E-14  0.00000000000E+00  0.00000000000E+00  0.91188000000E+02  0.91188000000E+02 0.  0.
    9900012    2    3    3    0    0  0.22346271030E+02  0.17198149244E+02 -0.23678005360E+02  0.54367080617E+02  0.39999991883E+02 0.  0.
         12    1    3    3    0    0 -0.22346271030E+02 -0.17198149244E+02  0.23678005360E+02  0.36820919383E+02  0.00000000000E+00 0. -1.
         11    1    4    4    0    0 -0.32257884556E+01  0.19387081329E+01  0.39550519820E+01  0.54595546362E+01  0.51100000000E-03 0. -1.
        -11    1    4    4    0    0 -0.51226125322E+01 -0.14126344751E+01 -0.24840777013E+01  0.58657768115E+01  0.51100000000E-03 0.  1.
        -12    1    4    4    0    0  0.30694672017E+02  0.16672075586E+02 -0.25148979641E+02  0.43041749170E+02  0.00000000000E+00 0.  1.
</event>
<event>
 8    1  0.2401501E-006  0.9118800E+02  0.7816164E-02  0.1184000E+00
        -11   -1    0    0    0    0  0.00000000000E+00  0.00000000000E+00  0.45593999997E+02  0.45594000000E+02  0.51100000000E-03 0. -1.
         11   -1    0    0    0    0 -0.00000000000E+00 -0.00000000000E+00 -0.45593999997E+02  0.45594000000E+02  0.51100000000E-03 0.  1.
         23    2    1    2    0    0 -0.88817841970E-15  0.00000000000E+00  0.00000000000E+00  0.91188000000E+02  0.91188000000E+02 0.  0.
    9900012    2    3    3    0    0 -0.64580004338E+01  0.36202607312E+02  0.18577197093E+01  0.54367005061E+02  0.39999819637E+02 0.  0.
         12    1    3    3    0    0  0.64580004338E+01 -0.36202607312E+02 -0.18577197093E+01  0.36820994939E+02  0.00000000000E+00 0. -1.
         11    1    4    4    0    0 -0.33088145339E+01 -0.67310993120E+01  0.17589021595E-01  0.75004174019E+01  0.51100000000E-03 0. -1.
        -11    1    4    4    0    0 -0.99203127589E+01  0.17115912651E+02 -0.20689905382E+01  0.19890897245E+02  0.51100000000E-03 0.  1.
         12    1    4    4    0    0  0.67711268590E+01  0.25817793972E+02  0.39091212259E+01  0.26975690414E+02  0.00000000000E+00 0. -1.
</event>
<event>
 8    1  0.2401501E-006  0.9118800E+02  0.7816164E-02  0.1184000E+00
        -11   -1    0    0    0    0  0.00000000000E+00  0.00000000000E+00  0.45593999997E+02  0.45594000000E+02  0.51100000000E-03 0. -1.
         11   -1    0    0    0    0 -0.00000000000E+00 -0.00000000000E+00 -0.45593999997E+02  0.45594000000E+02  0.51100000000E-03 0.  1.
         23    2    1    2    0    0 -0.44408920985E-15 -0.35527136788E-14  0.00000000000E+00  0.91188000000E+02  0.91188000000E+02 0.  0.
    9900012    2    3    3    0    0  0.27674265564E+01 -0.27159447502E+02 -0.24708022420E+02  0.54367073745E+02  0.39999976217E+02 0.  0.
         12    1    3    3    0    0 -0.27674265564E+01  0.27159447502E+02  0.24708022420E+02  0.36820926255E+02  0.00000000000E+00 0. -1.
         11    1    4    4    0    0  0.26243657985E+00  0.29926036801E+01 -0.12137252517E+02  0.12503497457E+02  0.51100000000E-03 0. -1.
        -11    1    4    4    0    0  0.39769147520E+01 -0.23595177331E+02 -0.20472420023E+02  0.31490764140E+02  0.51100000000E-03 0.  1.
         12    1    4    4    0    0 -0.14719247754E+01 -0.65568738511E+01  0.79016501201E+01  0.10372812148E+02  0.00000000000E+00 0. -1.
</event>
<event>
 8    1  0.2401501E-006  0.9118800E+02  0.7816164E-02  0.1184000E+00
        -11   -1    0    0    0    0  0.00000000000E+00  0.00000000000E+00  0.45593999997E+02  0.45594000000E+02  0.51100000000E-03 0. -1.
         11   -1    0    0    0    0 -0.00000000000E+00 -0.00000000000E+00 -0.45593999997E+02  0.45594000000E+02  0.51100000000E-03 0.  1.
         23    2    1    2    0    0 -0.35527136788E-14 -0.71054273576E-14  0.00000000000E+00  0.91188000000E+02  0.91188000000E+02 0.  0.
    9900012    2    3    3    0    0  0.16654463812E+02  0.18986737024E+02  0.26793885773E+02  0.54367086615E+02  0.40000005555E+02 0.  0.
        -12    1    3    3    0    0 -0.16654463812E+02 -0.18986737024E+02 -0.26793885773E+02  0.36820913385E+02  0.00000000000E+00 0.  1.
         11    1    4    4    0    0 -0.33063533916E+01  0.21864576411E+01  0.19126903314E+02  0.19533330500E+02  0.51100000000E-03 0. -1.
        -11    1    4    4    0    0 -0.19304805135E+01  0.10623080798E+02 -0.10172474508E+00  0.10797543648E+02  0.51100000000E-03 0.  1.
         12    1    4    4    0    0  0.21891297717E+02  0.61771985854E+01  0.77687072043E+01  0.24036212467E+02  0.00000000000E+00 0. -1.
</event>
<event>
 8    1  0.2401501E-006  0.9118800E+02  0.7816164E-02  0.1184000E+00
        -11   -1    0    0    0    0  0.00000000000E+00  0.00000000000E+00  0.45593999997E+02  0.45594000000E+02  0.51100000000E-03 0.  1.
         11   -1    0    0    0    0 -0.00000000000E+00 -0.00000000000E+00 -0.45593999997E+02  0.45594000000E+02  0.51100000000E-03 0. -1.
         23    2    1    2    0    0  0.88817841970E-15  0.00000000000E+00  0.00000000000E+00  0.91188000000E+02  0.91188000000E+02 0.  0.
    9900012    2    3    3    0    0 -0.68671202277E+01 -0.26205496542E+02 -0.24937773166E+02  0.54367110280E+02  0.40000059506E+02 0.  0.
        -12    1    3    3    0    0  0.68671202277E+01  0.26205496542E+02  0.24937773166E+02  0.36820889720E+02  0.00000000000E+00 0.  1.
         11    1    4    4    0    0 -0.10427385685E+02 -0.11682439067E+02 -0.21527996209E+02  0.26620750849E+02  0.51100000000E-03 0. -1.
        -11    1    4    4    0    0  0.29884627179E+01 -0.86575664793E+01 -0.13350438029E+02  0.16190076053E+02  0.51100000000E-03 0.  1.
        -12    1    4    4    0    0  0.57180273891E+00 -0.58654909957E+01  0.99406610711E+01  0.11556283378E+02  0.00000000000E+00 0.  1.
</event>
<event>
 8    1  0.2401501E-006  0.9118800E+02  0.7816164E-02  0.1184000E+00
        -11   -1    0    0    0    0  0.00000000000E+00  0.00000000000E+00  0.45593999997E+02  0.45594000000E+02  0.51100000000E-03 0. -1.
         11   -1    0    0    0    0 -0.00000000000E+00 -0.00000000000E+00 -0.45593999997E+02  0.45594000000E+02  0.51100000000E-03 0.  1.
         23    2    1    2    0    0  0.17763568394E-14 -0.17763568394E-14 -0.35527136788E-14  0.91188000000E+02  0.91188000000E+02 0.  0.
    9900012    2    3    3    0    0 -0.15686941113E+02 -0.11377493241E+02  0.31308986671E+02  0.54367080398E+02  0.39999991384E+02 0.  0.
        -12    1    3    3    0    0  0.15686941113E+02  0.11377493241E+02 -0.31308986671E+02  0.36820919602E+02  0.00000000000E+00 0.  1.
         11    1    4    4    0    0  0.10081059488E+02 -0.87170668399E+00  0.73376598832E+01  0.12499155402E+02  0.51100000000E-03 0. -1.
        -11    1    4    4    0    0 -0.43110928869E+01  0.48734702251E+01  0.47024510996E+00  0.65236005885E+01  0.51100000000E-03 0.  1.
         12    1    4    4    0    0 -0.21456907714E+02 -0.15379256782E+02  0.23501081678E+02  0.35344324408E+02  0.00000000000E+00 0. -1.
</event>
<event>
 8    1  0.2401501E-006  0.9118800E+02  0.7816164E-02  0.1184000E+00
        -11   -1    0    0    0    0  0.00000000000E+00  0.00000000000E+00  0.45593999997E+02  0.45594000000E+02  0.51100000000E-03 0. -1.
         11   -1    0    0    0    0 -0.00000000000E+00 -0.00000000000E+00 -0.45593999997E+02  0.45594000000E+02  0.51100000000E-03 0.  1.
         23    2    1    2    0    0  0.00000000000E+00 -0.17763568394E-14  0.00000000000E+00  0.91188000000E+02  0.91188000000E+02 0.  0.
    9900012    2    3    3    0    0 -0.12470160235E+02 -0.12210391040E+02  0.32421914131E+02  0.54367094776E+02  0.40000024160E+02 0.  0.
        -12    1    3    3    0    0  0.12470160235E+02  0.12210391040E+02 -0.32421914131E+02  0.36820905224E+02  0.00000000000E+00 0.  1.
         11    1    4    4    0    0  0.75527774281E+01 -0.94019989115E+01  0.11574187654E+02  0.16715377666E+02  0.51100000000E-03 0. -1.
        -11    1    4    4    0    0 -0.18670765394E+01 -0.91844174551E+01  0.12599693401E+00  0.93731197731E+01  0.51100000000E-03 0.  1.
         12    1    4    4    0    0 -0.18155861123E+02  0.63760253261E+01  0.20721729542E+02  0.28278597336E+02  0.00000000000E+00 0. -1.
</event>
<event>
 8    1  0.2401501E-006  0.9118800E+02  0.7816164E-02  0.1184000E+00
        -11   -1    0    0    0    0  0.00000000000E+00  0.00000000000E+00  0.45593999997E+02  0.45594000000E+02  0.51100000000E-03 0.  1.
         11   -1    0    0    0    0 -0.00000000000E+00 -0.00000000000E+00 -0.45593999997E+02  0.45594000000E+02  0.51100000000E-03 0. -1.
         23    2    1    2    0    0  0.00000000000E+00  0.44408920985E-15  0.00000000000E+00  0.91188000000E+02  0.91188000000E+02 0.  0.
    9900012    2    3    3    0    0  0.16127949039E+02  0.16565044831E+01 -0.33059417753E+02  0.54367084076E+02  0.39999999768E+02 0.  0.
        -12    1    3    3    0    0 -0.16127949039E+02 -0.16565044831E+01  0.33059417753E+02  0.36820915924E+02  0.00000000000E+00 0.  1.
         11    1    4    4    0    0  0.76400288223E+01 -0.96471196703E-01 -0.80983367090E+01  0.11133840524E+02  0.51100000000E-03 0. -1.
        -11    1    4    4    0    0  0.15229878796E+02  0.14180007181E+02 -0.17807130676E+02  0.27388240450E+02  0.51100000000E-03 0.  1.
         12    1    4    4    0    0 -0.67419585795E+01 -0.12427031501E+02 -0.71539503684E+01  0.15845003102E+02  0.00000000000E+00 0. -1.
</event>
<event>
 8    1  0.2401501E-006  0.9118800E+02  0.7816164E-02  0.1184000E+00
        -11   -1    0    0    0    0  0.00000000000E+00  0.00000000000E+00  0.45593999997E+02  0.45594000000E+02  0.51100000000E-03 0. -1.
         11   -1    0    0    0    0 -0.00000000000E+00 -0.00000000000E+00 -0.45593999997E+02  0.45594000000E+02  0.51100000000E-03 0.  1.
         23    2    1    2    0    0  0.00000000000E+00  0.77715611724E-15  0.00000000000E+00  0.91188000000E+02  0.91188000000E+02 0.  0.
    9900012    2    3    3    0    0 -0.35886650266E+02 -0.75370843514E+00  0.82073639185E+01  0.54367074343E+02  0.39999977580E+02 0.  0.
        -12    1    3    3    0    0  0.35886650266E+02  0.75370843514E+00 -0.82073639185E+01  0.36820925657E+02  0.00000000000E+00 0.  1.
         11    1    4    4    0    0 -0.16094776692E+02  0.97261091000E+01 -0.24915329969E+01  0.18969627617E+02  0.51100000000E-03 0. -1.
        -11    1    4    4    0    0  0.66500307305E+00  0.59960186182E+01  0.63755677915E+01  0.87773762186E+01  0.51100000000E-03 0.  1.
        -12    1    4    4    0    0 -0.20456876647E+02 -0.16475836153E+02  0.43233291239E+01  0.26620070508E+02  0.00000000000E+00 0.  1.
</event>
<event>
 8    1  0.2401501E-006  0.9118800E+02  0.7816164E-02  0.1184000E+00
        -11   -1    0    0    0    0  0.00000000000E+00  0.00000000000E+00  0.45593999997E+02  0.45594000000E+02  0.51100000000E-03 0.  1.
         11   -1    0    0    0    0 -0.00000000000E+00 -0.00000000000E+00 -0.45593999997E+02  0.45594000000E+02  0.51100000000E-03 0. -1.
         23    2    1    2    0    0  0.35527136788E-14  0.71054273576E-14  0.17763568394E-14  0.91188000000E+02  0.91188000000E+02 0.  0.
    9900012    2    3    3    0    0  0.18521562508E+02  0.28196801186E+02  0.14753751337E+02  0.54367067728E+02  0.39999962500E+02 0.  0.
        -12    1    3    3    0    0 -0.18521562508E+02 -0.28196801186E+02 -0.14753751337E+02  0.36820932272E+02  0.00000000000E+00 0.  1.
         11    1    4    4    0    0  0.19381743197E+02  0.22093864299E+02  0.10074829771E+01  0.29407581186E+02  0.51100000000E-03 0. -1.
        -11    1    4    4    0    0 -0.26346569820E+01 -0.61672043087E+01  0.36300754338E+00  0.67162192590E+01  0.51100000000E-03 0.  1.
        -12    1    4    4    0    0  0.17744762932E+01  0.12270141196E+02  0.13383260816E+02  0.18243267283E+02  0.00000000000E+00 0.  1.
</event>
<event>
 8    1  0.2401501E-006  0.9118800E+02  0.7816164E-02  0.1184000E+00
        -11   -1    0    0    0    0  0.00000000000E+00  0.00000000000E+00  0.45593999997E+02  0.45594000000E+02  0.51100000000E-03 0. -1.
         11   -1    0    0    0    0 -0.00000000000E+00 -0.00000000000E+00 -0.45593999997E+02  0.45594000000E+02  0.51100000000E-03 0.  1.
         23    2    1    2    0    0  0.00000000000E+00 -0.44408920985E-15  0.00000000000E+00  0.91188000000E+02  0.91188000000E+02 0.  0.
    9900012    2    3    3    0    0  0.32077780106E+01  0.30405326039E+01 -0.36554915242E+02  0.54366857885E+02  0.39999484118E+02 0.  0.
         12    1    3    3    0    0 -0.32077780106E+01 -0.30405326039E+01  0.36554915242E+02  0.36821142115E+02  0.00000000000E+00 0. -1.
         11    1    4    4    0    0 -0.77594376714E+01 -0.10474853870E+02 -0.46880868654E+01  0.13853143877E+02  0.51100000000E-03 0. -1.
        -11    1    4    4    0    0  0.21439320157E+01  0.24177072993E+01 -0.24162992616E+02  0.24378104222E+02  0.51100000000E-03 0.  1.
         12    1    4    4    0    0  0.88232836663E+01  0.11097679175E+02 -0.77038357610E+01  0.16135609785E+02  0.00000000000E+00 0. -1.
</event>
<event>
 8    1  0.2401501E-006  0.9118800E+02  0.7816164E-02  0.1184000E+00
        -11   -1    0    0    0    0  0.00000000000E+00  0.00000000000E+00  0.45593999997E+02  0.45594000000E+02  0.51100000000E-03 0. -1.
         11   -1    0    0    0    0 -0.00000000000E+00 -0.00000000000E+00 -0.45593999997E+02  0.45594000000E+02  0.51100000000E-03 0.  1.
         23    2    1    2    0    0  0.00000000000E+00  0.00000000000E+00  0.00000000000E+00  0.91188000000E+02  0.91188000000E+02 0.  0.
    9900012    2    3    3    0    0  0.19554753698E+02  0.26034407558E+02  0.17193041262E+02  0.54367089678E+02  0.40000012539E+02 0.  0.
        -12    1    3    3    0    0 -0.19554753698E+02 -0.26034407558E+02 -0.17193041262E+02  0.36820910322E+02  0.00000000000E+00 0.  1.
         11    1    4    4    0    0  0.14517055145E+02  0.11159440427E+02  0.11317915991E+02  0.21526105625E+02  0.51100000000E-03 0. -1.
        -11    1    4    4    0    0 -0.96753440222E+01  0.14558921380E+02  0.45614773611E+01  0.18066033036E+02  0.51100000000E-03 0.  1.
         12    1    4    4    0    0  0.14713042575E+02  0.31604575121E+00  0.13136479104E+01  0.14774951017E+02  0.00000000000E+00 0. -1.
</event>
<event>
 8    1  0.2401501E-006  0.9118800E+02  0.7816164E-02  0.1184000E+00
        -11   -1    0    0    0    0  0.00000000000E+00  0.00000000000E+00  0.45593999997E+02  0.45594000000E+02  0.51100000000E-03 0.  1.
         11   -1    0    0    0    0 -0.00000000000E+00 -0.00000000000E+00 -0.45593999997E+02  0.45594000000E+02  0.51100000000E-03 0. -1.
         23    2    1    2    0    0 -0.35527136788E-14 -0.17763568394E-14  0.00000000000E+00  0.91188000000E+02  0.91188000000E+02 0.  0.
    9900012    2    3    3    0    0 -0.28420540357E+02  0.52572565330E+01 -0.22812569158E+02  0.54367093276E+02  0.40000020740E+02 0.  0.
        -12    1    3    3    0    0  0.28420540357E+02 -0.52572565330E+01  0.22812569158E+02  0.36820906724E+02  0.00000000000E+00 0.  1.
         11    1    4    4    0    0 -0.52839937560E+01 -0.37934565964E+01 -0.39452760669E+01  0.76076347485E+01  0.51100000000E-03 0. -1.
        -11    1    4    4    0    0 -0.37303420046E+01 -0.11712539650E+02 -0.12706246010E+02  0.17679019329E+02  0.51100000000E-03 0.  1.
        -12    1    4    4    0    0 -0.19406204596E+02  0.20763252779E+02 -0.61610470816E+01  0.29080439198E+02  0.00000000000E+00 0.  1.
</event>
<event>
 8    1  0.2401501E-006  0.9118800E+02  0.7816164E-02  0.1184000E+00
        -11   -1    0    0    0    0  0.00000000000E+00  0.00000000000E+00  0.45593999997E+02  0.45594000000E+02  0.51100000000E-03 0.  1.
         11   -1    0    0    0    0 -0.00000000000E+00 -0.00000000000E+00 -0.45593999997E+02  0.45594000000E+02  0.51100000000E-03 0. -1.
         23    2    1    2    0    0  0.00000000000E+00  0.00000000000E+00  0.00000000000E+00  0.91188000000E+02  0.91188000000E+02 0.  0.
    9900012    2    3    3    0    0  0.72237279246E+01  0.24081232869E+01 -0.36024976997E+02  0.54367078359E+02  0.39999986734E+02 0.  0.
        -12    1    3    3    0    0 -0.72237279246E+01 -0.24081232869E+01  0.36024976997E+02  0.36820921641E+02  0.00000000000E+00 0.  1.
         11    1    4    4    0    0  0.14491586079E+01  0.75871085774E+01 -0.26525604168E+02  0.27627376892E+02  0.51100000000E-03 0. -1.
        -11    1    4    4    0    0  0.74539824897E+01 -0.35589223800E+01 -0.16991378352E+02  0.18892716110E+02  0.51100000000E-03 0.  1.
        -12    1    4    4    0    0 -0.16794131729E+01 -0.16200629104E+01  0.74920055223E+01  0.78469853565E+01  0.00000000000E+00 0.  1.
</event>
<event>
 8    1  0.2401501E-006  0.9118800E+02  0.7816164E-02  0.1184000E+00
        -11   -1    0    0    0    0  0.00000000000E+00  0.00000000000E+00  0.45593999997E+02  0.45594000000E+02  0.51100000000E-03 0. -1.
         11   -1    0    0    0    0 -0.00000000000E+00 -0.00000000000E+00 -0.45593999997E+02  0.45594000000E+02  0.51100000000E-03 0.  1.
         23    2    1    2    0    0  0.00000000000E+00  0.00000000000E+00  0.00000000000E+00  0.91188000000E+02  0.91188000000E+02 0.  0.
    9900012    2    3    3    0    0 -0.27100872870E+02 -0.13462245138E+02 -0.20978329775E+02  0.54367086451E+02  0.40000005182E+02 0.  0.
         12    1    3    3    0    0  0.27100872870E+02  0.13462245138E+02  0.20978329775E+02  0.36820913549E+02  0.00000000000E+00 0. -1.
         11    1    4    4    0    0 -0.81412673837E+01 -0.10464121706E+02 -0.54671327692E+01  0.14341116367E+02  0.51100000000E-03 0. -1.
        -11    1    4    4    0    0 -0.11550995876E+02 -0.15041112752E+02  0.97920440755E-01  0.18964972112E+02  0.51100000000E-03 0.  1.
         12    1    4    4    0    0 -0.74086096100E+01  0.12042989319E+02 -0.15609117446E+02  0.21060997971E+02  0.00000000000E+00 0. -1.
</event>
<event>
 8    1  0.2401501E-006  0.9118800E+02  0.7816164E-02  0.1184000E+00
        -11   -1    0    0    0    0  0.00000000000E+00  0.00000000000E+00  0.45593999997E+02  0.45594000000E+02  0.51100000000E-03 0.  1.
         11   -1    0    0    0    0 -0.00000000000E+00 -0.00000000000E+00 -0.45593999997E+02  0.45594000000E+02  0.51100000000E-03 0. -1.
         23    2    1    2    0    0  0.35527136788E-14 -0.88817841970E-15  0.00000000000E+00  0.91188000000E+02  0.91188000000E+02 0.  0.
    9900012    2    3    3    0    0 -0.16213323898E+02  0.53994046534E+01 -0.32615242899E+02  0.54367088661E+02  0.40000010222E+02 0.  0.
        -12    1    3    3    0    0  0.16213323898E+02 -0.53994046534E+01  0.32615242899E+02  0.36820911339E+02  0.00000000000E+00 0.  1.
         11    1    4    4    0    0  0.78587943869E+01 -0.29729383883E+01 -0.10073562248E+02  0.13117761566E+02  0.51100000000E-03 0. -1.
        -11    1    4    4    0    0 -0.65539334006E+01  0.34070122123E+00 -0.20902042544E+02  0.21908115006E+02  0.51100000000E-03 0.  1.
        -12    1    4    4    0    0 -0.17518184884E+02  0.80316418205E+01 -0.16396381071E+01  0.19341212089E+02  0.00000000000E+00 0.  1.
</event>
<event>
 8    1  0.2401501E-006  0.9118800E+02  0.7816164E-02  0.1184000E+00
        -11   -1    0    0    0    0  0.00000000000E+00  0.00000000000E+00  0.45593999997E+02  0.45594000000E+02  0.51100000000E-03 0.  1.
         11   -1    0    0    0    0 -0.00000000000E+00 -0.00000000000E+00 -0.45593999997E+02  0.45594000000E+02  0.51100000000E-03 0. -1.
         23    2    1    2    0    0  0.00000000000E+00 -0.35527136788E-14  0.00000000000E+00  0.91188000000E+02  0.91188000000E+02 0.  0.
    9900012    2    3    3    0    0 -0.17003766078E+02 -0.11988926018E+02 -0.30379547903E+02  0.54367091012E+02  0.40000015581E+02 0.  0.
        -12    1    3    3    0    0  0.17003766078E+02  0.11988926018E+02  0.30379547903E+02  0.36820908988E+02  0.00000000000E+00 0.  1.
         11    1    4    4    0    0 -0.10561985378E+02  0.45048803248E+01  0.19051991689E+01  0.11639556091E+02  0.51100000000E-03 0. -1.
        -11    1    4    4    0    0  0.65986143583E+01 -0.63482043568E+00 -0.12835261802E+02  0.14446060163E+02  0.51100000000E-03 0.  1.
         12    1    4    4    0    0 -0.13040395059E+02 -0.15858985907E+02 -0.19449485269E+02  0.28281474759E+02  0.00000000000E+00 0. -1.
</event>
<event>
 8    1  0.2401501E-006  0.9118800E+02  0.7816164E-02  0.1184000E+00
        -11   -1    0    0    0    0  0.00000000000E+00  0.00000000000E+00  0.45593999997E+02  0.45594000000E+02  0.51100000000E-03 0. -1.
         11   -1    0    0    0    0 -0.00000000000E+00 -0.00000000000E+00 -0.45593999997E+02  0.45594000000E+02  0.51100000000E-03 0.  1.
         23    2    1    2    0    0  0.00000000000E+00  0.17763568394E-14 -0.35527136788E-14  0.91188000000E+02  0.91188000000E+02 0.  0.
    9900012    2    3    3    0    0 -0.13066530905E+02 -0.15946843442E+02  0.30508050488E+02  0.54367120187E+02  0.40000082090E+02 0.  0.
        -12    1    3    3    0    0  0.13066530905E+02  0.15946843442E+02 -0.30508050488E+02  0.36820879813E+02  0.00000000000E+00 0.  1.
         11    1    4    4    0    0  0.17958304890E+01 -0.11769818253E+02  0.14348309577E+02  0.18644774518E+02  0.51100000000E-03 0. -1.
        -11    1    4    4    0    0 -0.22335114146E+02  0.51225334987E+00  0.14793650237E+02  0.26794996082E+02  0.51100000000E-03 0.  1.
        -12    1    4    4    0    0  0.74727527528E+01 -0.46892785393E+01  0.13660906739E+01  0.89273495873E+01  0.00000000000E+00 0.  1.
</event>
<event>
 8    1  0.2401501E-006  0.9118800E+02  0.7816164E-02  0.1184000E+00
        -11   -1    0    0    0    0  0.00000000000E+00  0.00000000000E+00  0.45593999997E+02  0.45594000000E+02  0.51100000000E-03 0. -1.
         11   -1    0    0    0    0 -0.00000000000E+00 -0.00000000000E+00 -0.45593999997E+02  0.45594000000E+02  0.51100000000E-03 0.  1.
         23    2    1    2    0    0  0.00000000000E+00 -0.17763568394E-14 -0.17763568394E-14  0.91188000000E+02  0.91188000000E+02 0.  0.
    9900012    2    3    3    0    0 -0.31750005350E+02  0.14790103606E+02 -0.11356429464E+02  0.54367102475E+02  0.40000041712E+02 0.  0.
         12    1    3    3    0    0  0.31750005350E+02 -0.14790103606E+02  0.11356429464E+02  0.36820897525E+02  0.00000000000E+00 0. -1.
         11    1    4    4    0    0  0.12277967730E+01 -0.52162430459E+01  0.24028116447E+01  0.58728341106E+01  0.51100000000E-03 0. -1.
        -11    1    4    4    0    0 -0.33926128138E+02  0.21915311864E+02 -0.64750835365E+01  0.40904642421E+02  0.51100000000E-03 0.  1.
        -12    1    4    4    0    0  0.94832601536E+00 -0.19089652117E+01 -0.72841575726E+01  0.75896259430E+01  0.00000000000E+00 0.  1.
</event>
<event>
 8    1  0.2401501E-006  0.9118800E+02  0.7816164E-02  0.1184000E+00
        -11   -1    0    0    0    0  0.00000000000E+00  0.00000000000E+00  0.45593999997E+02  0.45594000000E+02  0.51100000000E-03 0.  1.
         11   -1    0    0    0    0 -0.00000000000E+00 -0.00000000000E+00 -0.45593999997E+02  0.45594000000E+02  0.51100000000E-03 0. -1.
         23    2    1    2    0    0  0.71054273576E-14 -0.13322676296E-14 -0.13322676296E-14  0.91188000000E+02  0.91188000000E+02 0.  0.
    9900012    2    3    3    0    0 -0.36559962310E+02 -0.22408056464E+01 -0.37585546363E+01  0.54367098503E+02  0.40000032658E+02 0.  0.
        -12    1    3    3    0    0  0.36559962310E+02  0.22408056464E+01  0.37585546363E+01  0.36820901497E+02  0.00000000000E+00 0.  1.
         11    1    4    4    0    0 -0.25700593519E+01  0.19140923951E+01 -0.26572642413E+00  0.32155194857E+01  0.51100000000E-03 0. -1.
        -11    1    4    4    0    0 -0.21661000427E+02 -0.10070489942E+02  0.14959080329E+02  0.28184885873E+02  0.51100000000E-03 0.  1.
        -12    1    4    4    0    0 -0.12328902532E+02  0.59155919003E+01 -0.18451908541E+02  0.22966693144E+02  0.00000000000E+00 0.  1.
</event>
<event>
 8    1  0.2401501E-006  0.9118800E+02  0.7816164E-02  0.1184000E+00
        -11   -1    0    0    0    0  0.00000000000E+00  0.00000000000E+00  0.45593999997E+02  0.45594000000E+02  0.51100000000E-03 0. -1.
         11   -1    0    0    0    0 -0.00000000000E+00 -0.00000000000E+00 -0.45593999997E+02  0.45594000000E+02  0.51100000000E-03 0.  1.
         23    2    1    2    0    0  0.17763568394E-14  0.00000000000E+00  0.00000000000E+00  0.91188000000E+02  0.91188000000E+02 0.  0.
    9900012    2    3    3    0    0 -0.65529099283E+01 -0.30450908711E+02  0.19636128474E+02  0.54367136195E+02  0.40000118584E+02 0.  0.
        -12    1    3    3    0    0  0.65529099283E+01  0.30450908711E+02 -0.19636128474E+02  0.36820863805E+02  0.00000000000E+00 0.  1.
         11    1    4    4    0    0  0.13344874596E+02 -0.10222448379E+02  0.14815841090E+02  0.22407437968E+02  0.51100000000E-03 0. -1.
        -11    1    4    4    0    0 -0.17839971996E+02 -0.20571803600E+02  0.77975012576E+01  0.28324278107E+02  0.51100000000E-03 0.  1.
        -12    1    4    4    0    0 -0.20578125282E+01  0.34334326687E+00 -0.29772138733E+01  0.36354201198E+01  0.00000000000E+00 0.  1.
</event>
<event>
 8    1  0.2401501E-006  0.9118800E+02  0.7816164E-02  0.1184000E+00
        -11   -1    0    0    0    0  0.00000000000E+00  0.00000000000E+00  0.45593999997E+02  0.45594000000E+02  0.51100000000E-03 0. -1.
         11   -1    0    0    0    0 -0.00000000000E+00 -0.00000000000E+00 -0.45593999997E+02  0.45594000000E+02  0.51100000000E-03 0.  1.
         23    2    1    2    0    0  0.00000000000E+00 -0.35527136788E-14  0.00000000000E+00  0.91188000000E+02  0.91188000000E+02 0.  0.
    9900012    2    3    3    0    0 -0.24249559031E+02  0.13609489818E+02 -0.24135468467E+02  0.54367079799E+02  0.39999990018E+02 0.  0.
         12    1    3    3    0    0  0.24249559031E+02 -0.13609489818E+02  0.24135468467E+02  0.36820920201E+02  0.00000000000E+00 0. -1.
         11    1    4    4    0    0  0.15162953422E+01 -0.10821480118E+02 -0.10125096002E+02  0.14897018252E+02  0.51100000000E-03 0. -1.
        -11    1    4    4    0    0 -0.12693378370E+02  0.16624857835E+02 -0.41332211638E+01  0.21321146075E+02  0.51100000000E-03 0.  1.
         12    1    4    4    0    0 -0.13072476003E+02  0.78061121009E+01 -0.98771513015E+01  0.18148915472E+02  0.00000000000E+00 0. -1.
</event>
<event>
 8    1  0.2401501E-006  0.9118800E+02  0.7816164E-02  0.1184000E+00
        -11   -1    0    0    0    0  0.00000000000E+00  0.00000000000E+00  0.45593999997E+02  0.45594000000E+02  0.51100000000E-03 0. -1.
         11   -1    0    0    0    0 -0.00000000000E+00 -0.00000000000E+00 -0.45593999997E+02  0.45594000000E+02  0.51100000000E-03 0.  1.
         23    2    1    2    0    0  0.00000000000E+00 -0.88817841970E-15  0.00000000000E+00  0.91188000000E+02  0.91188000000E+02 0.  0.
    9900012    2    3    3    0    0  0.32231133040E+02 -0.36316947102E+01 -0.17428270518E+02  0.54367085335E+02  0.40000002637E+02 0.  0.
         12    1    3    3    0    0 -0.32231133040E+02  0.36316947102E+01  0.17428270518E+02  0.36820914665E+02  0.00000000000E+00 0. -1.
         11    1    4    4    0    0  0.18956580244E+02 -0.13861954607E+02  0.47879812786E+01  0.23967279467E+02  0.51100000000E-03 0. -1.
        -11    1    4    4    0    0  0.12914865734E+01 -0.28503773207E+00 -0.10579979614E+02  0.10662323995E+02  0.51100000000E-03 0.  1.
         12    1    4    4    0    0  0.11983066223E+02  0.10515297629E+02 -0.11636272183E+02  0.19737481872E+02  0.00000000000E+00 0. -1.
</event>
<event>
 8    1  0.2401501E-006  0.9118800E+02  0.7816164E-02  0.1184000E+00
        -11   -1    0    0    0    0  0.00000000000E+00  0.00000000000E+00  0.45593999997E+02  0.45594000000E+02  0.51100000000E-03 0.  1.
         11   -1    0    0    0    0 -0.00000000000E+00 -0.00000000000E+00 -0.45593999997E+02  0.45594000000E+02  0.51100000000E-03 0. -1.
         23    2    1    2    0    0  0.00000000000E+00  0.35527136788E-14  0.00000000000E+00  0.91188000000E+02  0.91188000000E+02 0.  0.
    9900012    2    3    3    0    0 -0.32572062969E+02 -0.17138981641E+02  0.10461399091E+01  0.54367103943E+02  0.40000045058E+02 0.  0.
        -12    1    3    3    0    0  0.32572062969E+02  0.17138981641E+02 -0.10461399091E+01  0.36820896057E+02  0.00000000000E+00 0.  1.
         11    1    4    4    0    0 -0.16244053412E+02 -0.27859799277E+02  0.41671773360E+01  0.32517734457E+02  0.51100000000E-03 0. -1.
        -11    1    4    4    0    0 -0.44787707176E+01  0.56953073199E+01  0.26884324981E+01  0.77281034004E+01  0.51100000000E-03 0.  1.
         12    1    4    4    0    0 -0.11849238840E+02  0.50255103165E+01 -0.58094699250E+01  0.14121266085E+02  0.00000000000E+00 0. -1.
</event>
<event>
 8    1  0.2401501E-006  0.9118800E+02  0.7816164E-02  0.1184000E+00
        -11   -1    0    0    0    0  0.00000000000E+00  0.00000000000E+00  0.45593999997E+02  0.45594000000E+02  0.51100000000E-03 0.  1.
         11   -1    0    0    0    0 -0.00000000000E+00 -0.00000000000E+00 -0.45593999997E+02  0.45594000000E+02  0.51100000000E-03 0. -1.
         23    2    1    2    0    0  0.17763568394E-14  0.00000000000E+00 -0.17763568394E-14  0.91188000000E+02  0.91188000000E+02 0.  0.
    9900012    2    3    3    0    0  0.55520871499E+01  0.35507255103E+02  0.80122664479E+01  0.54366983579E+02  0.39999770664E+02 0.  0.
         12    1    3    3    0    0 -0.55520871499E+01 -0.35507255103E+02 -0.80122664479E+01  0.36821016421E+02  0.00000000000E+00 0. -1.
         11    1    4    4    0    0  0.50199703762E+01  0.14595227724E+01 -0.61045810888E+01  0.80371773548E+01  0.51100000000E-03 0. -1.
        -11    1    4    4    0    0 -0.23360639529E+01  0.36277472699E+02  0.18374818179E+02  0.40732617932E+02  0.51100000000E-03 0.  1.
        -12    1    4    4    0    0  0.28681807266E+01 -0.22297403683E+01 -0.42579706424E+01  0.55971882925E+01  0.00000000000E+00 0.  1.
</event>
<event>
 8    1  0.2401501E-006  0.9118800E+02  0.7816164E-02  0.1184000E+00
        -11   -1    0    0    0    0  0.00000000000E+00  0.00000000000E+00  0.45593999997E+02  0.45594000000E+02  0.51100000000E-03 0. -1.
         11   -1    0    0    0    0 -0.00000000000E+00 -0.00000000000E+00 -0.45593999997E+02  0.45594000000E+02  0.51100000000E-03 0.  1.
         23    2    1    2    0    0 -0.35527136788E-14  0.17763568394E-14  0.35527136788E-14  0.91188000000E+02  0.91188000000E+02 0.  0.
    9900012    2    3    3    0    0 -0.25610992632E+02  0.14765145302E+02  0.21951056401E+02  0.54367063883E+02  0.39999953735E+02 0.  0.
        -12    1    3    3    0    0  0.25610992632E+02 -0.14765145302E+02 -0.21951056401E+02  0.36820936117E+02  0.00000000000E+00 0.  1.
         11    1    4    4    0    0 -0.10799850169E+02  0.29234331022E+01  0.28553174695E+01  0.11547123576E+02  0.51100000000E-03 0. -1.
        -11    1    4    4    0    0 -0.16648666688E+01  0.75424406865E+01 -0.87845055622E+01  0.11697338619E+02  0.51100000000E-03 0.  1.
         12    1    4    4    0    0 -0.13146275795E+02  0.42992715131E+01  0.27880244494E+02  0.31122601688E+02  0.00000000000E+00 0. -1.
</event>
<event>
 8    1  0.2401501E-006  0.9118800E+02  0.7816164E-02  0.1184000E+00
        -11   -1    0    0    0    0  0.00000000000E+00  0.00000000000E+00  0.45593999997E+02  0.45594000000E+02  0.51100000000E-03 0.  1.
         11   -1    0    0    0    0 -0.00000000000E+00 -0.00000000000E+00 -0.45593999997E+02  0.45594000000E+02  0.51100000000E-03 0. -1.
         23    2    1    2    0    0 -0.35527136788E-14  0.00000000000E+00  0.00000000000E+00  0.91188000000E+02  0.91188000000E+02 0.  0.
    9900012    2    3    3    0    0 -0.25242043787E+02 -0.19471948332E+02 -0.18424515780E+02  0.54367077577E+02  0.39999984952E+02 0.  0.
        -12    1    3    3    0    0  0.25242043787E+02  0.19471948332E+02  0.18424515780E+02  0.36820922423E+02  0.00000000000E+00 0.  1.
         11    1    4    4    0    0 -0.97913530615E+01 -0.26714693592E+02 -0.53187923620E+01  0.28945379613E+02  0.51100000000E-03 0. -1.
        -11    1    4    4    0    0 -0.13276235078E+02 -0.31875798015E+00 -0.11084816893E+02  0.17298358023E+02  0.51100000000E-03 0.  1.
        -12    1    4    4    0    0 -0.21744556479E+01  0.75615032400E+01 -0.20209065243E+01  0.81233399408E+01  0.00000000000E+00 0.  1.
</event>
<event>
 8    1  0.2401501E-006  0.9118800E+02  0.7816164E-02  0.1184000E+00
        -11   -1    0    0    0    0  0.00000000000E+00  0.00000000000E+00  0.45593999997E+02  0.45594000000E+02  0.51100000000E-03 0. -1.
         11   -1    0    0    0    0 -0.00000000000E+00 -0.00000000000E+00 -0.45593999997E+02  0.45594000000E+02  0.51100000000E-03 0.  1.
         23    2    1    2    0    0  0.00000000000E+00  0.35527136788E-14  0.35527136788E-14  0.91188000000E+02  0.91188000000E+02 0.  0.
    9900012    2    3    3    0    0 -0.10675838817E+02  0.23384818744E+02  0.26362036148E+02  0.54367078882E+02  0.39999987927E+02 0.  0.
        -12    1    3    3    0    0  0.10675838817E+02 -0.23384818744E+02 -0.26362036148E+02  0.36820921118E+02  0.00000000000E+00 0.  1.
         11    1    4    4    0    0 -0.15941683004E+01  0.23659381166E+01  0.15339967187E+02  0.15603000651E+02  0.51100000000E-03 0. -1.
        -11    1    4    4    0    0 -0.15810356544E+02  0.24422208096E+02  0.11319831414E+02  0.31217786691E+02  0.51100000000E-03 0.  1.
         12    1    4    4    0    0  0.67286860283E+01 -0.34033274693E+01 -0.29776245352E+00  0.75462915402E+01  0.00000000000E+00 0. -1.
</event>
<event>
 8    1  0.2401501E-006  0.9118800E+02  0.7816164E-02  0.1184000E+00
        -11   -1    0    0    0    0  0.00000000000E+00  0.00000000000E+00  0.45593999997E+02  0.45594000000E+02  0.51100000000E-03 0. -1.
         11   -1    0    0    0    0 -0.00000000000E+00 -0.00000000000E+00 -0.45593999997E+02  0.45594000000E+02  0.51100000000E-03 0.  1.
         23    2    1    2    0    0 -0.88817841970E-15  0.00000000000E+00  0.35527136788E-14  0.91188000000E+02  0.91188000000E+02 0.  0.
    9900012    2    3    3    0    0  0.71305683802E+01  0.20265965828E+02 -0.29903399087E+02  0.54367249691E+02  0.40000377318E+02 0.  0.
         12    1    3    3    0    0 -0.71305683802E+01 -0.20265965828E+02  0.29903399087E+02  0.36820750309E+02  0.00000000000E+00 0. -1.
         11    1    4    4    0    0 -0.86618653366E+00  0.13528362815E+02 -0.14415302249E+02  0.19788072639E+02  0.51100000000E-03 0. -1.
        -11    1    4    4    0    0 -0.11884919758E+01  0.11303610172E+02 -0.20287475872E+02  0.23254371495E+02  0.51100000000E-03 0.  1.
         12    1    4    4    0    0  0.91852468897E+01 -0.45660071591E+01  0.47993790336E+01  0.11324805557E+02  0.00000000000E+00 0. -1.
</event>
<event>
 8    1  0.2401501E-006  0.9118800E+02  0.7816164E-02  0.1184000E+00
        -11   -1    0    0    0    0  0.00000000000E+00  0.00000000000E+00  0.45593999997E+02  0.45594000000E+02  0.51100000000E-03 0.  1.
         11   -1    0    0    0    0 -0.00000000000E+00 -0.00000000000E+00 -0.45593999997E+02  0.45594000000E+02  0.51100000000E-03 0. -1.
         23    2    1    2    0    0  0.17763568394E-14  0.35527136788E-14  0.71054273576E-14  0.91188000000E+02  0.91188000000E+02 0.  0.
    9900012    2    3    3    0    0 -0.14041404477E+02 -0.12863690657E+02 -0.31514203956E+02  0.54367073505E+02  0.39999975669E+02 0.  0.
        -12    1    3    3    0    0  0.14041404477E+02  0.12863690657E+02  0.31514203956E+02  0.36820926495E+02  0.00000000000E+00 0.  1.
         11    1    4    4    0    0 -0.83871424002E+01  0.30936236794E+01 -0.15874287830E+02  0.18218333609E+02  0.51100000000E-03 0. -1.
        -11    1    4    4    0    0 -0.13797324023E+02  0.89505695948E+00 -0.76107062887E+01  0.15782589383E+02  0.51100000000E-03 0.  1.
        -12    1    4    4    0    0  0.81430619460E+01 -0.16852371296E+02 -0.80292098370E+01  0.20366150514E+02  0.00000000000E+00 0.  1.
</event>
<event>
 8    1  0.2401501E-006  0.9118800E+02  0.7816164E-02  0.1184000E+00
        -11   -1    0    0    0    0  0.00000000000E+00  0.00000000000E+00  0.45593999997E+02  0.45594000000E+02  0.51100000000E-03 0.  1.
         11   -1    0    0    0    0 -0.00000000000E+00 -0.00000000000E+00 -0.45593999997E+02  0.45594000000E+02  0.51100000000E-03 0. -1.
         23    2    1    2    0    0  0.00000000000E+00  0.00000000000E+00  0.17763568394E-14  0.91188000000E+02  0.91188000000E+02 0.  0.
    9900012    2    3    3    0    0 -0.18944407108E+02  0.29040244244E+02 -0.12391622518E+02  0.54367100295E+02  0.40000036742E+02 0.  0.
        -12    1    3    3    0    0  0.18944407108E+02 -0.29040244244E+02  0.12391622518E+02  0.36820899705E+02  0.00000000000E+00 0.  1.
         11    1    4    4    0    0  0.10258711577E+02  0.73136497180E+01 -0.73145679510E+01  0.14568237367E+02  0.51100000000E-03 0. -1.
        -11    1    4    4    0    0 -0.28089353640E+02  0.14842602084E+02 -0.70685384394E+01  0.32546564496E+02  0.51100000000E-03 0.  1.
        -12    1    4    4    0    0 -0.11137650453E+01  0.68839924424E+01  0.19914838724E+01  0.72522984314E+01  0.00000000000E+00 0.  1.
</event>
<event>
 8    1  0.2401501E-006  0.9118800E+02  0.7816164E-02  0.1184000E+00
        -11   -1    0    0    0    0  0.00000000000E+00  0.00000000000E+00  0.45593999997E+02  0.45594000000E+02  0.51100000000E-03 0.  1.
         11   -1    0    0    0    0 -0.00000000000E+00 -0.00000000000E+00 -0.45593999997E+02  0.45594000000E+02  0.51100000000E-03 0. -1.
         23    2    1    2    0    0  0.71054273576E-14 -0.35527136788E-14 -0.88817841970E-15  0.91188000000E+02  0.91188000000E+02 0.  0.
    9900012    2    3    3    0    0  0.30732063153E+02 -0.19441580623E+02 -0.57744969484E+01  0.54367087766E+02  0.40000008180E+02 0.  0.
        -12    1    3    3    0    0 -0.30732063153E+02  0.19441580623E+02  0.57744969484E+01  0.36820912234E+02  0.00000000000E+00 0.  1.
         11    1    4    4    0    0 -0.30477730520E+01 -0.11745469772E+01 -0.66021860689E+00  0.33323220205E+01  0.51100000000E-03 0. -1.
        -11    1    4    4    0    0  0.11790392853E+01  0.55788757626E+01  0.68464343934E+01  0.89099748919E+01  0.51100000000E-03 0.  1.
         12    1    4    4    0    0  0.32600796920E+02 -0.23845909408E+02 -0.11960712735E+02  0.42124790853E+02  0.00000000000E+00 0. -1.
</event>
<event>
 8    1  0.2401501E-006  0.9118800E+02  0.7816164E-02  0.1184000E+00
        -11   -1    0    0    0    0  0.00000000000E+00  0.00000000000E+00  0.45593999997E+02  0.45594000000E+02  0.51100000000E-03 0.  1.
         11   -1    0    0    0    0 -0.00000000000E+00 -0.00000000000E+00 -0.45593999997E+02  0.45594000000E+02  0.51100000000E-03 0. -1.
         23    2    1    2    0    0 -0.35527136788E-14  0.00000000000E+00 -0.88817841970E-15  0.91188000000E+02  0.91188000000E+02 0.  0.
    9900012    2    3    3    0    0 -0.23294807484E+02 -0.27934173115E+02 -0.57282737865E+01  0.54367092843E+02  0.40000019754E+02 0.  0.
        -12    1    3    3    0    0  0.23294807484E+02  0.27934173115E+02  0.57282737865E+01  0.36820907157E+02  0.00000000000E+00 0.  1.
         11    1    4    4    0    0  0.53919548763E+01  0.22700279360E+01 -0.16048050729E+01  0.60664325432E+01  0.51100000000E-03 0. -1.
        -11    1    4    4    0    0  0.68817546821E+00 -0.91825953776E+01 -0.76981105792E+01  0.12002272705E+02  0.51100000000E-03 0.  1.
         12    1    4    4    0    0 -0.29374937828E+02 -0.21021605673E+02  0.35746418656E+01  0.36298387594E+02  0.00000000000E+00 0. -1.
</event>
<event>
 8    1  0.2401501E-006  0.9118800E+02  0.7816164E-02  0.1184000E+00
        -11   -1    0    0    0    0  0.00000000000E+00  0.00000000000E+00  0.45593999997E+02  0.45594000000E+02  0.51100000000E-03 0. -1.
         11   -1    0    0    0    0 -0.00000000000E+00 -0.00000000000E+00 -0.45593999997E+02  0.45594000000E+02  0.51100000000E-03 0.  1.
         23    2    1    2    0    0  0.44408920985E-15 -0.35527136788E-14  0.00000000000E+00  0.91188000000E+02  0.91188000000E+02 0.  0.
    9900012    2    3    3    0    0  0.31741152619E+01 -0.25814650574E+02 -0.26063519255E+02  0.54367106096E+02  0.40000049967E+02 0.  0.
         12    1    3    3    0    0 -0.31741152619E+01  0.25814650574E+02  0.26063519255E+02  0.36820893904E+02  0.00000000000E+00 0. -1.
         11    1    4    4    0    0 -0.27526526310E+01 -0.17812989378E+02 -0.10625544771E+02  0.20923238015E+02  0.51100000000E-03 0.  1.
        -11    1    4    4    0    0 -0.57831851232E+01 -0.14596736799E+02 -0.11426897545E+02  0.19418649364E+02  0.51100000000E-03 0. -1.
         12    1    4    4    0    0  0.11709953016E+02  0.65950756034E+01 -0.40110769381E+01  0.14025218717E+02  0.00000000000E+00 0. -1.
</event>
<event>
 8    1  0.2401501E-006  0.9118800E+02  0.7816164E-02  0.1184000E+00
        -11   -1    0    0    0    0  0.00000000000E+00  0.00000000000E+00  0.45593999997E+02  0.45594000000E+02  0.51100000000E-03 0.  1.
         11   -1    0    0    0    0 -0.00000000000E+00 -0.00000000000E+00 -0.45593999997E+02  0.45594000000E+02  0.51100000000E-03 0. -1.
         23    2    1    2    0    0 -0.35527136788E-14  0.88817841970E-15  0.00000000000E+00  0.91188000000E+02  0.91188000000E+02 0.  0.
    9900012    2    3    3    0    0 -0.31409294212E+02  0.61516228409E+01  0.18204228956E+02  0.54367079610E+02  0.39999989587E+02 0.  0.
        -12    1    3    3    0    0  0.31409294212E+02 -0.61516228409E+01 -0.18204228956E+02  0.36820920390E+02  0.00000000000E+00 0.  1.
         11    1    4    4    0    0 -0.17228744603E+02  0.19260443920E+02  0.93778030699E+01  0.27490680808E+02  0.51100000000E-03 0.  1.
        -11    1    4    4    0    0 -0.12000804210E+02 -0.12476290209E+02  0.13319699685E+02  0.21842424752E+02  0.51100000000E-03 0. -1.
        -12    1    4    4    0    0 -0.21797453993E+01 -0.63253087007E+00 -0.44932737990E+01  0.50339740504E+01  0.00000000000E+00 0.  1.
</event>
<event>
 8    1  0.2401501E-006  0.9118800E+02  0.7816164E-02  0.1184000E+00
        -11   -1    0    0    0    0  0.00000000000E+00  0.00000000000E+00  0.45593999997E+02  0.45594000000E+02  0.51100000000E-03 0.  1.
         11   -1    0    0    0    0 -0.00000000000E+00 -0.00000000000E+00 -0.45593999997E+02  0.45594000000E+02  0.51100000000E-03 0. -1.
         23    2    1    2    0    0  0.44408920985E-15  0.35527136788E-14  0.00000000000E+00  0.91188000000E+02  0.91188000000E+02 0.  0.
    9900012    2    3    3    0    0 -0.35977026550E+01  0.17002148658E+02  0.32461719463E+02  0.54367085374E+02  0.40000002727E+02 0.  0.
         12    1    3    3    0    0  0.35977026550E+01 -0.17002148658E+02 -0.32461719463E+02  0.36820914626E+02  0.00000000000E+00 0. -1.
         11    1    4    4    0    0  0.30285346385E+01 -0.32444917724E+01  0.16920711324E+01  0.47499319885E+01  0.51100000000E-03 0. -1.
        -11    1    4    4    0    0 -0.47669913424E+01  0.28429125518E+02  0.29292030873E+02  0.41096988419E+02  0.51100000000E-03 0.  1.
        -12    1    4    4    0    0 -0.18592459510E+01 -0.81824850873E+01  0.14776174581E+01  0.85201649668E+01  0.00000000000E+00 0.  1.
</event>
<event>
 8    1  0.2401501E-006  0.9118800E+02  0.7816164E-02  0.1184000E+00
        -11   -1    0    0    0    0  0.00000000000E+00  0.00000000000E+00  0.45593999997E+02  0.45594000000E+02  0.51100000000E-03 0. -1.
         11   -1    0    0    0    0 -0.00000000000E+00 -0.00000000000E+00 -0.45593999997E+02  0.45594000000E+02  0.51100000000E-03 0.  1.
         23    2    1    2    0    0  0.00000000000E+00  0.71054273576E-14 -0.18873791419E-14  0.91188000000E+02  0.91188000000E+02 0.  0.
    9900012    2    3    3    0    0 -0.13589638639E+02  0.34217832320E+02 -0.49140520614E+00  0.54367084665E+02  0.40000001110E+02 0.  0.
        -12    1    3    3    0    0  0.13589638639E+02 -0.34217832320E+02  0.49140520614E+00  0.36820915335E+02  0.00000000000E+00 0.  1.
         11    1    4    4    0    0 -0.34051773837E+01 -0.98195453270E+00  0.29247147150E+01  0.45949346180E+01  0.51100000000E-03 0. -1.
        -11    1    4    4    0    0 -0.27082304156E+00  0.45667456718E+01  0.12892517274E+02  0.13680113781E+02  0.51100000000E-03 0.  1.
        -12    1    4    4    0    0 -0.99136382139E+01  0.30633041181E+02 -0.16308637195E+02  0.36092036266E+02  0.00000000000E+00 0.  1.
</event>
<event>
 8    1  0.2401501E-006  0.9118800E+02  0.7816164E-02  0.1184000E+00
        -11   -1    0    0    0    0  0.00000000000E+00  0.00000000000E+00  0.45593999997E+02  0.45594000000E+02  0.51100000000E-03 0.  1.
         11   -1    0    0    0    0 -0.00000000000E+00 -0.00000000000E+00 -0.45593999997E+02  0.45594000000E+02  0.51100000000E-03 0. -1.
         23    2    1    2    0    0 -0.71054273576E-14  0.00000000000E+00 -0.10658141036E-13  0.91188000000E+02  0.91188000000E+02 0.  0.
    9900012    2    3    3    0    0 -0.20129694298E+02 -0.66566496458E+01 -0.30104223526E+02  0.54367084054E+02  0.39999999717E+02 0.  0.
        -12    1    3    3    0    0  0.20129694298E+02  0.66566496458E+01  0.30104223526E+02  0.36820915946E+02  0.00000000000E+00 0.  1.
         11    1    4    4    0    0 -0.12225180245E+02 -0.86142150567E+01 -0.89308736486E+01  0.17418962009E+02  0.51100000000E-03 0. -1.
        -11    1    4    4    0    0 -0.13361623267E+01  0.19672239379E+01  0.73256559920E+01  0.77019825863E+01  0.51100000000E-03 0.  1.
        -12    1    4    4    0    0 -0.65683517260E+01 -0.96585269801E-02 -0.28499005869E+02  0.29246139458E+02  0.00000000000E+00 0.  1.
</event>
<event>
 8    1  0.2401501E-006  0.9118800E+02  0.7816164E-02  0.1184000E+00
        -11   -1    0    0    0    0  0.00000000000E+00  0.00000000000E+00  0.45593999997E+02  0.45594000000E+02  0.51100000000E-03 0. -1.
         11   -1    0    0    0    0 -0.00000000000E+00 -0.00000000000E+00 -0.45593999997E+02  0.45594000000E+02  0.51100000000E-03 0.  1.
         23    2    1    2    0    0  0.00000000000E+00  0.26645352591E-14 -0.35527136788E-14  0.91188000000E+02  0.91188000000E+02 0.  0.
    9900012    2    3    3    0    0 -0.23024961410E+02  0.75457416893E+01 -0.27725308504E+02  0.54367084786E+02  0.40000001387E+02 0.  0.
         12    1    3    3    0    0  0.23024961410E+02 -0.75457416893E+01  0.27725308504E+02  0.36820915214E+02  0.00000000000E+00 0. -1.
         11    1    4    4    0    0 -0.20565436665E+02 -0.10383484875E+02 -0.40215120205E+01  0.23386459812E+02  0.51100000000E-03 0. -1.
        -11    1    4    4    0    0 -0.54785438466E+01  0.96315274086E+01 -0.14131983854E+02  0.17958110446E+02  0.51100000000E-03 0.  1.
         12    1    4    4    0    0  0.30190191015E+01  0.82976991553E+01 -0.95718126295E+01  0.13022514528E+02  0.00000000000E+00 0. -1.
</event>
<event>
 8    1  0.2401501E-006  0.9118800E+02  0.7816164E-02  0.1184000E+00
        -11   -1    0    0    0    0  0.00000000000E+00  0.00000000000E+00  0.45593999997E+02  0.45594000000E+02  0.51100000000E-03 0. -1.
         11   -1    0    0    0    0 -0.00000000000E+00 -0.00000000000E+00 -0.45593999997E+02  0.45594000000E+02  0.51100000000E-03 0.  1.
         23    2    1    2    0    0 -0.71054273576E-14 -0.35527136788E-14 -0.66613381478E-15  0.91188000000E+02  0.91188000000E+02 0.  0.
    9900012    2    3    3    0    0 -0.32202667590E+02 -0.17793623932E+02 -0.14710847608E+01  0.54366960594E+02  0.39999718265E+02 0.  0.
        -12    1    3    3    0    0  0.32202667590E+02  0.17793623932E+02  0.14710847608E+01  0.36821039406E+02  0.00000000000E+00 0.  1.
         11    1    4    4    0    0  0.32297635632E+01  0.80201090558E+00 -0.15530390256E+01  0.36724003925E+01  0.51100000000E-03 0. -1.
        -11    1    4    4    0    0  0.12833131181E+01  0.24333819203E+01  0.72733592702E+01  0.77762455892E+01  0.51100000000E-03 0.  1.
         12    1    4    4    0    0 -0.36715744271E+02 -0.21029016758E+02 -0.71914050053E+01  0.42918314612E+02  0.00000000000E+00 0. -1.
</event>
<event>
 8    1  0.2401501E-006  0.9118800E+02  0.7816164E-02  0.1184000E+00
        -11   -1    0    0    0    0  0.00000000000E+00  0.00000000000E+00  0.45593999997E+02  0.45594000000E+02  0.51100000000E-03 0.  1.
         11   -1    0    0    0    0 -0.00000000000E+00 -0.00000000000E+00 -0.45593999997E+02  0.45594000000E+02  0.51100000000E-03 0. -1.
         23    2    1    2    0    0 -0.71054273576E-14 -0.88817841970E-15  0.17763568394E-14  0.91188000000E+02  0.91188000000E+02 0.  0.
    9900012    2    3    3    0    0 -0.34227323987E+02  0.58031385084E+01  0.12271577789E+02  0.54367112649E+02  0.40000064906E+02 0.  0.
        -12    1    3    3    0    0  0.34227323987E+02 -0.58031385084E+01 -0.12271577789E+02  0.36820887351E+02  0.00000000000E+00 0.  1.
         11    1    4    4    0    0 -0.17473289536E+02  0.63780812161E+01  0.19461118834E+02  0.26920826765E+02  0.51100000000E-03 0.  1.
        -11    1    4    4    0    0 -0.21368092832E+02  0.14197350014E+01 -0.64497631775E+01  0.22365385846E+02  0.51100000000E-03 0. -1.
        -12    1    4    4    0    0  0.46140583804E+01 -0.19946777091E+01 -0.73977786736E+00  0.50809000378E+01  0.00000000000E+00 0.  1.
</event>
<event>
 8    1  0.2401501E-006  0.9118800E+02  0.7816164E-02  0.1184000E+00
        -11   -1    0    0    0    0  0.00000000000E+00  0.00000000000E+00  0.45593999997E+02  0.45594000000E+02  0.51100000000E-03 0.  1.
         11   -1    0    0    0    0 -0.00000000000E+00 -0.00000000000E+00 -0.45593999997E+02  0.45594000000E+02  0.51100000000E-03 0. -1.
         23    2    1    2    0    0 -0.17763568394E-14 -0.35527136788E-14  0.00000000000E+00  0.91188000000E+02  0.91188000000E+02 0.  0.
    9900012    2    3    3    0    0 -0.12926940433E+02 -0.26442352115E+02 -0.22124090936E+02  0.54367093247E+02  0.40000020676E+02 0.  0.
         12    1    3    3    0    0  0.12926940433E+02  0.26442352115E+02  0.22124090936E+02  0.36820906753E+02  0.00000000000E+00 0. -1.
         11    1    4    4    0    0  0.65266425497E+01  0.12259382345E+01  0.54257590907E+01  0.85754795491E+01  0.51100000000E-03 0. -1.
        -11    1    4    4    0    0 -0.77900723004E+01 -0.57204738041E+01 -0.14888505272E+01  0.97788405827E+01  0.51100000000E-03 0.  1.
        -12    1    4    4    0    0 -0.11663510683E+02 -0.21947816545E+02 -0.26060999500E+02  0.36012773116E+02  0.00000000000E+00 0.  1.
</event>
<event>
 8    1  0.2401501E-006  0.9118800E+02  0.7816164E-02  0.1184000E+00
        -11   -1    0    0    0    0  0.00000000000E+00  0.00000000000E+00  0.45593999997E+02  0.45594000000E+02  0.51100000000E-03 0. -1.
         11   -1    0    0    0    0 -0.00000000000E+00 -0.00000000000E+00 -0.45593999997E+02  0.45594000000E+02  0.51100000000E-03 0.  1.
         23    2    1    2    0    0  0.17763568394E-14  0.00000000000E+00 -0.35527136788E-14  0.91188000000E+02  0.91188000000E+02 0.  0.
    9900012    2    3    3    0    0  0.11635681269E+02  0.34343306199E+02 -0.63973985525E+01  0.54367102842E+02  0.40000042550E+02 0.  0.
         12    1    3    3    0    0 -0.11635681269E+02 -0.34343306199E+02  0.63973985525E+01  0.36820897158E+02  0.00000000000E+00 0. -1.
         11    1    4    4    0    0  0.67563364185E+00  0.33575716008E+01  0.10534946536E+02  0.11077674244E+02  0.51100000000E-03 0. -1.
        -11    1    4    4    0    0  0.64085045967E+01  0.22061668800E+02  0.72858204779E+00  0.22985147236E+02  0.51100000000E-03 0.  1.
         12    1    4    4    0    0  0.45515430305E+01  0.89240657979E+01 -0.17660927137E+02  0.20304281362E+02  0.00000000000E+00 0. -1.
</event>
<event>
 8    1  0.2401501E-006  0.9118800E+02  0.7816164E-02  0.1184000E+00
        -11   -1    0    0    0    0  0.00000000000E+00  0.00000000000E+00  0.45593999997E+02  0.45594000000E+02  0.51100000000E-03 0. -1.
         11   -1    0    0    0    0 -0.00000000000E+00 -0.00000000000E+00 -0.45593999997E+02  0.45594000000E+02  0.51100000000E-03 0.  1.
         23    2    1    2    0    0  0.88817841970E-15 -0.35527136788E-14  0.00000000000E+00  0.91188000000E+02  0.91188000000E+02 0.  0.
    9900012    2    3    3    0    0  0.19853377426E+01  0.12198811328E+02 -0.34684680399E+02  0.54367087217E+02  0.40000006930E+02 0.  0.
         12    1    3    3    0    0 -0.19853377426E+01 -0.12198811328E+02  0.34684680399E+02  0.36820912783E+02  0.00000000000E+00 0. -1.
         11    1    4    4    0    0  0.11548597379E+01 -0.18312703156E+01  0.90879990974E+00  0.23480139523E+01  0.51100000000E-03 0. -1.
        -11    1    4    4    0    0  0.10047706557E+02 -0.72173995177E+01 -0.43212227185E+01  0.13104206535E+02  0.51100000000E-03 0.  1.
        -12    1    4    4    0    0 -0.92172285523E+01  0.21247481161E+02 -0.31272257590E+02  0.38914866731E+02  0.00000000000E+00 0.  1.
</event>
<event>
 8    1  0.2401501E-006  0.9118800E+02  0.7816164E-02  0.1184000E+00
        -11   -1    0    0    0    0  0.00000000000E+00  0.00000000000E+00  0.45593999997E+02  0.45594000000E+02  0.51100000000E-03 0.  1.
         11   -1    0    0    0    0 -0.00000000000E+00 -0.00000000000E+00 -0.45593999997E+02  0.45594000000E+02  0.51100000000E-03 0. -1.
         23    2    1    2    0    0  0.00000000000E+00  0.88817841970E-15  0.00000000000E+00  0.91188000000E+02  0.91188000000E+02 0.  0.
    9900012    2    3    3    0    0  0.29734776267E+02  0.40759331833E+01 -0.21330951878E+02  0.54367086663E+02  0.40000005665E+02 0.  0.
        -12    1    3    3    0    0 -0.29734776267E+02 -0.40759331833E+01  0.21330951878E+02  0.36820913337E+02  0.00000000000E+00 0.  1.
         11    1    4    4    0    0  0.11542326424E+02  0.39930397310E+01 -0.14603183690E+02  0.19037401076E+02  0.51100000000E-03 0. -1.
        -11    1    4    4    0    0 -0.68167130038E+00 -0.11089036781E+02 -0.74643142266E+01  0.13384595609E+02  0.51100000000E-03 0.  1.
         12    1    4    4    0    0  0.18874121143E+02  0.11171930233E+02  0.73654603854E+00  0.21945089978E+02  0.00000000000E+00 0. -1.
</event>
<event>
 8    1  0.2401501E-006  0.9118800E+02  0.7816164E-02  0.1184000E+00
        -11   -1    0    0    0    0  0.00000000000E+00  0.00000000000E+00  0.45593999997E+02  0.45594000000E+02  0.51100000000E-03 0. -1.
         11   -1    0    0    0    0 -0.00000000000E+00 -0.00000000000E+00 -0.45593999997E+02  0.45594000000E+02  0.51100000000E-03 0.  1.
         23    2    1    2    0    0  0.00000000000E+00  0.00000000000E+00  0.00000000000E+00  0.91188000000E+02  0.91188000000E+02 0.  0.
    9900012    2    3    3    0    0 -0.27628545340E+01  0.13467207406E+02  0.34158200841E+02  0.54367058605E+02  0.39999941702E+02 0.  0.
        -12    1    3    3    0    0  0.27628545340E+01 -0.13467207406E+02 -0.34158200841E+02  0.36820941395E+02  0.00000000000E+00 0.  1.
         11    1    4    4    0    0 -0.27530696201E+01  0.20905342499E+02  0.28519724530E+02  0.35468118428E+02  0.51100000000E-03 0. -1.
        -11    1    4    4    0    0  0.53165166625E+01  0.11200370104E+01 -0.24641270459E+01  0.59658825572E+01  0.51100000000E-03 0.  1.
         12    1    4    4    0    0 -0.53263015764E+01 -0.85581721032E+01  0.81026033571E+01  0.12933057620E+02  0.00000000000E+00 0. -1.
</event>
<event>
 8    1  0.2401501E-006  0.9118800E+02  0.7816164E-02  0.1184000E+00
        -11   -1    0    0    0    0  0.00000000000E+00  0.00000000000E+00  0.45593999997E+02  0.45594000000E+02  0.51100000000E-03 0. -1.
         11   -1    0    0    0    0 -0.00000000000E+00 -0.00000000000E+00 -0.45593999997E+02  0.45594000000E+02  0.51100000000E-03 0.  1.
         23    2    1    2    0    0 -0.35527136788E-14  0.17763568394E-14 -0.35527136788E-14  0.91188000000E+02  0.91188000000E+02 0.  0.
    9900012    2    3    3    0    0  0.29485061475E+02  0.11342610834E+02  0.18914403251E+02  0.54367104831E+02  0.40000047083E+02 0.  0.
        -12    1    3    3    0    0 -0.29485061475E+02 -0.11342610834E+02 -0.18914403251E+02  0.36820895169E+02  0.00000000000E+00 0.  1.
         11    1    4    4    0    0  0.23055056758E+02  0.20860162962E+02  0.18711972186E+02  0.36288013782E+02  0.51100000000E-03 0. -1.
        -11    1    4    4    0    0  0.24928064646E+01 -0.42552032220E+01 -0.68490024559E+01  0.84397673802E+01  0.51100000000E-03 0.  1.
        -12    1    4    4    0    0  0.39371982528E+01 -0.52623489057E+01  0.70514335209E+01  0.96393236685E+01  0.00000000000E+00 0.  1.
</event>
<event>
 8    1  0.2401501E-006  0.9118800E+02  0.7816164E-02  0.1184000E+00
        -11   -1    0    0    0    0  0.00000000000E+00  0.00000000000E+00  0.45593999997E+02  0.45594000000E+02  0.51100000000E-03 0. -1.
         11   -1    0    0    0    0 -0.00000000000E+00 -0.00000000000E+00 -0.45593999997E+02  0.45594000000E+02  0.51100000000E-03 0.  1.
         23    2    1    2    0    0  0.00000000000E+00  0.00000000000E+00  0.00000000000E+00  0.91188000000E+02  0.91188000000E+02 0.  0.
    9900012    2    3    3    0    0  0.22279095594E+02  0.13627180578E+02  0.25956151008E+02  0.54367083035E+02  0.39999997394E+02 0.  0.
        -12    1    3    3    0    0 -0.22279095594E+02 -0.13627180578E+02 -0.25956151008E+02  0.36820916965E+02  0.00000000000E+00 0.  1.
         11    1    4    4    0    0  0.23691259649E+01  0.52053714761E+01  0.24747520091E+02  0.25399771671E+02  0.51100000000E-03 0. -1.
        -11    1    4    4    0    0  0.23159228322E+02  0.64148463142E+01  0.38308311552E+01  0.24334653836E+02  0.51100000000E-03 0.  1.
        -12    1    4    4    0    0 -0.32492586927E+01  0.20069627880E+01 -0.26222002377E+01  0.46326575280E+01  0.00000000000E+00 0.  1.
</event>
<event>
 8    1  0.2401501E-006  0.9118800E+02  0.7816164E-02  0.1184000E+00
        -11   -1    0    0    0    0  0.00000000000E+00  0.00000000000E+00  0.45593999997E+02  0.45594000000E+02  0.51100000000E-03 0. -1.
         11   -1    0    0    0    0 -0.00000000000E+00 -0.00000000000E+00 -0.45593999997E+02  0.45594000000E+02  0.51100000000E-03 0.  1.
         23    2    1    2    0    0  0.17763568394E-14  0.66613381478E-15  0.00000000000E+00  0.91188000000E+02  0.91188000000E+02 0.  0.
    9900012    2    3    3    0    0 -0.11311415851E+02  0.11326083223E+01 -0.35022108629E+02  0.54367095299E+02  0.40000025353E+02 0.  0.
         12    1    3    3    0    0  0.11311415851E+02 -0.11326083223E+01  0.35022108629E+02  0.36820904701E+02  0.00000000000E+00 0. -1.
         11    1    4    4    0    0 -0.42445394755E+01  0.10144871182E+02  0.29936512248E+01  0.11397213457E+02  0.51100000000E-03 0.  1.
        -11    1    4    4    0    0  0.25985688816E+01 -0.70138951927E+01 -0.27703676991E+02  0.28695661781E+02  0.51100000000E-03 0. -1.
        -12    1    4    4    0    0 -0.96654452574E+01 -0.19983676672E+01 -0.10312082863E+02  0.14274220061E+02  0.00000000000E+00 0.  1.
</event>
<event>
 8    1  0.2401501E-006  0.9118800E+02  0.7816164E-02  0.1184000E+00
        -11   -1    0    0    0    0  0.00000000000E+00  0.00000000000E+00  0.45593999997E+02  0.45594000000E+02  0.51100000000E-03 0. -1.
         11   -1    0    0    0    0 -0.00000000000E+00 -0.00000000000E+00 -0.45593999997E+02  0.45594000000E+02  0.51100000000E-03 0.  1.
         23    2    1    2    0    0  0.00000000000E+00  0.35527136788E-14  0.00000000000E+00  0.91188000000E+02  0.91188000000E+02 0.  0.
    9900012    2    3    3    0    0  0.20583171125E+02 -0.29227637212E+02  0.88237974922E+01  0.54367066922E+02  0.39999960661E+02 0.  0.
        -12    1    3    3    0    0 -0.20583171125E+02  0.29227637212E+02 -0.88237974922E+01  0.36820933078E+02  0.00000000000E+00 0.  1.
         11    1    4    4    0    0  0.10784028481E+02 -0.18293884218E+02  0.83496046104E+01  0.22818355932E+02  0.51100000000E-03 0. -1.
        -11    1    4    4    0    0  0.15231360047E+02 -0.15142104811E+02 -0.57966576462E+01  0.22245873935E+02  0.51100000000E-03 0.  1.
        -12    1    4    4    0    0 -0.54322174024E+01  0.42083518166E+01  0.62708505280E+01  0.93028370545E+01  0.00000000000E+00 0.  1.
</event>
<event>
 8    1  0.2401501E-006  0.9118800E+02  0.7816164E-02  0.1184000E+00
        -11   -1    0    0    0    0  0.00000000000E+00  0.00000000000E+00  0.45593999997E+02  0.45594000000E+02  0.51100000000E-03 0. -1.
         11   -1    0    0    0    0 -0.00000000000E+00 -0.00000000000E+00 -0.45593999997E+02  0.45594000000E+02  0.51100000000E-03 0.  1.
         23    2    1    2    0    0  0.35527136788E-14 -0.35527136788E-14  0.00000000000E+00  0.91188000000E+02  0.91188000000E+02 0.  0.
    9900012    2    3    3    0    0  0.30656714460E+02 -0.19490221750E+02  0.60064990773E+01  0.54367069587E+02  0.39999966737E+02 0.  0.
         12    1    3    3    0    0 -0.30656714460E+02  0.19490221750E+02 -0.60064990773E+01  0.36820930413E+02  0.00000000000E+00 0. -1.
         11    1    4    4    0    0  0.74295381057E+01  0.14409915182E+01 -0.27695805031E+01  0.80588503798E+01  0.51100000000E-03 0. -1.
        -11    1    4    4    0    0  0.24174064416E+02 -0.10922975780E+01 -0.89925303691E+00  0.24215432284E+02  0.51100000000E-03 0.  1.
         12    1    4    4    0    0 -0.94688806221E+00 -0.19838915691E+02  0.96753326173E+01  0.22092786923E+02  0.00000000000E+00 0. -1.
</event>
<event>
 8    1  0.2401501E-006  0.9118800E+02  0.7816164E-02  0.1184000E+00
        -11   -1    0    0    0    0  0.00000000000E+00  0.00000000000E+00  0.45593999997E+02  0.45594000000E+02  0.51100000000E-03 0.  1.
         11   -1    0    0    0    0 -0.00000000000E+00 -0.00000000000E+00 -0.45593999997E+02  0.45594000000E+02  0.51100000000E-03 0. -1.
         23    2    1    2    0    0  0.00000000000E+00 -0.53290705182E-14  0.88817841970E-15  0.91188000000E+02  0.91188000000E+02 0.  0.
    9900012    2    3    3    0    0 -0.34930329377E+02  0.91388023957E+01 -0.72202438202E+01  0.54367115431E+02  0.40000071248E+02 0.  0.
         12    1    3    3    0    0  0.34930329377E+02 -0.91388023957E+01  0.72202438202E+01  0.36820884569E+02  0.00000000000E+00 0. -1.
         11    1    4    4    0    0 -0.68949599191E+01 -0.12570050212E+02 -0.24949362132E+01  0.14552365498E+02  0.51100000000E-03 0. -1.
        -11    1    4    4    0    0 -0.16716366461E+02  0.19379785781E+02 -0.95158244873E+01  0.27305016398E+02  0.51100000000E-03 0.  1.
         12    1    4    4    0    0 -0.11319002997E+02  0.23290668272E+01  0.47905168802E+01  0.12509733535E+02  0.00000000000E+00 0. -1.
</event>
<event>
 8    1  0.2401501E-006  0.9118800E+02  0.7816164E-02  0.1184000E+00
        -11   -1    0    0    0    0  0.00000000000E+00  0.00000000000E+00  0.45593999997E+02  0.45594000000E+02  0.51100000000E-03 0.  1.
         11   -1    0    0    0    0 -0.00000000000E+00 -0.00000000000E+00 -0.45593999997E+02  0.45594000000E+02  0.51100000000E-03 0. -1.
         23    2    1    2    0    0  0.00000000000E+00  0.00000000000E+00  0.35527136788E-14  0.91188000000E+02  0.91188000000E+02 0.  0.
    9900012    2    3    3    0    0 -0.22570667198E+02 -0.46221282573E+01  0.28722468694E+02  0.54367091602E+02  0.40000016925E+02 0.  0.
         12    1    3    3    0    0  0.22570667198E+02  0.46221282573E+01 -0.28722468694E+02  0.36820908398E+02  0.00000000000E+00 0. -1.
         11    1    4    4    0    0  0.10743102773E+01 -0.22631601032E+01  0.27127825884E+01  0.36925906702E+01  0.51100000000E-03 0.  1.
        -11    1    4    4    0    0 -0.25146190868E+01 -0.24935947155E+01  0.29103727573E+02  0.29318394953E+02  0.51100000000E-03 0. -1.
         12    1    4    4    0    0 -0.21130358389E+02  0.13462656149E+00 -0.30940414674E+01  0.21356105978E+02  0.00000000000E+00 0. -1.
</event>
<event>
 8    1  0.2401501E-006  0.9118800E+02  0.7816164E-02  0.1184000E+00
        -11   -1    0    0    0    0  0.00000000000E+00  0.00000000000E+00  0.45593999997E+02  0.45594000000E+02  0.51100000000E-03 0.  1.
         11   -1    0    0    0    0 -0.00000000000E+00 -0.00000000000E+00 -0.45593999997E+02  0.45594000000E+02  0.51100000000E-03 0. -1.
         23    2    1    2    0    0  0.00000000000E+00  0.35527136788E-14 -0.35527136788E-14  0.91188000000E+02  0.91188000000E+02 0.  0.
    9900012    2    3    3    0    0  0.23614581960E+02  0.20141804591E+02  0.19810118614E+02  0.54367060674E+02  0.39999946419E+02 0.  0.
         12    1    3    3    0    0 -0.23614581960E+02 -0.20141804591E+02 -0.19810118614E+02  0.36820939326E+02  0.00000000000E+00 0. -1.
         11    1    4    4    0    0 -0.28248700288E+01 -0.80197102533E+01  0.31298880670E+01  0.90604548892E+01  0.51100000000E-03 0. -1.
        -11    1    4    4    0    0  0.13467074325E+02  0.20157486058E+02  0.17720278674E+02  0.30028230244E+02  0.51100000000E-03 0.  1.
         12    1    4    4    0    0  0.12972377663E+02  0.80040287863E+01 -0.10400481267E+01  0.15278375541E+02  0.00000000000E+00 0. -1.
</event>
<event>
 8    1  0.2401501E-006  0.9118800E+02  0.7816164E-02  0.1184000E+00
        -11   -1    0    0    0    0  0.00000000000E+00  0.00000000000E+00  0.45593999997E+02  0.45594000000E+02  0.51100000000E-03 0. -1.
         11   -1    0    0    0    0 -0.00000000000E+00 -0.00000000000E+00 -0.45593999997E+02  0.45594000000E+02  0.51100000000E-03 0.  1.
         23    2    1    2    0    0  0.00000000000E+00  0.00000000000E+00  0.00000000000E+00  0.91188000000E+02  0.91188000000E+02 0.  0.
    9900012    2    3    3    0    0  0.26037117838E+02 -0.11944237986E+02  0.23134046987E+02  0.54367075835E+02  0.39999980982E+02 0.  0.
        -12    1    3    3    0    0 -0.26037117838E+02  0.11944237986E+02 -0.23134046987E+02  0.36820924165E+02  0.00000000000E+00 0.  1.
         11    1    4    4    0    0  0.28769605690E+01 -0.15575771834E+01  0.18227788769E+02  0.18519050528E+02  0.51100000000E-03 0. -1.
        -11    1    4    4    0    0  0.14795951052E+02 -0.12510747694E+02  0.13542031788E+02  0.23639492393E+02  0.51100000000E-03 0.  1.
        -12    1    4    4    0    0  0.83642062171E+01  0.21240868916E+01 -0.86357735703E+01  0.12208532914E+02  0.00000000000E+00 0.  1.
</event>
<event>
 8    1  0.2401501E-006  0.9118800E+02  0.7816164E-02  0.1184000E+00
        -11   -1    0    0    0    0  0.00000000000E+00  0.00000000000E+00  0.45593999997E+02  0.45594000000E+02  0.51100000000E-03 0. -1.
         11   -1    0    0    0    0 -0.00000000000E+00 -0.00000000000E+00 -0.45593999997E+02  0.45594000000E+02  0.51100000000E-03 0.  1.
         23    2    1    2    0    0 -0.17763568394E-14  0.00000000000E+00  0.88817841970E-15  0.91188000000E+02  0.91188000000E+02 0.  0.
    9900012    2    3    3    0    0 -0.12447592382E+02  0.34615388384E+02 -0.16173864630E+01  0.54367033037E+02  0.39999883415E+02 0.  0.
         12    1    3    3    0    0  0.12447592382E+02 -0.34615388384E+02  0.16173864630E+01  0.36820966963E+02  0.00000000000E+00 0. -1.
         11    1    4    4    0    0 -0.14271574738E+02  0.41742954363E+01  0.13163339996E+02  0.19858905005E+02  0.51100000000E-03 0. -1.
        -11    1    4    4    0    0  0.38197938657E+01  0.11314423642E+02 -0.52375799388E+01  0.13039909946E+02  0.51100000000E-03 0.  1.
         12    1    4    4    0    0 -0.19958115102E+01  0.19126669305E+02 -0.95431465197E+01  0.21468218086E+02  0.00000000000E+00 0. -1.
</event>
<event>
 8    1  0.2401501E-006  0.9118800E+02  0.7816164E-02  0.1184000E+00
        -11   -1    0    0    0    0  0.00000000000E+00  0.00000000000E+00  0.45593999997E+02  0.45594000000E+02  0.51100000000E-03 0.  1.
         11   -1    0    0    0    0 -0.00000000000E+00 -0.00000000000E+00 -0.45593999997E+02  0.45594000000E+02  0.51100000000E-03 0. -1.
         23    2    1    2    0    0  0.00000000000E+00  0.00000000000E+00  0.00000000000E+00  0.91188000000E+02  0.91188000000E+02 0.  0.
    9900012    2    3    3    0    0 -0.50992087030E+01 -0.10366205202E+02  0.34961685227E+02  0.54367087822E+02  0.40000008308E+02 0.  0.
         12    1    3    3    0    0  0.50992087030E+01  0.10366205202E+02 -0.34961685227E+02  0.36820912178E+02  0.00000000000E+00 0. -1.
         11    1    4    4    0    0  0.13281807434E+01  0.54056096735E+01  0.35835687516E+01  0.66201695815E+01  0.51100000000E-03 0. -1.
        -11    1    4    4    0    0 -0.36866088322E+01 -0.67819514564E+00  0.32168466389E+02  0.32386127639E+02  0.51100000000E-03 0.  1.
        -12    1    4    4    0    0 -0.27407806142E+01 -0.15093619730E+02 -0.79034991352E+00  0.15360790602E+02  0.00000000000E+00 0.  1.
</event>
<event>
 8    1  0.2401501E-006  0.9118800E+02  0.7816164E-02  0.1184000E+00
        -11   -1    0    0    0    0  0.00000000000E+00  0.00000000000E+00  0.45593999997E+02  0.45594000000E+02  0.51100000000E-03 0. -1.
         11   -1    0    0    0    0 -0.00000000000E+00 -0.00000000000E+00 -0.45593999997E+02  0.45594000000E+02  0.51100000000E-03 0.  1.
         23    2    1    2    0    0  0.88817841970E-15 -0.22204460493E-15  0.00000000000E+00  0.91188000000E+02  0.91188000000E+02 0.  0.
    9900012    2    3    3    0    0 -0.69305716250E+01  0.19041255692E+01  0.36112618073E+02  0.54367086088E+02  0.40000004355E+02 0.  0.
        -12    1    3    3    0    0  0.69305716250E+01 -0.19041255692E+01 -0.36112618073E+02  0.36820913912E+02  0.00000000000E+00 0.  1.
         11    1    4    4    0    0 -0.99056495909E+01 -0.39866773643E+00 -0.10924859709E+01  0.99736831531E+01  0.51100000000E-03 0. -1.
        -11    1    4    4    0    0 -0.58046905296E+00  0.51448522022E+01  0.39115684313E+02  0.39456852485E+02  0.51100000000E-03 0.  1.
        -12    1    4    4    0    0  0.35555470188E+01 -0.28420588966E+01 -0.19105802692E+01  0.49365504494E+01  0.00000000000E+00 0.  1.
</event>
<event>
 8    1  0.2401501E-006  0.9118800E+02  0.7816164E-02  0.1184000E+00
        -11   -1    0    0    0    0  0.00000000000E+00  0.00000000000E+00  0.45593999997E+02  0.45594000000E+02  0.51100000000E-03 0. -1.
         11   -1    0    0    0    0 -0.00000000000E+00 -0.00000000000E+00 -0.45593999997E+02  0.45594000000E+02  0.51100000000E-03 0.  1.
         23    2    1    2    0    0  0.00000000000E+00 -0.71054273576E-14  0.00000000000E+00  0.91188000000E+02  0.91188000000E+02 0.  0.
    9900012    2    3    3    0    0 -0.16405905197E+02 -0.32896463659E+02  0.21097179216E+01  0.54367055467E+02  0.39999934548E+02 0.  0.
        -12    1    3    3    0    0  0.16405905197E+02  0.32896463659E+02 -0.21097179216E+01  0.36820944533E+02  0.00000000000E+00 0.  1.
         11    1    4    4    0    0 -0.23802550933E+02 -0.13552425587E+02 -0.13861907452E+01  0.27425375025E+02  0.51100000000E-03 0. -1.
        -11    1    4    4    0    0 -0.68384306139E+00  0.21121164887E+01  0.33440353589E+01  0.40138821777E+01  0.51100000000E-03 0.  1.
         12    1    4    4    0    0  0.80804887976E+01 -0.21456154560E+02  0.15187330801E+00  0.22927798264E+02  0.00000000000E+00 0. -1.
</event>
<event>
 8    1  0.2401501E-006  0.9118800E+02  0.7816164E-02  0.1184000E+00
        -11   -1    0    0    0    0  0.00000000000E+00  0.00000000000E+00  0.45593999997E+02  0.45594000000E+02  0.51100000000E-03 0.  1.
         11   -1    0    0    0    0 -0.00000000000E+00 -0.00000000000E+00 -0.45593999997E+02  0.45594000000E+02  0.51100000000E-03 0. -1.
         23    2    1    2    0    0 -0.19081958236E-14  0.00000000000E+00  0.35527136788E-14  0.91188000000E+02  0.91188000000E+02 0.  0.
    9900012    2    3    3    0    0  0.59617766251E-01 -0.27186809949E+02  0.24832530228E+02  0.54367071888E+02  0.39999971984E+02 0.  0.
         12    1    3    3    0    0 -0.59617766251E-01  0.27186809949E+02 -0.24832530228E+02  0.36820928112E+02  0.00000000000E+00 0. -1.
         11    1    4    4    0    0  0.79055527912E+01 -0.29037476180E+01  0.22379325379E+02  0.23911581292E+02  0.51100000000E-03 0.  1.
        -11    1    4    4    0    0 -0.10740247787E+02 -0.24365999875E+02  0.43682288276E+01  0.26984000737E+02  0.51100000000E-03 0. -1.
        -12    1    4    4    0    0  0.28943127625E+01  0.82937543852E-01 -0.19150239792E+01  0.34714898594E+01  0.00000000000E+00 0.  1.
</event>
<event>
 8    1  0.2401501E-006  0.9118800E+02  0.7816164E-02  0.1184000E+00
        -11   -1    0    0    0    0  0.00000000000E+00  0.00000000000E+00  0.45593999997E+02  0.45594000000E+02  0.51100000000E-03 0. -1.
         11   -1    0    0    0    0 -0.00000000000E+00 -0.00000000000E+00 -0.45593999997E+02  0.45594000000E+02  0.51100000000E-03 0.  1.
         23    2    1    2    0    0  0.00000000000E+00  0.00000000000E+00  0.00000000000E+00  0.91188000000E+02  0.91188000000E+02 0.  0.
    9900012    2    3    3    0    0  0.92397321006E+01 -0.12459409254E+02  0.33394155881E+02  0.54367093232E+02  0.40000020640E+02 0.  0.
        -12    1    3    3    0    0 -0.92397321006E+01  0.12459409254E+02 -0.33394155881E+02  0.36820906768E+02  0.00000000000E+00 0.  1.
         11    1    4    4    0    0  0.11066259530E+02  0.52467706151E+00  0.18495911385E+02  0.21560058540E+02  0.51100000000E-03 0. -1.
        -11    1    4    4    0    0 -0.77640733076E+01 -0.14943319520E+02  0.20763036528E+00  0.16841221548E+02  0.51100000000E-03 0.  1.
        -12    1    4    4    0    0  0.59375458779E+01  0.19592332051E+01  0.14690614130E+02  0.15965813143E+02  0.00000000000E+00 0.  1.
</event>
<event>
 8    1  0.2401501E-006  0.9118800E+02  0.7816164E-02  0.1184000E+00
        -11   -1    0    0    0    0  0.00000000000E+00  0.00000000000E+00  0.45593999997E+02  0.45594000000E+02  0.51100000000E-03 0.  1.
         11   -1    0    0    0    0 -0.00000000000E+00 -0.00000000000E+00 -0.45593999997E+02  0.45594000000E+02  0.51100000000E-03 0. -1.
         23    2    1    2    0    0  0.00000000000E+00  0.00000000000E+00 -0.88817841970E-15  0.91188000000E+02  0.91188000000E+02 0.  0.
    9900012    2    3    3    0    0  0.34610508937E+02  0.11114528512E+02  0.58617985136E+01  0.54367071784E+02  0.39999971746E+02 0.  0.
         12    1    3    3    0    0 -0.34610508937E+02 -0.11114528512E+02 -0.58617985136E+01  0.36820928216E+02  0.00000000000E+00 0. -1.
         11    1    4    4    0    0  0.16462814071E+01  0.28618755668E+00 -0.12873192056E+02  0.12981187148E+02  0.51100000000E-03 0. -1.
        -11    1    4    4    0    0  0.31755667740E+02  0.10047393973E+02  0.13470146414E+02  0.35927947394E+02  0.51100000000E-03 0.  1.
         12    1    4    4    0    0  0.12085597894E+01  0.78094698213E+00  0.52648441555E+01  0.54579372417E+01  0.00000000000E+00 0. -1.
</event>
<event>
 8    1  0.2401501E-006  0.9118800E+02  0.7816164E-02  0.1184000E+00
        -11   -1    0    0    0    0  0.00000000000E+00  0.00000000000E+00  0.45593999997E+02  0.45594000000E+02  0.51100000000E-03 0.  1.
         11   -1    0    0    0    0 -0.00000000000E+00 -0.00000000000E+00 -0.45593999997E+02  0.45594000000E+02  0.51100000000E-03 0. -1.
         23    2    1    2    0    0 -0.44408920985E-15 -0.35527136788E-14  0.00000000000E+00  0.91188000000E+02  0.91188000000E+02 0.  0.
    9900012    2    3    3    0    0 -0.38627030246E+01  0.30652597281E+02 -0.20031914402E+02  0.54367084893E+02  0.40000001630E+02 0.  0.
        -12    1    3    3    0    0  0.38627030246E+01 -0.30652597281E+02  0.20031914402E+02  0.36820915107E+02  0.00000000000E+00 0.  1.
         11    1    4    4    0    0  0.29268105982E+01  0.47573758155E+01 -0.59180553867E+01  0.81377038991E+01  0.51100000000E-03 0. -1.
        -11    1    4    4    0    0 -0.44249187267E+00 -0.64228333720E+01 -0.11513774325E+02  0.13191496771E+02  0.51100000000E-03 0.  1.
        -12    1    4    4    0    0 -0.63470217502E+01  0.32318054837E+02 -0.26000846909E+01  0.33037884223E+02  0.00000000000E+00 0.  1.
</event>
<event>
 8    1  0.2401501E-006  0.9118800E+02  0.7816164E-02  0.1184000E+00
        -11   -1    0    0    0    0  0.00000000000E+00  0.00000000000E+00  0.45593999997E+02  0.45594000000E+02  0.51100000000E-03 0. -1.
         11   -1    0    0    0    0 -0.00000000000E+00 -0.00000000000E+00 -0.45593999997E+02  0.45594000000E+02  0.51100000000E-03 0.  1.
         23    2    1    2    0    0  0.35527136788E-14 -0.35527136788E-14 -0.17763568394E-14  0.91188000000E+02  0.91188000000E+02 0.  0.
    9900012    2    3    3    0    0  0.29609877197E+02 -0.16461852669E+02 -0.14423665868E+02  0.54367088034E+02  0.40000008791E+02 0.  0.
         12    1    3    3    0    0 -0.29609877197E+02  0.16461852669E+02  0.14423665868E+02  0.36820911966E+02  0.00000000000E+00 0. -1.
         11    1    4    4    0    0 -0.24493957301E+00  0.34971959005E+01  0.80028012531E+01  0.87370019296E+01  0.51100000000E-03 0. -1.
        -11    1    4    4    0    0  0.98716010730E+01 -0.88127996136E+01  0.49512703823E+00  0.13242322146E+02  0.51100000000E-03 0.  1.
         12    1    4    4    0    0  0.19983215697E+02 -0.11146248956E+02 -0.22921594160E+02  0.32387763958E+02  0.00000000000E+00 0. -1.
</event>
<event>
 8    1  0.2401501E-006  0.9118800E+02  0.7816164E-02  0.1184000E+00
        -11   -1    0    0    0    0  0.00000000000E+00  0.00000000000E+00  0.45593999997E+02  0.45594000000E+02  0.51100000000E-03 0.  1.
         11   -1    0    0    0    0 -0.00000000000E+00 -0.00000000000E+00 -0.45593999997E+02  0.45594000000E+02  0.51100000000E-03 0. -1.
         23    2    1    2    0    0  0.00000000000E+00  0.00000000000E+00 -0.44408920985E-15  0.91188000000E+02  0.91188000000E+02 0.  0.
    9900012    2    3    3    0    0  0.24312755873E+02  0.27562780943E+02  0.22277733444E+01  0.54367082500E+02  0.39999996176E+02 0.  0.
         12    1    3    3    0    0 -0.24312755873E+02 -0.27562780943E+02 -0.22277733444E+01  0.36820917500E+02  0.00000000000E+00 0. -1.
         11    1    4    4    0    0  0.30540024521E+02  0.11325594081E+02  0.22282831464E+01  0.32648543996E+02  0.51100000000E-03 0. -1.
        -11    1    4    4    0    0 -0.55934833856E+01  0.19737085031E+00 -0.75956369465E+00  0.56482695496E+01  0.51100000000E-03 0.  1.
         12    1    4    4    0    0 -0.63378526244E+00  0.16039816012E+02  0.75905389269E+00  0.16070268954E+02  0.00000000000E+00 0. -1.
</event>
<event>
 8    1  0.2401501E-006  0.9118800E+02  0.7816164E-02  0.1184000E+00
        -11   -1    0    0    0    0  0.00000000000E+00  0.00000000000E+00  0.45593999997E+02  0.45594000000E+02  0.51100000000E-03 0. -1.
         11   -1    0    0    0    0 -0.00000000000E+00 -0.00000000000E+00 -0.45593999997E+02  0.45594000000E+02  0.51100000000E-03 0.  1.
         23    2    1    2    0    0 -0.17763568394E-14 -0.17763568394E-14 -0.35527136788E-14  0.91188000000E+02  0.91188000000E+02 0.  0.
    9900012    2    3    3    0    0 -0.15234838361E+02 -0.10451434721E+02  0.31850384954E+02  0.54367084621E+02  0.40000001011E+02 0.  0.
        -12    1    3    3    0    0  0.15234838361E+02  0.10451434721E+02 -0.31850384954E+02  0.36820915379E+02  0.00000000000E+00 0.  1.
         11    1    4    4    0    0  0.75094765948E+01  0.44544160442E+01  0.71928825405E+01  0.11312454222E+02  0.51100000000E-03 0. -1.
        -11    1    4    4    0    0 -0.41059963280E+01  0.56280609441E+01  0.20109790313E+01  0.72510904533E+01  0.51100000000E-03 0.  1.
        -12    1    4    4    0    0 -0.18638318628E+02 -0.20533911709E+02  0.22646523382E+02  0.35803539946E+02  0.00000000000E+00 0.  1.
</event>
<event>
 8    1  0.2401501E-006  0.9118800E+02  0.7816164E-02  0.1184000E+00
        -11   -1    0    0    0    0  0.00000000000E+00  0.00000000000E+00  0.45593999997E+02  0.45594000000E+02  0.51100000000E-03 0.  1.
         11   -1    0    0    0    0 -0.00000000000E+00 -0.00000000000E+00 -0.45593999997E+02  0.45594000000E+02  0.51100000000E-03 0. -1.
         23    2    1    2    0    0  0.00000000000E+00 -0.80491169285E-15 -0.35527136788E-14  0.91188000000E+02  0.91188000000E+02 0.  0.
    9900012    2    3    3    0    0  0.28103945578E+02 -0.19909355056E+00 -0.23788812229E+02  0.54367095849E+02  0.40000026606E+02 0.  0.
        -12    1    3    3    0    0 -0.28103945578E+02  0.19909355056E+00  0.23788812229E+02  0.36820904151E+02  0.00000000000E+00 0.  1.
         11    1    4    4    0    0  0.27246516087E+02 -0.11638684625E+02 -0.10519207256E+02  0.31440186708E+02  0.51100000000E-03 0. -1.
        -11    1    4    4    0    0 -0.25198611681E+01  0.33964443140E+01  0.24945769851E+01  0.49100355274E+01  0.51100000000E-03 0.  1.
         12    1    4    4    0    0  0.33772906584E+01  0.80431467601E+01 -0.15764181958E+02  0.18016873613E+02  0.00000000000E+00 0. -1.
</event>
<event>
 8    1  0.2401501E-006  0.9118800E+02  0.7816164E-02  0.1184000E+00
        -11   -1    0    0    0    0  0.00000000000E+00  0.00000000000E+00  0.45593999997E+02  0.45594000000E+02  0.51100000000E-03 0. -1.
         11   -1    0    0    0    0 -0.00000000000E+00 -0.00000000000E+00 -0.45593999997E+02  0.45594000000E+02  0.51100000000E-03 0.  1.
         23    2    1    2    0    0 -0.17763568394E-14  0.00000000000E+00 -0.35527136788E-14  0.91188000000E+02  0.91188000000E+02 0.  0.
    9900012    2    3    3    0    0  0.93771771381E+01  0.20839099429E+02  0.28871799713E+02  0.54367077486E+02  0.39999984744E+02 0.  0.
        -12    1    3    3    0    0 -0.93771771381E+01 -0.20839099429E+02 -0.28871799713E+02  0.36820922514E+02  0.00000000000E+00 0.  1.
         11    1    4    4    0    0  0.12371109981E+02  0.22693304087E+02  0.11926020497E+02  0.28465072944E+02  0.51100000000E-03 0. -1.
        -11    1    4    4    0    0  0.80772391046E+01 -0.15810420088E+01  0.50844412339E+01  0.96743489863E+01  0.51100000000E-03 0.  1.
         12    1    4    4    0    0 -0.11071171947E+02 -0.27316264850E+00  0.11861337982E+02  0.16227655556E+02  0.00000000000E+00 0. -1.
</event>
<event>
 8    1  0.2401501E-006  0.9118800E+02  0.7816164E-02  0.1184000E+00
        -11   -1    0    0    0    0  0.00000000000E+00  0.00000000000E+00  0.45593999997E+02  0.45594000000E+02  0.51100000000E-03 0.  1.
         11   -1    0    0    0    0 -0.00000000000E+00 -0.00000000000E+00 -0.45593999997E+02  0.45594000000E+02  0.51100000000E-03 0. -1.
         23    2    1    2    0    0  0.00000000000E+00 -0.88817841970E-15  0.00000000000E+00  0.91188000000E+02  0.91188000000E+02 0.  0.
    9900012    2    3    3    0    0  0.31110899794E+02  0.58967341671E+01 -0.18791498651E+02  0.54367082285E+02  0.39999995685E+02 0.  0.
        -12    1    3    3    0    0 -0.31110899794E+02 -0.58967341671E+01  0.18791498651E+02  0.36820917715E+02  0.00000000000E+00 0.  1.
         11    1    4    4    0    0  0.11599673676E+02 -0.73166340100E+01 -0.87988777505E+00  0.13742625855E+02  0.51100000000E-03 0. -1.
        -11    1    4    4    0    0  0.11616582880E+02 -0.73766695986E+01 -0.10674315720E+02  0.17415546748E+02  0.51100000000E-03 0.  1.
        -12    1    4    4    0    0  0.78946432379E+01  0.20590037776E+02 -0.72372951556E+01  0.23208909682E+02  0.00000000000E+00 0.  1.
</event>
<event>
 8    1  0.2401501E-006  0.9118800E+02  0.7816164E-02  0.1184000E+00
        -11   -1    0    0    0    0  0.00000000000E+00  0.00000000000E+00  0.45593999997E+02  0.45594000000E+02  0.51100000000E-03 0.  1.
         11   -1    0    0    0    0 -0.00000000000E+00 -0.00000000000E+00 -0.45593999997E+02  0.45594000000E+02  0.51100000000E-03 0. -1.
         23    2    1    2    0    0  0.00000000000E+00  0.44408920985E-15  0.00000000000E+00  0.91188000000E+02  0.91188000000E+02 0.  0.
    9900012    2    3    3    0    0 -0.21848350717E+02  0.22670236386E+01  0.29551461667E+02  0.54367099524E+02  0.40000034984E+02 0.  0.
         12    1    3    3    0    0  0.21848350717E+02 -0.22670236386E+01 -0.29551461667E+02  0.36820900476E+02  0.00000000000E+00 0. -1.
         11    1    4    4    0    0 -0.80928242786E+00  0.61100923677E+01 -0.61085901266E+01  0.86777324449E+01  0.51100000000E-03 0. -1.
        -11    1    4    4    0    0 -0.15607770242E+02  0.63536979407E+01  0.23484826410E+02  0.28905173260E+02  0.51100000000E-03 0.  1.
        -12    1    4    4    0    0 -0.54312980474E+01 -0.10196766670E+02  0.12175225384E+02  0.16784193819E+02  0.00000000000E+00 0.  1.
</event>
<event>
 8    1  0.2401501E-006  0.9118800E+02  0.7816164E-02  0.1184000E+00
        -11   -1    0    0    0    0  0.00000000000E+00  0.00000000000E+00  0.45593999997E+02  0.45594000000E+02  0.51100000000E-03 0.  1.
         11   -1    0    0    0    0 -0.00000000000E+00 -0.00000000000E+00 -0.45593999997E+02  0.45594000000E+02  0.51100000000E-03 0. -1.
         23    2    1    2    0    0 -0.35527136788E-14  0.00000000000E+00  0.35527136788E-14  0.91188000000E+02  0.91188000000E+02 0.  0.
    9900012    2    3    3    0    0  0.28854089792E+02 -0.58487002488E+01  0.22113710517E+02  0.54367055075E+02  0.39999933654E+02 0.  0.
        -12    1    3    3    0    0 -0.28854089792E+02  0.58487002488E+01 -0.22113710517E+02  0.36820944925E+02  0.00000000000E+00 0.  1.
         11    1    4    4    0    0  0.20988076828E+02 -0.71561444772E+01 -0.31540648443E+01  0.22397720822E+02  0.51100000000E-03 0. -1.
        -11    1    4    4    0    0  0.13610444464E+02  0.85664923984E+00  0.19676367781E+02  0.23940290219E+02  0.51100000000E-03 0.  1.
         12    1    4    4    0    0 -0.57444314998E+01  0.45079498852E+00  0.55914075805E+01  0.80290440345E+01  0.00000000000E+00 0. -1.
</event>
<event>
 8    1  0.2401501E-006  0.9118800E+02  0.7816164E-02  0.1184000E+00
        -11   -1    0    0    0    0  0.00000000000E+00  0.00000000000E+00  0.45593999997E+02  0.45594000000E+02  0.51100000000E-03 0. -1.
         11   -1    0    0    0    0 -0.00000000000E+00 -0.00000000000E+00 -0.45593999997E+02  0.45594000000E+02  0.51100000000E-03 0.  1.
         23    2    1    2    0    0  0.00000000000E+00  0.00000000000E+00  0.44408920985E-15  0.91188000000E+02  0.91188000000E+02 0.  0.
    9900012    2    3    3    0    0  0.32368472229E+02  0.17117208385E+02  0.38813329283E+01  0.54367060813E+02  0.39999946735E+02 0.  0.
        -12    1    3    3    0    0 -0.32368472229E+02 -0.17117208385E+02 -0.38813329283E+01  0.36820939187E+02  0.00000000000E+00 0.  1.
         11    1    4    4    0    0  0.42441319047E+00  0.34983615431E+01  0.32212843275E+01  0.47744458340E+01  0.51100000000E-03 0. -1.
        -11    1    4    4    0    0  0.27220239832E+02 -0.27091458445E+01  0.11237079014E+02  0.29572840120E+02  0.51100000000E-03 0.  1.
        -12    1    4    4    0    0  0.47238192067E+01  0.16327992686E+02 -0.10577030413E+02  0.20019774859E+02  0.00000000000E+00 0.  1.
</event>
<event>
 8    1  0.2401501E-006  0.9118800E+02  0.7816164E-02  0.1184000E+00
        -11   -1    0    0    0    0  0.00000000000E+00  0.00000000000E+00  0.45593999997E+02  0.45594000000E+02  0.51100000000E-03 0.  1.
         11   -1    0    0    0    0 -0.00000000000E+00 -0.00000000000E+00 -0.45593999997E+02  0.45594000000E+02  0.51100000000E-03 0. -1.
         23    2    1    2    0    0  0.00000000000E+00  0.35527136788E-14 -0.44408920985E-15  0.91188000000E+02  0.91188000000E+02 0.  0.
    9900012    2    3    3    0    0 -0.32486642426E+02  0.16988456534E+02 -0.34335135050E+01  0.54367100955E+02  0.40000038246E+02 0.  0.
        -12    1    3    3    0    0  0.32486642426E+02 -0.16988456534E+02  0.34335135050E+01  0.36820899045E+02  0.00000000000E+00 0.  1.
         11    1    4    4    0    0  0.12619623630E+01 -0.36400285268E+01  0.98487303643E+01  0.10575436007E+02  0.51100000000E-03 0. -1.
        -11    1    4    4    0    0 -0.68018356536E+01 -0.53160651338E+00  0.54608558333E+00  0.68443979625E+01  0.51100000000E-03 0.  1.
         12    1    4    4    0    0 -0.26946769135E+02  0.21160091574E+02 -0.13828329453E+02  0.36947266986E+02  0.00000000000E+00 0. -1.
</event>
<event>
 8    1  0.2401501E-006  0.9118800E+02  0.7816164E-02  0.1184000E+00
        -11   -1    0    0    0    0  0.00000000000E+00  0.00000000000E+00  0.45593999997E+02  0.45594000000E+02  0.51100000000E-03 0. -1.
         11   -1    0    0    0    0 -0.00000000000E+00 -0.00000000000E+00 -0.45593999997E+02  0.45594000000E+02  0.51100000000E-03 0.  1.
         23    2    1    2    0    0  0.26645352591E-14  0.00000000000E+00 -0.35527136788E-14  0.91188000000E+02  0.91188000000E+02 0.  0.
    9900012    2    3    3    0    0  0.42280249033E+01 -0.28676050830E+02 -0.22706554465E+02  0.54367086086E+02  0.40000004350E+02 0.  0.
         12    1    3    3    0    0 -0.42280249033E+01  0.28676050830E+02  0.22706554465E+02  0.36820913914E+02  0.00000000000E+00 0. -1.
         11    1    4    4    0    0 -0.70750918088E+01 -0.25094576925E+02 -0.63887990617E+01  0.26844207362E+02  0.51100000000E-03 0. -1.
        -11    1    4    4    0    0 -0.44156508152E+01 -0.16882094157E+01  0.81605072106E-01  0.47280738998E+01  0.51100000000E-03 0.  1.
         12    1    4    4    0    0  0.15718767527E+02 -0.18932644893E+01 -0.16399360475E+02  0.22794804825E+02  0.00000000000E+00 0. -1.
</event>
<event>
 8    1  0.2401501E-006  0.9118800E+02  0.7816164E-02  0.1184000E+00
        -11   -1    0    0    0    0  0.00000000000E+00  0.00000000000E+00  0.45593999997E+02  0.45594000000E+02  0.51100000000E-03 0. -1.
         11   -1    0    0    0    0 -0.00000000000E+00 -0.00000000000E+00 -0.45593999997E+02  0.45594000000E+02  0.51100000000E-03 0.  1.
         23    2    1    2    0    0  0.88817841970E-15  0.35527136788E-14 -0.71054273576E-14  0.91188000000E+02  0.91188000000E+02 0.  0.
    9900012    2    3    3    0    0  0.30092286760E+01  0.27724976515E+02 -0.24042665578E+02  0.54367088169E+02  0.40000009099E+02 0.  0.
         12    1    3    3    0    0 -0.30092286760E+01 -0.27724976515E+02  0.24042665578E+02  0.36820911831E+02  0.00000000000E+00 0. -1.
         11    1    4    4    0    0 -0.17199103153E+01  0.10504907081E+01  0.21727139767E+01  0.29634959939E+01  0.51100000000E-03 0. -1.
        -11    1    4    4    0    0 -0.22060353885E+01 -0.43407763703E+01 -0.17903009230E+02  0.18553346635E+02  0.51100000000E-03 0.  1.
         12    1    4    4    0    0  0.69351743797E+01  0.31015262177E+02 -0.83123703247E+01  0.32850245540E+02  0.00000000000E+00 0. -1.
</event>
<event>
 8    1  0.2401501E-006  0.9118800E+02  0.7816164E-02  0.1184000E+00
        -11   -1    0    0    0    0  0.00000000000E+00  0.00000000000E+00  0.45593999997E+02  0.45594000000E+02  0.51100000000E-03 0. -1.
         11   -1    0    0    0    0 -0.00000000000E+00 -0.00000000000E+00 -0.45593999997E+02  0.45594000000E+02  0.51100000000E-03 0.  1.
         23    2    1    2    0    0  0.17763568394E-14  0.00000000000E+00  0.35527136788E-14  0.91188000000E+02  0.91188000000E+02 0.  0.
    9900012    2    3    3    0    0 -0.10351508133E+02  0.27525268667E+02 -0.22158270801E+02  0.54367039927E+02  0.39999899122E+02 0.  0.
         12    1    3    3    0    0  0.10351508133E+02 -0.27525268667E+02  0.22158270801E+02  0.36820960073E+02  0.00000000000E+00 0. -1.
         11    1    4    4    0    0 -0.95804442115E+01 -0.36916802213E+01 -0.10408110625E+02  0.14619924117E+02  0.51100000000E-03 0. -1.
        -11    1    4    4    0    0  0.23148856290E+01  0.30809850563E+02 -0.37016183065E+01  0.31117640745E+02  0.51100000000E-03 0.  1.
        -12    1    4    4    0    0 -0.30859495502E+01  0.40709832461E+00 -0.80485418691E+01  0.86294750646E+01  0.00000000000E+00 0.  1.
</event>
<event>
 8    1  0.2401501E-006  0.9118800E+02  0.7816164E-02  0.1184000E+00
        -11   -1    0    0    0    0  0.00000000000E+00  0.00000000000E+00  0.45593999997E+02  0.45594000000E+02  0.51100000000E-03 0.  1.
         11   -1    0    0    0    0 -0.00000000000E+00 -0.00000000000E+00 -0.45593999997E+02  0.45594000000E+02  0.51100000000E-03 0. -1.
         23    2    1    2    0    0 -0.35527136788E-14  0.10269562978E-14 -0.35527136788E-14  0.91188000000E+02  0.91188000000E+02 0.  0.
    9900012    2    3    3    0    0 -0.19223928532E+02 -0.22965769557E+00 -0.31403296674E+02  0.54367092721E+02  0.40000019476E+02 0.  0.
        -12    1    3    3    0    0  0.19223928532E+02  0.22965769557E+00  0.31403296674E+02  0.36820907279E+02  0.00000000000E+00 0.  1.
         11    1    4    4    0    0 -0.34687922049E+01  0.46145850464E+01 -0.38860759034E+01  0.69590588946E+01  0.51100000000E-03 0. -1.
        -11    1    4    4    0    0 -0.13845295245E+02 -0.14135076179E+02 -0.31436634560E+02  0.37145047742E+02  0.51100000000E-03 0.  1.
        -12    1    4    4    0    0 -0.19098410826E+01  0.92908334374E+01  0.39194137898E+01  0.10262986085E+02  0.00000000000E+00 0.  1.
</event>
<event>
 8    1  0.2401501E-006  0.9118800E+02  0.7816164E-02  0.1184000E+00
        -11   -1    0    0    0    0  0.00000000000E+00  0.00000000000E+00  0.45593999997E+02  0.45594000000E+02  0.51100000000E-03 0.  1.
         11   -1    0    0    0    0 -0.00000000000E+00 -0.00000000000E+00 -0.45593999997E+02  0.45594000000E+02  0.51100000000E-03 0. -1.
         23    2    1    2    0    0  0.00000000000E+00  0.00000000000E+00  0.00000000000E+00  0.91188000000E+02  0.91188000000E+02 0.  0.
    9900012    2    3    3    0    0  0.17969486369E+02 -0.16944494635E+02  0.27308636342E+02  0.54367082607E+02  0.39999996419E+02 0.  0.
         12    1    3    3    0    0 -0.17969486369E+02  0.16944494635E+02 -0.27308636342E+02  0.36820917393E+02  0.00000000000E+00 0. -1.
         11    1    4    4    0    0  0.51975820511E+01 -0.50243766725E+01 -0.75828730163E+01  0.10476601718E+02  0.51100000000E-03 0. -1.
        -11    1    4    4    0    0  0.18119318181E+02 -0.84022981969E+01  0.23658332421E+02  0.30961669844E+02  0.51100000000E-03 0.  1.
        -12    1    4    4    0    0 -0.53474138624E+01 -0.35178197656E+01  0.11233176937E+02  0.12928811045E+02  0.00000000000E+00 0.  1.
</event>
<event>
 8    1  0.2401501E-006  0.9118800E+02  0.7816164E-02  0.1184000E+00
        -11   -1    0    0    0    0  0.00000000000E+00  0.00000000000E+00  0.45593999997E+02  0.45594000000E+02  0.51100000000E-03 0.  1.
         11   -1    0    0    0    0 -0.00000000000E+00 -0.00000000000E+00 -0.45593999997E+02  0.45594000000E+02  0.51100000000E-03 0. -1.
         23    2    1    2    0    0  0.00000000000E+00  0.00000000000E+00 -0.71054273576E-14  0.91188000000E+02  0.91188000000E+02 0.  0.
    9900012    2    3    3    0    0 -0.16918724527E+02  0.35785839668E+01 -0.32507395533E+02  0.54367078404E+02  0.39999986837E+02 0.  0.
        -12    1    3    3    0    0  0.16918724527E+02 -0.35785839668E+01  0.32507395533E+02  0.36820921596E+02  0.00000000000E+00 0.  1.
         11    1    4    4    0    0 -0.53115787471E+01 -0.46408339930E+01 -0.45461269012E+01  0.83915123190E+01  0.51100000000E-03 0. -1.
        -11    1    4    4    0    0 -0.12277057757E+02  0.37415376664E+01  0.41945305550E+01  0.13502567834E+02  0.51100000000E-03 0.  1.
         12    1    4    4    0    0  0.66991197733E+00  0.44778802934E+01 -0.32155799187E+02  0.32472998250E+02  0.00000000000E+00 0. -1.
</event>
<event>
 8    1  0.2401501E-006  0.9118800E+02  0.7816164E-02  0.1184000E+00
        -11   -1    0    0    0    0  0.00000000000E+00  0.00000000000E+00  0.45593999997E+02  0.45594000000E+02  0.51100000000E-03 0.  1.
         11   -1    0    0    0    0 -0.00000000000E+00 -0.00000000000E+00 -0.45593999997E+02  0.45594000000E+02  0.51100000000E-03 0. -1.
         23    2    1    2    0    0  0.00000000000E+00  0.00000000000E+00 -0.17763568394E-14  0.91188000000E+02  0.91188000000E+02 0.  0.
    9900012    2    3    3    0    0 -0.13874471998E+02  0.31859592114E+02  0.12175578165E+02  0.54367091720E+02  0.40000017194E+02 0.  0.
         12    1    3    3    0    0  0.13874471998E+02 -0.31859592114E+02 -0.12175578165E+02  0.36820908280E+02  0.00000000000E+00 0. -1.
         11    1    4    4    0    0 -0.10249566834E+02  0.27887445097E+01  0.17969347726E+02  0.20874102955E+02  0.51100000000E-03 0. -1.
        -11    1    4    4    0    0  0.32907970791E+00  0.95567043680E+01  0.50573666692E+01  0.10817386455E+02  0.51100000000E-03 0.  1.
         12    1    4    4    0    0 -0.39539848718E+01  0.19514143236E+02 -0.10851136230E+02  0.22675602310E+02  0.00000000000E+00 0. -1.
</event>
<event>
 8    1  0.2401501E-006  0.9118800E+02  0.7816164E-02  0.1184000E+00
        -11   -1    0    0    0    0  0.00000000000E+00  0.00000000000E+00  0.45593999997E+02  0.45594000000E+02  0.51100000000E-03 0. -1.
         11   -1    0    0    0    0 -0.00000000000E+00 -0.00000000000E+00 -0.45593999997E+02  0.45594000000E+02  0.51100000000E-03 0.  1.
         23    2    1    2    0    0  0.00000000000E+00  0.35527136788E-14 -0.71054273576E-14  0.91188000000E+02  0.91188000000E+02 0.  0.
    9900012    2    3    3    0    0  0.94193355840E+01  0.11550797870E+02 -0.33669484192E+02  0.54367095883E+02  0.40000026684E+02 0.  0.
         12    1    3    3    0    0 -0.94193355840E+01 -0.11550797870E+02  0.33669484192E+02  0.36820904117E+02  0.00000000000E+00 0. -1.
         11    1    4    4    0    0 -0.85899682412E+01 -0.38819761296E+01  0.77622460764E+00  0.94583200389E+01  0.51100000000E-03 0. -1.
        -11    1    4    4    0    0  0.10750740811E+02  0.10994045977E+02 -0.84276272022E+01  0.17534890232E+02  0.51100000000E-03 0.  1.
         12    1    4    4    0    0  0.72585630143E+01  0.44387280226E+01 -0.26018081597E+02  0.27373885612E+02  0.00000000000E+00 0. -1.
</event>
<event>
 8    1  0.2401501E-006  0.9118800E+02  0.7816164E-02  0.1184000E+00
        -11   -1    0    0    0    0  0.00000000000E+00  0.00000000000E+00  0.45593999997E+02  0.45594000000E+02  0.51100000000E-03 0.  1.
         11   -1    0    0    0    0 -0.00000000000E+00 -0.00000000000E+00 -0.45593999997E+02  0.45594000000E+02  0.51100000000E-03 0. -1.
         23    2    1    2    0    0  0.17763568394E-14 -0.26645352591E-14  0.00000000000E+00  0.91188000000E+02  0.91188000000E+02 0.  0.
    9900012    2    3    3    0    0 -0.86075001087E+01  0.69984643756E+01  0.35110001919E+02  0.54367084796E+02  0.40000001409E+02 0.  0.
         12    1    3    3    0    0  0.86075001087E+01 -0.69984643756E+01 -0.35110001919E+02  0.36820915204E+02  0.00000000000E+00 0. -1.
         11    1    4    4    0    0 -0.35502181806E+01  0.17315480743E+02  0.35666025985E+01  0.18031932144E+02  0.51100000000E-03 0. -1.
        -11    1    4    4    0    0  0.27896678045E+00 -0.88046040048E+01  0.28858515217E+02  0.30173047160E+02  0.51100000000E-03 0.  1.
        -12    1    4    4    0    0 -0.53362487086E+01 -0.15124123628E+01  0.26848841033E+01  0.61621054911E+01  0.00000000000E+00 0.  1.
</event>
<event>
 8    1  0.2401501E-006  0.9118800E+02  0.7816164E-02  0.1184000E+00
        -11   -1    0    0    0    0  0.00000000000E+00  0.00000000000E+00  0.45593999997E+02  0.45594000000E+02  0.51100000000E-03 0.  1.
         11   -1    0    0    0    0 -0.00000000000E+00 -0.00000000000E+00 -0.45593999997E+02  0.45594000000E+02  0.51100000000E-03 0. -1.
         23    2    1    2    0    0  0.88817841970E-15 -0.71054273576E-14  0.88817841970E-15  0.91188000000E+02  0.91188000000E+02 0.  0.
    9900012    2    3    3    0    0 -0.74802361432E+01  0.35875396105E+02 -0.35750886710E+01  0.54367092387E+02  0.40000018714E+02 0.  0.
        -12    1    3    3    0    0  0.74802361432E+01 -0.35875396105E+02  0.35750886710E+01  0.36820907613E+02  0.00000000000E+00 0.  1.
         11    1    4    4    0    0  0.10747925417E+02  0.10617423210E+02 -0.45219233172E+01  0.15770078222E+02  0.51100000000E-03 0. -1.
        -11    1    4    4    0    0 -0.99983324699E+01  0.12674938585E+02 -0.10879779988E+02  0.19467674056E+02  0.51100000000E-03 0.  1.
        -12    1    4    4    0    0 -0.82298290899E+01  0.12583034310E+02  0.11826614634E+02  0.19129340109E+02  0.00000000000E+00 0.  1.
</event>
<event>
 8    1  0.2401501E-006  0.9118800E+02  0.7816164E-02  0.1184000E+00
        -11   -1    0    0    0    0  0.00000000000E+00  0.00000000000E+00  0.45593999997E+02  0.45594000000E+02  0.51100000000E-03 0.  1.
         11   -1    0    0    0    0 -0.00000000000E+00 -0.00000000000E+00 -0.45593999997E+02  0.45594000000E+02  0.51100000000E-03 0. -1.
         23    2    1    2    0    0 -0.88817841970E-15  0.00000000000E+00  0.00000000000E+00  0.91188000000E+02  0.91188000000E+02 0.  0.
    9900012    2    3    3    0    0 -0.72753895622E+01 -0.23339197574E+02  0.27534133682E+02  0.54367109811E+02  0.40000058437E+02 0.  0.
         12    1    3    3    0    0  0.72753895622E+01  0.23339197574E+02 -0.27534133682E+02  0.36820890189E+02  0.00000000000E+00 0. -1.
         11    1    4    4    0    0 -0.54240347345E+01  0.43165902729E+01  0.13284554125E+01  0.70581795407E+01  0.51100000000E-03 0. -1.
        -11    1    4    4    0    0 -0.14848959069E+02 -0.16399646152E+02  0.13337612371E+02  0.25832767629E+02  0.51100000000E-03 0.  1.
         12    1    4    4    0    0  0.12997604241E+02 -0.11256141695E+02  0.12868065898E+02  0.21476162642E+02  0.00000000000E+00 0. -1.
</event>
<event>
 8    1  0.2401501E-006  0.9118800E+02  0.7816164E-02  0.1184000E+00
        -11   -1    0    0    0    0  0.00000000000E+00  0.00000000000E+00  0.45593999997E+02  0.45594000000E+02  0.51100000000E-03 0.  1.
         11   -1    0    0    0    0 -0.00000000000E+00 -0.00000000000E+00 -0.45593999997E+02  0.45594000000E+02  0.51100000000E-03 0. -1.
         23    2    1    2    0    0  0.00000000000E+00  0.00000000000E+00 -0.35527136788E-14  0.91188000000E+02  0.91188000000E+02 0.  0.
    9900012    2    3    3    0    0  0.12471816659E+02 -0.21498776553E+02  0.27166820592E+02  0.54367085493E+02  0.40000002998E+02 0.  0.
         12    1    3    3    0    0 -0.12471816659E+02  0.21498776553E+02 -0.27166820592E+02  0.36820914507E+02  0.00000000000E+00 0. -1.
         11    1    4    4    0    0  0.12065965433E+02 -0.15109497455E+02  0.16917823237E+02  0.25692356422E+02  0.51100000000E-03 0. -1.
        -11    1    4    4    0    0  0.92532598880E+01 -0.12457770453E+02  0.32208866442E+01  0.15849068561E+02  0.51100000000E-03 0.  1.
         12    1    4    4    0    0 -0.88474086619E+01  0.60684913551E+01  0.70281107116E+01  0.12825660511E+02  0.00000000000E+00 0. -1.
</event>
<event>
 8    1  0.2401501E-006  0.9118800E+02  0.7816164E-02  0.1184000E+00
        -11   -1    0    0    0    0  0.00000000000E+00  0.00000000000E+00  0.45593999997E+02  0.45594000000E+02  0.51100000000E-03 0.  1.
         11   -1    0    0    0    0 -0.00000000000E+00 -0.00000000000E+00 -0.45593999997E+02  0.45594000000E+02  0.51100000000E-03 0. -1.
         23    2    1    2    0    0  0.71054273576E-14  0.00000000000E+00  0.88817841970E-15  0.91188000000E+02  0.91188000000E+02 0.  0.
    9900012    2    3    3    0    0 -0.32335335908E+02 -0.16364357043E+02  0.65125829042E+01  0.54367083854E+02  0.39999999263E+02 0.  0.
         12    1    3    3    0    0  0.32335335908E+02  0.16364357043E+02 -0.65125829042E+01  0.36820916146E+02  0.00000000000E+00 0. -1.
         11    1    4    4    0    0 -0.12165231839E+02 -0.18302467370E+02 -0.92105622811E+01  0.23828714513E+02  0.51100000000E-03 0. -1.
        -11    1    4    4    0    0 -0.17872007841E+02 -0.51906252739E+01  0.10116833938E+02  0.21182577374E+02  0.51100000000E-03 0.  1.
         12    1    4    4    0    0 -0.22980962281E+01  0.71287356012E+01  0.56063112471E+01  0.93557919678E+01  0.00000000000E+00 0. -1.
</event>
<event>
 8    1  0.2401501E-006  0.9118800E+02  0.7816164E-02  0.1184000E+00
        -11   -1    0    0    0    0  0.00000000000E+00  0.00000000000E+00  0.45593999997E+02  0.45594000000E+02  0.51100000000E-03 0. -1.
         11   -1    0    0    0    0 -0.00000000000E+00 -0.00000000000E+00 -0.45593999997E+02  0.45594000000E+02  0.51100000000E-03 0.  1.
         23    2    1    2    0    0  0.00000000000E+00  0.00000000000E+00  0.35527136788E-14  0.91188000000E+02  0.91188000000E+02 0.  0.
    9900012    2    3    3    0    0  0.26106421524E+02 -0.72371803235E+01 -0.24937042258E+02  0.54367107828E+02  0.40000053915E+02 0.  0.
         12    1    3    3    0    0 -0.26106421524E+02  0.72371803235E+01  0.24937042258E+02  0.36820892172E+02  0.00000000000E+00 0. -1.
         11    1    4    4    0    0  0.11084551480E+02  0.36676145908E+01  0.43319024317E+01  0.12453274960E+02  0.51100000000E-03 0. -1.
        -11    1    4    4    0    0  0.16357733954E+02 -0.40154710662E+01 -0.64432397307E+01  0.18033713053E+02  0.51100000000E-03 0.  1.
        -12    1    4    4    0    0 -0.13358639106E+01 -0.68893238482E+01 -0.22825704958E+02  0.23880119814E+02  0.00000000000E+00 0.  1.
</event>
<event>
 8    1  0.2401501E-006  0.9118800E+02  0.7816164E-02  0.1184000E+00
        -11   -1    0    0    0    0  0.00000000000E+00  0.00000000000E+00  0.45593999997E+02  0.45594000000E+02  0.51100000000E-03 0. -1.
         11   -1    0    0    0    0 -0.00000000000E+00 -0.00000000000E+00 -0.45593999997E+02  0.45594000000E+02  0.51100000000E-03 0.  1.
         23    2    1    2    0    0  0.00000000000E+00  0.35527136788E-14 -0.35527136788E-14  0.91188000000E+02  0.91188000000E+02 0.  0.
    9900012    2    3    3    0    0  0.16674121580E+02  0.10043642101E+02 -0.31255059656E+02  0.54367084324E+02  0.40000000334E+02 0.  0.
         12    1    3    3    0    0 -0.16674121580E+02 -0.10043642101E+02  0.31255059656E+02  0.36820915676E+02  0.00000000000E+00 0. -1.
         11    1    4    4    0    0  0.12949222323E+02 -0.59771606171E+01 -0.10550217214E+02  0.17740233689E+02  0.51100000000E-03 0. -1.
        -11    1    4    4    0    0 -0.23589526786E+00  0.14272506993E+02 -0.26076383194E+02  0.29727728860E+02  0.51100000000E-03 0.  1.
         12    1    4    4    0    0  0.39607945245E+01  0.17482957255E+01  0.53715407525E+01  0.68991217749E+01  0.00000000000E+00 0. -1.
</event>
<event>
 8    1  0.2401501E-006  0.9118800E+02  0.7816164E-02  0.1184000E+00
        -11   -1    0    0    0    0  0.00000000000E+00  0.00000000000E+00  0.45593999997E+02  0.45594000000E+02  0.51100000000E-03 0.  1.
         11   -1    0    0    0    0 -0.00000000000E+00 -0.00000000000E+00 -0.45593999997E+02  0.45594000000E+02  0.51100000000E-03 0. -1.
         23    2    1    2    0    0  0.00000000000E+00 -0.17763568394E-14  0.71054273576E-14  0.91188000000E+02  0.91188000000E+02 0.  0.
    9900012    2    3    3    0    0 -0.48739790946E+01  0.14942870360E+02 -0.33297688074E+02  0.54367067395E+02  0.39999961741E+02 0.  0.
        -12    1    3    3    0    0  0.48739790946E+01 -0.14942870360E+02  0.33297688074E+02  0.36820932605E+02  0.00000000000E+00 0.  1.
         11    1    4    4    0    0 -0.57818576662E+00  0.94283196581E+01 -0.33636272960E+02  0.34937463692E+02  0.51100000000E-03 0. -1.
        -11    1    4    4    0    0 -0.10015439310E+02 -0.17263379793E+01 -0.41406289876E+00  0.10171564075E+02  0.51100000000E-03 0.  1.
        -12    1    4    4    0    0  0.57196459821E+01  0.72408886816E+01  0.75264778510E+00  0.92580396277E+01  0.00000000000E+00 0.  1.
</event>
<event>
 8    1  0.2401501E-006  0.9118800E+02  0.7816164E-02  0.1184000E+00
        -11   -1    0    0    0    0  0.00000000000E+00  0.00000000000E+00  0.45593999997E+02  0.45594000000E+02  0.51100000000E-03 0.  1.
         11   -1    0    0    0    0 -0.00000000000E+00 -0.00000000000E+00 -0.45593999997E+02  0.45594000000E+02  0.51100000000E-03 0. -1.
         23    2    1    2    0    0  0.17763568394E-14  0.00000000000E+00  0.22204460493E-15  0.91188000000E+02  0.91188000000E+02 0.  0.
    9900012    2    3    3    0    0  0.62919490377E+01 -0.36230230261E+02  0.18872088915E+01  0.54367085225E+02  0.40000002388E+02 0.  0.
         12    1    3    3    0    0 -0.62919490377E+01  0.36230230261E+02 -0.18872088915E+01  0.36820914775E+02  0.00000000000E+00 0. -1.
         11    1    4    4    0    0  0.82072730449E+01 -0.15178315518E+02 -0.64732227721E+01  0.18429411443E+02  0.51100000000E-03 0. -1.
        -11    1    4    4    0    0  0.11952762962E+02 -0.12614208042E+02 -0.61444579118E+00  0.17388626479E+02  0.51100000000E-03 0.  1.
        -12    1    4    4    0    0 -0.13868086969E+02 -0.84377067011E+01  0.89748774548E+01  0.18549047304E+02  0.00000000000E+00 0.  1.
</event>
<event>
 8    1  0.2401501E-006  0.9118800E+02  0.7816164E-02  0.1184000E+00
        -11   -1    0    0    0    0  0.00000000000E+00  0.00000000000E+00  0.45593999997E+02  0.45594000000E+02  0.51100000000E-03 0. -1.
         11   -1    0    0    0    0 -0.00000000000E+00 -0.00000000000E+00 -0.45593999997E+02  0.45594000000E+02  0.51100000000E-03 0.  1.
         23    2    1    2    0    0  0.35527136788E-14  0.00000000000E+00 -0.17763568394E-14  0.91188000000E+02  0.91188000000E+02 0.  0.
    9900012    2    3    3    0    0  0.16802521319E+02 -0.31764153527E+02  0.80308922526E+01  0.54367062989E+02  0.39999951697E+02 0.  0.
        -12    1    3    3    0    0 -0.16802521319E+02  0.31764153527E+02 -0.80308922526E+01  0.36820937011E+02  0.00000000000E+00 0.  1.
         11    1    4    4    0    0 -0.38068814906E+01 -0.14597158879E+02  0.87461667638E+01  0.17437454727E+02  0.51100000000E-03 0. -1.
        -11    1    4    4    0    0 -0.38435463384E+01  0.32578233047E+01  0.35231180834E+00  0.50507806339E+01  0.51100000000E-03 0.  1.
        -12    1    4    4    0    0  0.24452949148E+02 -0.20424817953E+02 -0.10675863195E+01  0.31878827629E+02  0.00000000000E+00 0.  1.
</event>
<event>
 8    1  0.2401501E-006  0.9118800E+02  0.7816164E-02  0.1184000E+00
        -11   -1    0    0    0    0  0.00000000000E+00  0.00000000000E+00  0.45593999997E+02  0.45594000000E+02  0.51100000000E-03 0.  1.
         11   -1    0    0    0    0 -0.00000000000E+00 -0.00000000000E+00 -0.45593999997E+02  0.45594000000E+02  0.51100000000E-03 0. -1.
         23    2    1    2    0    0  0.00000000000E+00  0.13322676296E-14  0.00000000000E+00  0.91188000000E+02  0.91188000000E+02 0.  0.
    9900012    2    3    3    0    0  0.33037572805E+02  0.75576863774E+00  0.16239667692E+02  0.54367092762E+02  0.40000019569E+02 0.  0.
         12    1    3    3    0    0 -0.33037572805E+02 -0.75576863774E+00 -0.16239667692E+02  0.36820907238E+02  0.00000000000E+00 0. -1.
         11    1    4    4    0    0  0.12965803529E+02  0.98543727692E+01  0.10279542363E+02  0.19258497223E+02  0.51100000000E-03 0. -1.
        -11    1    4    4    0    0  0.65806504243E+01  0.25248923287E+01  0.13920032628E+02  0.15602799425E+02  0.51100000000E-03 0.  1.
         12    1    4    4    0    0  0.13491118852E+02 -0.11623496460E+02 -0.79599072988E+01  0.19505796114E+02  0.00000000000E+00 0. -1.
</event>
<event>
 8    1  0.2401501E-006  0.9118800E+02  0.7816164E-02  0.1184000E+00
        -11   -1    0    0    0    0  0.00000000000E+00  0.00000000000E+00  0.45593999997E+02  0.45594000000E+02  0.51100000000E-03 0.  1.
         11   -1    0    0    0    0 -0.00000000000E+00 -0.00000000000E+00 -0.45593999997E+02  0.45594000000E+02  0.51100000000E-03 0. -1.
         23    2    1    2    0    0  0.13322676296E-14  0.00000000000E+00  0.35527136788E-14  0.91188000000E+02  0.91188000000E+02 0.  0.
    9900012    2    3    3    0    0 -0.34373629858E+01 -0.18670507670E+02 -0.31549614115E+02  0.54367062047E+02  0.39999949547E+02 0.  0.
        -12    1    3    3    0    0  0.34373629858E+01  0.18670507670E+02  0.31549614115E+02  0.36820937953E+02  0.00000000000E+00 0.  1.
         11    1    4    4    0    0 -0.84225379413E+01 -0.16894216746E+02 -0.73374451569E+01  0.20253192502E+02  0.51100000000E-03 0. -1.
        -11    1    4    4    0    0 -0.77199962950E+01  0.45626916112E+01 -0.13993447591E+02  0.16620260927E+02  0.51100000000E-03 0.  1.
        -12    1    4    4    0    0  0.12705171250E+02 -0.63389825352E+01 -0.10218721367E+02  0.17493608618E+02  0.00000000000E+00 0.  1.
</event>
<event>
 8    1  0.2401501E-006  0.9118800E+02  0.7816164E-02  0.1184000E+00
        -11   -1    0    0    0    0  0.00000000000E+00  0.00000000000E+00  0.45593999997E+02  0.45594000000E+02  0.51100000000E-03 0.  1.
         11   -1    0    0    0    0 -0.00000000000E+00 -0.00000000000E+00 -0.45593999997E+02  0.45594000000E+02  0.51100000000E-03 0. -1.
         23    2    1    2    0    0  0.00000000000E+00  0.35527136788E-14 -0.71054273576E-14  0.91188000000E+02  0.91188000000E+02 0.  0.
    9900012    2    3    3    0    0  0.50807890704E+01  0.14955748146E+02 -0.33260962336E+02  0.54367076115E+02  0.39999981620E+02 0.  0.
        -12    1    3    3    0    0 -0.50807890704E+01 -0.14955748146E+02  0.33260962336E+02  0.36820923885E+02  0.00000000000E+00 0.  1.
         11    1    4    4    0    0 -0.45872391941E+01 -0.40567853218E+01  0.82326612565E+00  0.61788379122E+01  0.51100000000E-03 0. -1.
        -11    1    4    4    0    0 -0.20931627308E+01 -0.60367308244E+01 -0.61922629080E+01  0.88976159417E+01  0.51100000000E-03 0.  1.
         12    1    4    4    0    0  0.11761190995E+02  0.25049264293E+02 -0.27891965554E+02  0.39290622261E+02  0.00000000000E+00 0. -1.
</event>
<event>
 8    1  0.3205346E-006  0.9118800E+02  0.7816164E-02  0.1184000E+00
        -11   -1    0    0    0    0  0.00000000000E+00  0.00000000000E+00  0.45593999997E+02  0.45594000000E+02  0.51100000000E-03 0.  1.
         11   -1    0    0    0    0 -0.00000000000E+00 -0.00000000000E+00 -0.45593999997E+02  0.45594000000E+02  0.51100000000E-03 0. -1.
         23    2    1    2    0    0  0.00000000000E+00  0.17763568394E-14  0.00000000000E+00  0.91188000000E+02  0.91188000000E+02 0.  0.
    9900012    2    3    3    0    0  0.20233352450E+02  0.13197446329E+02  0.27788828698E+02  0.54367080113E+02  0.39999990733E+02 0.  0.
         12    1    3    3    0    0 -0.20233352450E+02 -0.13197446329E+02 -0.27788828698E+02  0.36820919887E+02  0.00000000000E+00 0. -1.
         11    1    4    4    0    0  0.52490676107E+00  0.17929070229E+01 -0.43492107253E+01  0.47334635200E+01  0.51100000000E-03 0. -1.
        -11    1    4    4    0    0 -0.68726509742E+01 -0.29954456809E+01  0.50248388856E+01  0.90252441700E+01  0.51100000000E-03 0.  1.
        -12    1    4    4    0    0  0.26581096663E+02  0.14399984987E+02  0.27113200537E+02  0.40608372423E+02  0.00000000000E+00 0.  1.
</event>
<event>
 8    1  0.2401501E-006  0.9118800E+02  0.7816164E-02  0.1184000E+00
        -11   -1    0    0    0    0  0.00000000000E+00  0.00000000000E+00  0.45593999997E+02  0.45594000000E+02  0.51100000000E-03 0. -1.
         11   -1    0    0    0    0 -0.00000000000E+00 -0.00000000000E+00 -0.45593999997E+02  0.45594000000E+02  0.51100000000E-03 0.  1.
         23    2    1    2    0    0 -0.88817841970E-15  0.00000000000E+00 -0.71054273576E-14  0.91188000000E+02  0.91188000000E+02 0.  0.
    9900012    2    3    3    0    0  0.43610577223E+01 -0.80543770297E+01 -0.35663540303E+02  0.54367083108E+02  0.39999997562E+02 0.  0.
         12    1    3    3    0    0 -0.43610577223E+01  0.80543770297E+01  0.35663540303E+02  0.36820916892E+02  0.00000000000E+00 0. -1.
         11    1    4    4    0    0  0.56627491698E+01  0.85636463409E+01 -0.23186415207E+00  0.10269202893E+02  0.51100000000E-03 0. -1.
        -11    1    4    4    0    0 -0.10042624783E+02 -0.12762342901E+02 -0.18176511554E+02  0.24374521152E+02  0.51100000000E-03 0.  1.
        -12    1    4    4    0    0  0.87409333357E+01 -0.38556804699E+01 -0.17255164597E+02  0.19723359063E+02  0.00000000000E+00 0.  1.
</event>
<event>
 8    1  0.2401501E-006  0.9118800E+02  0.7816164E-02  0.1184000E+00
        -11   -1    0    0    0    0  0.00000000000E+00  0.00000000000E+00  0.45593999997E+02  0.45594000000E+02  0.51100000000E-03 0. -1.
         11   -1    0    0    0    0 -0.00000000000E+00 -0.00000000000E+00 -0.45593999997E+02  0.45594000000E+02  0.51100000000E-03 0.  1.
         23    2    1    2    0    0 -0.17763568394E-14 -0.26645352591E-14  0.00000000000E+00  0.91188000000E+02  0.91188000000E+02 0.  0.
    9900012    2    3    3    0    0 -0.13497426578E+02 -0.78344233484E+01  0.33349974249E+02  0.54367088878E+02  0.40000010716E+02 0.  0.
        -12    1    3    3    0    0  0.13497426578E+02  0.78344233484E+01 -0.33349974249E+02  0.36820911122E+02  0.00000000000E+00 0.  1.
         11    1    4    4    0    0  0.17376970907E+01  0.14183838370E+01  0.75126784596E+01  0.78403916858E+01  0.51100000000E-03 0. -1.
        -11    1    4    4    0    0 -0.18138667549E+02  0.79349984847E+01  0.73532763661E+01  0.21119804331E+02  0.51100000000E-03 0.  1.
         12    1    4    4    0    0  0.29035438807E+01 -0.17187805670E+02  0.18484019423E+02  0.25406892861E+02  0.00000000000E+00 0. -1.
</event>
<event>
 8    1  0.2401501E-006  0.9118800E+02  0.7816164E-02  0.1184000E+00
        -11   -1    0    0    0    0  0.00000000000E+00  0.00000000000E+00  0.45593999997E+02  0.45594000000E+02  0.51100000000E-03 0.  1.
         11   -1    0    0    0    0 -0.00000000000E+00 -0.00000000000E+00 -0.45593999997E+02  0.45594000000E+02  0.51100000000E-03 0. -1.
         23    2    1    2    0    0  0.00000000000E+00  0.00000000000E+00  0.00000000000E+00  0.91188000000E+02  0.91188000000E+02 0.  0.
    9900012    2    3    3    0    0  0.15955970005E+02 -0.42287003660E+01  0.32913592131E+02  0.54367089738E+02  0.40000012676E+02 0.  0.
         12    1    3    3    0    0 -0.15955970005E+02  0.42287003660E+01 -0.32913592131E+02  0.36820910262E+02  0.00000000000E+00 0. -1.
         11    1    4    4    0    0  0.16648179123E+02 -0.10673171374E+02  0.19016684583E+02  0.27435610948E+02  0.51100000000E-03 0. -1.
        -11    1    4    4    0    0 -0.10000709810E+01  0.23154974544E+01  0.19667826185E+02  0.19828894511E+02  0.51100000000E-03 0.  1.
         12    1    4    4    0    0  0.30786186299E+00  0.41289735539E+01 -0.57709186368E+01  0.71025842796E+01  0.00000000000E+00 0. -1.
</event>
<event>
 8    1  0.2401501E-006  0.9118800E+02  0.7816164E-02  0.1184000E+00
        -11   -1    0    0    0    0  0.00000000000E+00  0.00000000000E+00  0.45593999997E+02  0.45594000000E+02  0.51100000000E-03 0.  1.
         11   -1    0    0    0    0 -0.00000000000E+00 -0.00000000000E+00 -0.45593999997E+02  0.45594000000E+02  0.51100000000E-03 0. -1.
         23    2    1    2    0    0  0.00000000000E+00  0.00000000000E+00 -0.35527136788E-14  0.91188000000E+02  0.91188000000E+02 0.  0.
    9900012    2    3    3    0    0  0.20359028631E+02 -0.80755123208E+01  0.29598590392E+02  0.54367075253E+02  0.39999979654E+02 0.  0.
         12    1    3    3    0    0 -0.20359028631E+02  0.80755123208E+01 -0.29598590392E+02  0.36820924747E+02  0.00000000000E+00 0. -1.
         11    1    4    4    0    0  0.99947054777E+01  0.88710772821E+01  0.48841079126E+01  0.14228304892E+02  0.51100000000E-03 0. -1.
        -11    1    4    4    0    0  0.10148009396E+02 -0.23008089843E+02  0.17127854607E+02  0.30425609224E+02  0.51100000000E-03 0.  1.
        -12    1    4    4    0    0  0.21631375715E+00  0.60615002405E+01  0.75866278723E+01  0.97131611373E+01  0.00000000000E+00 0.  1.
</event>
<event>
 8    1  0.2401501E-006  0.9118800E+02  0.7816164E-02  0.1184000E+00
        -11   -1    0    0    0    0  0.00000000000E+00  0.00000000000E+00  0.45593999997E+02  0.45594000000E+02  0.51100000000E-03 0. -1.
         11   -1    0    0    0    0 -0.00000000000E+00 -0.00000000000E+00 -0.45593999997E+02  0.45594000000E+02  0.51100000000E-03 0.  1.
         23    2    1    2    0    0  0.88817841970E-15  0.71054273576E-14  0.00000000000E+00  0.91188000000E+02  0.91188000000E+02 0.  0.
    9900012    2    3    3    0    0 -0.55723697117E+01 -0.35293591273E+02  0.88933353907E+01  0.54367077911E+02  0.39999985713E+02 0.  0.
        -12    1    3    3    0    0  0.55723697117E+01  0.35293591273E+02 -0.88933353907E+01  0.36820922089E+02  0.00000000000E+00 0.  1.
         11    1    4    4    0    0  0.37801487388E+01 -0.16083290490E+02  0.90899621120E+01  0.18857072120E+02  0.51100000000E-03 0. -1.
        -11    1    4    4    0    0 -0.87194561008E+01 -0.10221502830E+02  0.13544507371E+02  0.19077780662E+02  0.51100000000E-03 0.  1.
        -12    1    4    4    0    0 -0.63306234964E+00 -0.89887979528E+01 -0.13741134092E+02  0.16432225130E+02  0.00000000000E+00 0.  1.
</event>
<event>
 8    1  0.2401501E-006  0.9118800E+02  0.7816164E-02  0.1184000E+00
        -11   -1    0    0    0    0  0.00000000000E+00  0.00000000000E+00  0.45593999997E+02  0.45594000000E+02  0.51100000000E-03 0.  1.
         11   -1    0    0    0    0 -0.00000000000E+00 -0.00000000000E+00 -0.45593999997E+02  0.45594000000E+02  0.51100000000E-03 0. -1.
         23    2    1    2    0    0 -0.35527136788E-14  0.71054273576E-14 -0.88817841970E-15  0.91188000000E+02  0.91188000000E+02 0.  0.
    9900012    2    3    3    0    0  0.25039138082E+02  0.26619097699E+02  0.44994947702E+01  0.54367078619E+02  0.39999987328E+02 0.  0.
         12    1    3    3    0    0 -0.25039138082E+02 -0.26619097699E+02 -0.44994947702E+01  0.36820921381E+02  0.00000000000E+00 0. -1.
         11    1    4    4    0    0  0.16706592193E+01 -0.50533968973E+01  0.55153628629E+01  0.76646689556E+01  0.51100000000E-03 0. -1.
        -11    1    4    4    0    0  0.11038117027E+02 -0.35722955101E+00 -0.50523676976E+01  0.12144713256E+02  0.51100000000E-03 0.  1.
        -12    1    4    4    0    0  0.12330361835E+02  0.32029724147E+02  0.40364996050E+01  0.34557696407E+02  0.00000000000E+00 0.  1.
</event>
<event>
 8    1  0.2401501E-006  0.9118800E+02  0.7816164E-02  0.1184000E+00
        -11   -1    0    0    0    0  0.00000000000E+00  0.00000000000E+00  0.45593999997E+02  0.45594000000E+02  0.51100000000E-03 0. -1.
         11   -1    0    0    0    0 -0.00000000000E+00 -0.00000000000E+00 -0.45593999997E+02  0.45594000000E+02  0.51100000000E-03 0.  1.
         23    2    1    2    0    0 -0.11102230246E-15  0.00000000000E+00  0.00000000000E+00  0.91188000000E+02  0.91188000000E+02 0.  0.
    9900012    2    3    3    0    0 -0.99043236577E+00  0.28291962421E+02 -0.23544935038E+02  0.54367081220E+02  0.39999993257E+02 0.  0.
        -12    1    3    3    0    0  0.99043236577E+00 -0.28291962421E+02  0.23544935038E+02  0.36820918780E+02  0.00000000000E+00 0.  1.
         11    1    4    4    0    0 -0.43494096108E+01  0.14593046854E+02  0.39074479941E+01  0.15720767492E+02  0.51100000000E-03 0. -1.
        -11    1    4    4    0    0 -0.27353636579E+01  0.13723366703E+02 -0.29137304005E+02  0.32323296443E+02  0.51100000000E-03 0.  1.
        -12    1    4    4    0    0  0.60943409030E+01 -0.24451135646E-01  0.16849209733E+01  0.63230172850E+01  0.00000000000E+00 0.  1.
</event>
<event>
 8    1  0.2401501E-006  0.9118800E+02  0.7816164E-02  0.1184000E+00
        -11   -1    0    0    0    0  0.00000000000E+00  0.00000000000E+00  0.45593999997E+02  0.45594000000E+02  0.51100000000E-03 0.  1.
         11   -1    0    0    0    0 -0.00000000000E+00 -0.00000000000E+00 -0.45593999997E+02  0.45594000000E+02  0.51100000000E-03 0. -1.
         23    2    1    2    0    0  0.00000000000E+00  0.00000000000E+00 -0.44408920985E-15  0.91188000000E+02  0.91188000000E+02 0.  0.
    9900012    2    3    3    0    0  0.33414728926E+02 -0.15060912725E+02  0.35219916426E+01  0.54367087104E+02  0.40000006671E+02 0.  0.
        -12    1    3    3    0    0 -0.33414728926E+02  0.15060912725E+02 -0.35219916426E+01  0.36820912896E+02  0.00000000000E+00 0.  1.
         11    1    4    4    0    0  0.32947120312E+00  0.26206688510E+01 -0.23853687136E+01  0.35589943329E+01  0.51100000000E-03 0. -1.
        -11    1    4    4    0    0 -0.13038197638E+01  0.71985926858E+01  0.39578642503E+01  0.83177143686E+01  0.51100000000E-03 0.  1.
         12    1    4    4    0    0  0.34389077487E+02 -0.24880174262E+02  0.19494961059E+01  0.42490378403E+02  0.00000000000E+00 0. -1.
</event>
<event>
 8    1  0.2401501E-006  0.9118800E+02  0.7816164E-02  0.1184000E+00
        -11   -1    0    0    0    0  0.00000000000E+00  0.00000000000E+00  0.45593999997E+02  0.45594000000E+02  0.51100000000E-03 0. -1.
         11   -1    0    0    0    0 -0.00000000000E+00 -0.00000000000E+00 -0.45593999997E+02  0.45594000000E+02  0.51100000000E-03 0.  1.
         23    2    1    2    0    0 -0.27755575616E-15  0.00000000000E+00  0.00000000000E+00  0.91188000000E+02  0.91188000000E+02 0.  0.
    9900012    2    3    3    0    0 -0.36101110539E+00  0.31219711459E+02  0.19518681359E+02  0.54367086994E+02  0.40000006421E+02 0.  0.
        -12    1    3    3    0    0  0.36101110539E+00 -0.31219711459E+02 -0.19518681359E+02  0.36820913006E+02  0.00000000000E+00 0.  1.
         11    1    4    4    0    0 -0.88659608976E+01  0.59273756989E+01  0.18346151274E+02  0.21220751922E+02  0.51100000000E-03 0.  1.
        -11    1    4    4    0    0  0.71209594113E+01  0.27307675532E+02  0.49451083807E+01  0.28650851698E+02  0.51100000000E-03 0. -1.
        -12    1    4    4    0    0  0.13839903810E+01 -0.20153397717E+01 -0.37725782954E+01  0.44954833739E+01  0.00000000000E+00 0.  1.
</event>
<event>
 8    1  0.2401501E-006  0.9118800E+02  0.7816164E-02  0.1184000E+00
        -11   -1    0    0    0    0  0.00000000000E+00  0.00000000000E+00  0.45593999997E+02  0.45594000000E+02  0.51100000000E-03 0. -1.
         11   -1    0    0    0    0 -0.00000000000E+00 -0.00000000000E+00 -0.45593999997E+02  0.45594000000E+02  0.51100000000E-03 0.  1.
         23    2    1    2    0    0 -0.35527136788E-14  0.71054273576E-14 -0.17763568394E-14  0.91188000000E+02  0.91188000000E+02 0.  0.
    9900012    2    3    3    0    0  0.27969206182E+02 -0.20642141412E+02  0.12140931371E+02  0.54367126693E+02  0.40000096922E+02 0.  0.
        -12    1    3    3    0    0 -0.27969206182E+02  0.20642141412E+02 -0.12140931371E+02  0.36820873307E+02  0.00000000000E+00 0.  1.
         11    1    4    4    0    0  0.24850217491E+02  0.14783024306E+00  0.84653779716E+01  0.26252957693E+02  0.51100000000E-03 0. -1.
        -11    1    4    4    0    0  0.94678437356E+01 -0.16586080740E+02 -0.10936489593E+01  0.19129406881E+02  0.51100000000E-03 0.  1.
         12    1    4    4    0    0 -0.63488550447E+01 -0.42038909145E+01  0.47692023583E+01  0.89847621189E+01  0.00000000000E+00 0. -1.
</event>
<event>
 8    1  0.2401501E-006  0.9118800E+02  0.7816164E-02  0.1184000E+00
        -11   -1    0    0    0    0  0.00000000000E+00  0.00000000000E+00  0.45593999997E+02  0.45594000000E+02  0.51100000000E-03 0. -1.
         11   -1    0    0    0    0 -0.00000000000E+00 -0.00000000000E+00 -0.45593999997E+02  0.45594000000E+02  0.51100000000E-03 0.  1.
         23    2    1    2    0    0 -0.35527136788E-14  0.35527136788E-14  0.00000000000E+00  0.91188000000E+02  0.91188000000E+02 0.  0.
    9900012    2    3    3    0    0 -0.30776088015E+02  0.19887233258E+02 -0.36208223603E+01  0.54367082103E+02  0.39999995270E+02 0.  0.
         12    1    3    3    0    0  0.30776088015E+02 -0.19887233258E+02  0.36208223603E+01  0.36820917897E+02  0.00000000000E+00 0. -1.
         11    1    4    4    0    0  0.39997760699E+01  0.50151397037E+01  0.29538170180E+01  0.70622142486E+01  0.51100000000E-03 0. -1.
        -11    1    4    4    0    0 -0.12212899731E+02  0.17126657141E+02 -0.11682232869E+02  0.24061418698E+02  0.51100000000E-03 0.  1.
         12    1    4    4    0    0 -0.22562964355E+02 -0.22545635866E+01  0.51075934911E+01  0.23243449157E+02  0.00000000000E+00 0. -1.
</event>
<event>
 8    1  0.2401501E-006  0.9118800E+02  0.7816164E-02  0.1184000E+00
        -11   -1    0    0    0    0  0.00000000000E+00  0.00000000000E+00  0.45593999997E+02  0.45594000000E+02  0.51100000000E-03 0. -1.
         11   -1    0    0    0    0 -0.00000000000E+00 -0.00000000000E+00 -0.45593999997E+02  0.45594000000E+02  0.51100000000E-03 0.  1.
         23    2    1    2    0    0  0.00000000000E+00  0.00000000000E+00  0.00000000000E+00  0.91188000000E+02  0.91188000000E+02 0.  0.
    9900012    2    3    3    0    0  0.35972490564E+02 -0.66414188134E+01  0.42015768871E+01  0.54367058002E+02  0.39999940328E+02 0.  0.
         12    1    3    3    0    0 -0.35972490564E+02  0.66414188134E+01 -0.42015768871E+01  0.36820941998E+02  0.00000000000E+00 0. -1.
         11    1    4    4    0    0  0.10511750898E+02  0.16452516924E+02  0.39586942650E+01  0.19921181708E+02  0.51100000000E-03 0. -1.
        -11    1    4    4    0    0  0.13542131088E+02 -0.13759296059E+02  0.53270875143E-01  0.19305708495E+02  0.51100000000E-03 0.  1.
         12    1    4    4    0    0  0.11918608579E+02 -0.93346396787E+01  0.18961174691E+00  0.15140167800E+02  0.00000000000E+00 0. -1.
</event>
<event>
 8    1  0.2401501E-006  0.9118800E+02  0.7816164E-02  0.1184000E+00
        -11   -1    0    0    0    0  0.00000000000E+00  0.00000000000E+00  0.45593999997E+02  0.45594000000E+02  0.51100000000E-03 0.  1.
         11   -1    0    0    0    0 -0.00000000000E+00 -0.00000000000E+00 -0.45593999997E+02  0.45594000000E+02  0.51100000000E-03 0. -1.
         23    2    1    2    0    0  0.00000000000E+00  0.00000000000E+00  0.35527136788E-14  0.91188000000E+02  0.91188000000E+02 0.  0.
    9900012    2    3    3    0    0  0.21417850960E+02  0.17422758061E+02  0.24361924300E+02  0.54367079400E+02  0.39999989109E+02 0.  0.
         12    1    3    3    0    0 -0.21417850960E+02 -0.17422758061E+02 -0.24361924300E+02  0.36820920600E+02  0.00000000000E+00 0. -1.
         11    1    4    4    0    0  0.11374630940E+02 -0.11303537509E+01 -0.59146431252E+01  0.12870234348E+02  0.51100000000E-03 0. -1.
        -11    1    4    4    0    0  0.34522527745E+01  0.23120228410E+01  0.21494302708E+02  0.21892202904E+02  0.51100000000E-03 0.  1.
         12    1    4    4    0    0  0.65909672462E+01  0.16241088971E+02  0.87822647171E+01  0.19604642148E+02  0.00000000000E+00 0. -1.
</event>
<event>
 8    1  0.2401501E-006  0.9118800E+02  0.7816164E-02  0.1184000E+00
        -11   -1    0    0    0    0  0.00000000000E+00  0.00000000000E+00  0.45593999997E+02  0.45594000000E+02  0.51100000000E-03 0.  1.
         11   -1    0    0    0    0 -0.00000000000E+00 -0.00000000000E+00 -0.45593999997E+02  0.45594000000E+02  0.51100000000E-03 0. -1.
         23    2    1    2    0    0  0.88817841970E-15  0.44408920985E-15  0.00000000000E+00  0.91188000000E+02  0.91188000000E+02 0.  0.
    9900012    2    3    3    0    0 -0.75612615971E+01  0.11540668883E+01  0.36017709000E+02  0.54367083269E+02  0.39999997928E+02 0.  0.
         12    1    3    3    0    0  0.75612615971E+01 -0.11540668883E+01 -0.36017709000E+02  0.36820916731E+02  0.00000000000E+00 0. -1.
         11    1    4    4    0    0 -0.43159972191E+01 -0.12386275084E+02  0.15683478223E+02  0.20445516180E+02  0.51100000000E-03 0. -1.
        -11    1    4    4    0    0  0.19819465074E+01  0.97094764760E+01  0.24355711569E+02  0.26294538058E+02  0.51100000000E-03 0.  1.
         12    1    4    4    0    0 -0.52272108854E+01  0.38308654960E+01 -0.40214807911E+01  0.76270290311E+01  0.00000000000E+00 0. -1.
</event>
<event>
 8    1  0.2401501E-006  0.9118800E+02  0.7816164E-02  0.1184000E+00
        -11   -1    0    0    0    0  0.00000000000E+00  0.00000000000E+00  0.45593999997E+02  0.45594000000E+02  0.51100000000E-03 0. -1.
         11   -1    0    0    0    0 -0.00000000000E+00 -0.00000000000E+00 -0.45593999997E+02  0.45594000000E+02  0.51100000000E-03 0.  1.
         23    2    1    2    0    0  0.00000000000E+00  0.35527136788E-14  0.00000000000E+00  0.91188000000E+02  0.91188000000E+02 0.  0.
    9900012    2    3    3    0    0  0.22103028491E+02 -0.23388724791E+02 -0.17894488404E+02  0.54366959398E+02  0.39999715538E+02 0.  0.
         12    1    3    3    0    0 -0.22103028491E+02  0.23388724791E+02  0.17894488404E+02  0.36821040602E+02  0.00000000000E+00 0. -1.
         11    1    4    4    0    0 -0.46212544533E+01  0.48737037700E+01 -0.11665298188E+02  0.13460615262E+02  0.51100000000E-03 0. -1.
        -11    1    4    4    0    0  0.21426208444E+02 -0.20701232653E+02 -0.92436915690E+01  0.31194058340E+02  0.51100000000E-03 0.  1.
         12    1    4    4    0    0  0.52980744999E+01 -0.75611959080E+01  0.30145013529E+01  0.97122857955E+01  0.00000000000E+00 0. -1.
</event>
<event>
 8    1  0.2401501E-006  0.9118800E+02  0.7816164E-02  0.1184000E+00
        -11   -1    0    0    0    0  0.00000000000E+00  0.00000000000E+00  0.45593999997E+02  0.45594000000E+02  0.51100000000E-03 0.  1.
         11   -1    0    0    0    0 -0.00000000000E+00 -0.00000000000E+00 -0.45593999997E+02  0.45594000000E+02  0.51100000000E-03 0. -1.
         23    2    1    2    0    0  0.00000000000E+00  0.88817841970E-15  0.35527136788E-14  0.91188000000E+02  0.91188000000E+02 0.  0.
    9900012    2    3    3    0    0  0.24009987251E+02  0.42542951527E+01 -0.27589867634E+02  0.54367091387E+02  0.40000016435E+02 0.  0.
        -12    1    3    3    0    0 -0.24009987251E+02 -0.42542951527E+01  0.27589867634E+02  0.36820908613E+02  0.00000000000E+00 0.  1.
         11    1    4    4    0    0  0.67746384796E+01  0.36848878067E+01  0.36912963506E+01  0.85498417346E+01  0.51100000000E-03 0. -1.
        -11    1    4    4    0    0  0.14375338198E+02 -0.31350238336E+01 -0.36170865821E+02  0.39048818897E+02  0.51100000000E-03 0.  1.
        -12    1    4    4    0    0  0.28600105732E+01  0.37044311796E+01  0.48897018365E+01  0.67684307555E+01  0.00000000000E+00 0.  1.
</event>
<event>
 8    1  0.2401501E-006  0.9118800E+02  0.7816164E-02  0.1184000E+00
        -11   -1    0    0    0    0  0.00000000000E+00  0.00000000000E+00  0.45593999997E+02  0.45594000000E+02  0.51100000000E-03 0.  1.
         11   -1    0    0    0    0 -0.00000000000E+00 -0.00000000000E+00 -0.45593999997E+02  0.45594000000E+02  0.51100000000E-03 0. -1.
         23    2    1    2    0    0 -0.35527136788E-14 -0.17763568394E-14  0.00000000000E+00  0.91188000000E+02  0.91188000000E+02 0.  0.
    9900012    2    3    3    0    0 -0.20791171071E+02 -0.13035754415E+02  0.27451340452E+02  0.54367085015E+02  0.40000001910E+02 0.  0.
         12    1    3    3    0    0  0.20791171071E+02  0.13035754415E+02 -0.27451340452E+02  0.36820914985E+02  0.00000000000E+00 0. -1.
         11    1    4    4    0    0 -0.96990977927E+01 -0.13899370260E+02  0.14418762652E+02  0.22252319166E+02  0.51100000000E-03 0. -1.
        -11    1    4    4    0    0 -0.12793373478E+02 -0.95032906569E+01  0.14451924842E+02  0.21513741426E+02  0.51100000000E-03 0.  1.
         12    1    4    4    0    0  0.17013001993E+01  0.10366906502E+02 -0.14193470416E+01  0.10601024423E+02  0.00000000000E+00 0. -1.
</event>
<event>
 8    1  0.2401501E-006  0.9118800E+02  0.7816164E-02  0.1184000E+00
        -11   -1    0    0    0    0  0.00000000000E+00  0.00000000000E+00  0.45593999997E+02  0.45594000000E+02  0.51100000000E-03 0.  1.
         11   -1    0    0    0    0 -0.00000000000E+00 -0.00000000000E+00 -0.45593999997E+02  0.45594000000E+02  0.51100000000E-03 0. -1.
         23    2    1    2    0    0 -0.22204460493E-15  0.00000000000E+00  0.00000000000E+00  0.91188000000E+02  0.91188000000E+02 0.  0.
    9900012    2    3    3    0    0 -0.11511200321E+01 -0.27997021428E+01  0.36696406407E+02  0.54366950957E+02  0.39999696296E+02 0.  0.
         12    1    3    3    0    0  0.11511200321E+01  0.27997021428E+01 -0.36696406407E+02  0.36821049043E+02  0.00000000000E+00 0. -1.
         11    1    4    4    0    0 -0.69241450906E+01 -0.10568230323E+02  0.97461662735E+01  0.15956786478E+02  0.51100000000E-03 0. -1.
        -11    1    4    4    0    0  0.39218379328E+01 -0.64459616325E+01  0.21979040138E+02  0.23238103189E+02  0.51100000000E-03 0.  1.
         12    1    4    4    0    0  0.18511871257E+01  0.14214489813E+02  0.49711999953E+01  0.15172061291E+02  0.00000000000E+00 0. -1.
</event>
<event>
 8    1  0.2401501E-006  0.9118800E+02  0.7816164E-02  0.1184000E+00
        -11   -1    0    0    0    0  0.00000000000E+00  0.00000000000E+00  0.45593999997E+02  0.45594000000E+02  0.51100000000E-03 0.  1.
         11   -1    0    0    0    0 -0.00000000000E+00 -0.00000000000E+00 -0.45593999997E+02  0.45594000000E+02  0.51100000000E-03 0. -1.
         23    2    1    2    0    0  0.00000000000E+00 -0.22204460493E-15 -0.71054273576E-14  0.91188000000E+02  0.91188000000E+02 0.  0.
    9900012    2    3    3    0    0  0.97407111409E+01 -0.36678332018E+00 -0.35507232909E+02  0.54367087838E+02  0.40000008345E+02 0.  0.
        -12    1    3    3    0    0 -0.97407111409E+01  0.36678332018E+00  0.35507232909E+02  0.36820912162E+02  0.00000000000E+00 0.  1.
         11    1    4    4    0    0  0.12537470424E+02 -0.35717356238E+01 -0.40880962467E+02  0.42909189604E+02  0.51100000000E-03 0. -1.
        -11    1    4    4    0    0 -0.43149944840E+00  0.15604873934E+01 -0.25534682150E+01  0.30234934868E+01  0.51100000000E-03 0.  1.
        -12    1    4    4    0    0 -0.23652598344E+01  0.16444649103E+01  0.79271977723E+01  0.84344047476E+01  0.00000000000E+00 0.  1.
</event>
<event>
 8    1  0.2401501E-006  0.9118800E+02  0.7816164E-02  0.1184000E+00
        -11   -1    0    0    0    0  0.00000000000E+00  0.00000000000E+00  0.45593999997E+02  0.45594000000E+02  0.51100000000E-03 0. -1.
         11   -1    0    0    0    0 -0.00000000000E+00 -0.00000000000E+00 -0.45593999997E+02  0.45594000000E+02  0.51100000000E-03 0.  1.
         23    2    1    2    0    0 -0.71054273576E-14  0.17763568394E-14  0.00000000000E+00  0.91188000000E+02  0.91188000000E+02 0.  0.
    9900012    2    3    3    0    0 -0.33839261995E+02 -0.48023350924E+01  0.13697483300E+02  0.54367093935E+02  0.40000022243E+02 0.  0.
        -12    1    3    3    0    0  0.33839261995E+02  0.48023350924E+01 -0.13697483300E+02  0.36820906065E+02  0.00000000000E+00 0.  1.
         11    1    4    4    0    0 -0.11816190445E+02 -0.17291578680E+02  0.70912316954E+01  0.22111232826E+02  0.51100000000E-03 0. -1.
        -11    1    4    4    0    0 -0.13317440164E+02 -0.21068672061E+01 -0.12340630527E+01  0.13539424427E+02  0.51100000000E-03 0.  1.
         12    1    4    4    0    0 -0.87056313867E+01  0.14596110794E+02  0.78403146570E+01  0.18716436682E+02  0.00000000000E+00 0. -1.
</event>
<event>
 8    1  0.2401501E-006  0.9118800E+02  0.7816164E-02  0.1184000E+00
        -11   -1    0    0    0    0  0.00000000000E+00  0.00000000000E+00  0.45593999997E+02  0.45594000000E+02  0.51100000000E-03 0.  1.
         11   -1    0    0    0    0 -0.00000000000E+00 -0.00000000000E+00 -0.45593999997E+02  0.45594000000E+02  0.51100000000E-03 0. -1.
         23    2    1    2    0    0  0.44408920985E-15  0.44408920985E-15  0.71054273576E-14  0.91188000000E+02  0.91188000000E+02 0.  0.
    9900012    2    3    3    0    0 -0.27623598508E+01 -0.38283780483E+01 -0.36516989109E+02  0.54367114568E+02  0.40000069280E+02 0.  0.
        -12    1    3    3    0    0  0.27623598508E+01  0.38283780483E+01  0.36516989109E+02  0.36820885432E+02  0.00000000000E+00 0.  1.
         11    1    4    4    0    0 -0.77756964512E+01 -0.33700196400E+01 -0.10522267361E+02  0.13510610584E+02  0.51100000000E-03 0. -1.
        -11    1    4    4    0    0 -0.86962403954E+01  0.84920872639E+01 -0.20033352208E+02  0.23432356776E+02  0.51100000000E-03 0.  1.
         12    1    4    4    0    0  0.13709576996E+02 -0.89504456721E+01 -0.59613695402E+01  0.17424147208E+02  0.00000000000E+00 0. -1.
</event>
<event>
 8    1  0.2401501E-006  0.9118800E+02  0.7816164E-02  0.1184000E+00
        -11   -1    0    0    0    0  0.00000000000E+00  0.00000000000E+00  0.45593999997E+02  0.45594000000E+02  0.51100000000E-03 0.  1.
         11   -1    0    0    0    0 -0.00000000000E+00 -0.00000000000E+00 -0.45593999997E+02  0.45594000000E+02  0.51100000000E-03 0. -1.
         23    2    1    2    0    0  0.00000000000E+00  0.00000000000E+00  0.00000000000E+00  0.91188000000E+02  0.91188000000E+02 0.  0.
    9900012    2    3    3    0    0 -0.32971510602E+02 -0.31159503383E+01  0.16091955046E+02  0.54367072865E+02  0.39999974211E+02 0.  0.
         12    1    3    3    0    0  0.32971510602E+02  0.31159503383E+01 -0.16091955046E+02  0.36820927135E+02  0.00000000000E+00 0. -1.
         11    1    4    4    0    0 -0.11743444185E+01 -0.13925711486E+02  0.97196205862E+01  0.17022795005E+02  0.51100000000E-03 0. -1.
        -11    1    4    4    0    0 -0.21158067641E+02  0.10559894787E+02  0.10573294530E+02  0.25903084020E+02  0.51100000000E-03 0.  1.
         12    1    4    4    0    0 -0.10639098541E+02  0.24986636029E+00 -0.42009600705E+01  0.11441193840E+02  0.00000000000E+00 0. -1.
</event>
<event>
 8    1  0.2401501E-006  0.9118800E+02  0.7816164E-02  0.1184000E+00
        -11   -1    0    0    0    0  0.00000000000E+00  0.00000000000E+00  0.45593999997E+02  0.45594000000E+02  0.51100000000E-03 0. -1.
         11   -1    0    0    0    0 -0.00000000000E+00 -0.00000000000E+00 -0.45593999997E+02  0.45594000000E+02  0.51100000000E-03 0.  1.
         23    2    1    2    0    0  0.00000000000E+00  0.00000000000E+00  0.13322676296E-14  0.91188000000E+02  0.91188000000E+02 0.  0.
    9900012    2    3    3    0    0 -0.36644555794E+02  0.20109612975E+01 -0.29853083287E+01  0.54367088815E+02  0.40000010572E+02 0.  0.
         12    1    3    3    0    0  0.36644555794E+02 -0.20109612975E+01  0.29853083287E+01  0.36820911185E+02  0.00000000000E+00 0. -1.
         11    1    4    4    0    0 -0.15591082631E+00  0.51768373715E+01 -0.85283053273E+01  0.99777725657E+01  0.51100000000E-03 0. -1.
        -11    1    4    4    0    0  0.11705826066E+01 -0.55545997286E+00  0.64997168028E+01  0.66276027490E+01  0.51100000000E-03 0.  1.
        -12    1    4    4    0    0 -0.37659227574E+02 -0.26104161012E+01 -0.95671980422E+00  0.37761713500E+02  0.00000000000E+00 0.  1.
</event>
<event>
 8    1  0.2401501E-006  0.9118800E+02  0.7816164E-02  0.1184000E+00
        -11   -1    0    0    0    0  0.00000000000E+00  0.00000000000E+00  0.45593999997E+02  0.45594000000E+02  0.51100000000E-03 0.  1.
         11   -1    0    0    0    0 -0.00000000000E+00 -0.00000000000E+00 -0.45593999997E+02  0.45594000000E+02  0.51100000000E-03 0. -1.
         23    2    1    2    0    0 -0.77715611724E-15  0.00000000000E+00  0.00000000000E+00  0.91188000000E+02  0.91188000000E+02 0.  0.
    9900012    2    3    3    0    0 -0.25933462806E+00  0.58498842666E+01 -0.36352325150E+02  0.54367082789E+02  0.39999996835E+02 0.  0.
        -12    1    3    3    0    0  0.25933462806E+00 -0.58498842666E+01  0.36352325150E+02  0.36820917211E+02  0.00000000000E+00 0.  1.
         11    1    4    4    0    0  0.98465993005E+01  0.14843407365E+00 -0.14224769528E+02  0.17300913815E+02  0.51100000000E-03 0. -1.
        -11    1    4    4    0    0  0.50083001316E+01 -0.76045044936E+01 -0.39024936124E+01  0.99066147324E+01  0.51100000000E-03 0.  1.
        -12    1    4    4    0    0 -0.15114234060E+02  0.13305954687E+02 -0.18225062010E+02  0.27159554242E+02  0.00000000000E+00 0.  1.
</event>
<event>
 8    1  0.2401501E-006  0.9118800E+02  0.7816164E-02  0.1184000E+00
        -11   -1    0    0    0    0  0.00000000000E+00  0.00000000000E+00  0.45593999997E+02  0.45594000000E+02  0.51100000000E-03 0. -1.
         11   -1    0    0    0    0 -0.00000000000E+00 -0.00000000000E+00 -0.45593999997E+02  0.45594000000E+02  0.51100000000E-03 0.  1.
         23    2    1    2    0    0 -0.88817841970E-15  0.73552275381E-15  0.00000000000E+00  0.91188000000E+02  0.91188000000E+02 0.  0.
    9900012    2    3    3    0    0 -0.34687018529E+01 -0.11814071578E+00  0.36656997409E+02  0.54367064260E+02  0.39999954593E+02 0.  0.
        -12    1    3    3    0    0  0.34687018529E+01  0.11814071578E+00 -0.36656997409E+02  0.36820935740E+02  0.00000000000E+00 0.  1.
         11    1    4    4    0    0  0.73220762896E+01 -0.12132906807E+02  0.10740137931E+02  0.17781192081E+02  0.51100000000E-03 0. -1.
        -11    1    4    4    0    0 -0.11359843614E+02  0.20544136220E+01  0.23705735334E+02  0.26367186999E+02  0.51100000000E-03 0.  1.
         12    1    4    4    0    0  0.56906547110E+00  0.99603524695E+01  0.22111241437E+01  0.10218685180E+02  0.00000000000E+00 0. -1.
</event>
<event>
 8    1  0.2401501E-006  0.9118800E+02  0.7816164E-02  0.1184000E+00
        -11   -1    0    0    0    0  0.00000000000E+00  0.00000000000E+00  0.45593999997E+02  0.45594000000E+02  0.51100000000E-03 0. -1.
         11   -1    0    0    0    0 -0.00000000000E+00 -0.00000000000E+00 -0.45593999997E+02  0.45594000000E+02  0.51100000000E-03 0.  1.
         23    2    1    2    0    0 -0.17763568394E-14  0.17763568394E-14  0.71054273576E-14  0.91188000000E+02  0.91188000000E+02 0.  0.
    9900012    2    3    3    0    0 -0.12763413647E+02 -0.53317992261E+01 -0.34124012508E+02  0.54367067902E+02  0.39999962897E+02 0.  0.
         12    1    3    3    0    0  0.12763413647E+02  0.53317992261E+01  0.34124012508E+02  0.36820932098E+02  0.00000000000E+00 0. -1.
         11    1    4    4    0    0 -0.10392407853E+00  0.11475714217E+02  0.45458607127E+00  0.11485184620E+02  0.51100000000E-03 0. -1.
        -11    1    4    4    0    0  0.30144136526E+01 -0.44071061797E+01 -0.63925823438E+01  0.83291286358E+01  0.51100000000E-03 0.  1.
        -12    1    4    4    0    0 -0.15673903221E+02 -0.12400407263E+02 -0.28186016235E+02  0.34552754647E+02  0.00000000000E+00 0.  1.
</event>
<event>
 8    1  0.2401501E-006  0.9118800E+02  0.7816164E-02  0.1184000E+00
        -11   -1    0    0    0    0  0.00000000000E+00  0.00000000000E+00  0.45593999997E+02  0.45594000000E+02  0.51100000000E-03 0.  1.
         11   -1    0    0    0    0 -0.00000000000E+00 -0.00000000000E+00 -0.45593999997E+02  0.45594000000E+02  0.51100000000E-03 0. -1.
         23    2    1    2    0    0  0.00000000000E+00  0.35527136788E-14  0.00000000000E+00  0.91188000000E+02  0.91188000000E+02 0.  0.
    9900012    2    3    3    0    0  0.22906063960E+02  0.19060827044E+02  0.21628153842E+02  0.54367082951E+02  0.39999997202E+02 0.  0.
         12    1    3    3    0    0 -0.22906063960E+02 -0.19060827044E+02 -0.21628153842E+02  0.36820917049E+02  0.00000000000E+00 0. -1.
         11    1    4    4    0    0 -0.81566770695E+01 -0.45763943772E+01  0.60978241048E+01  0.11165044800E+02  0.51100000000E-03 0. -1.
        -11    1    4    4    0    0  0.93089982991E+01  0.12403281732E+02  0.87101021783E+01  0.17786644632E+02  0.51100000000E-03 0.  1.
         12    1    4    4    0    0  0.21753742731E+02  0.11233939690E+02  0.68202275584E+01  0.25415393518E+02  0.00000000000E+00 0. -1.
</event>
<event>
 8    1  0.2401501E-006  0.9118800E+02  0.7816164E-02  0.1184000E+00
        -11   -1    0    0    0    0  0.00000000000E+00  0.00000000000E+00  0.45593999997E+02  0.45594000000E+02  0.51100000000E-03 0.  1.
         11   -1    0    0    0    0 -0.00000000000E+00 -0.00000000000E+00 -0.45593999997E+02  0.45594000000E+02  0.51100000000E-03 0. -1.
         23    2    1    2    0    0  0.00000000000E+00  0.00000000000E+00  0.00000000000E+00  0.91188000000E+02  0.91188000000E+02 0.  0.
    9900012    2    3    3    0    0 -0.20167911077E+02  0.26120907473E+02  0.16332006182E+02  0.54367070213E+02  0.39999968164E+02 0.  0.
        -12    1    3    3    0    0  0.20167911077E+02 -0.26120907473E+02 -0.16332006182E+02  0.36820929787E+02  0.00000000000E+00 0.  1.
         11    1    4    4    0    0 -0.90177926009E+01  0.59198963051E+01 -0.42495047365E+00  0.10795662964E+02  0.51100000000E-03 0. -1.
        -11    1    4    4    0    0 -0.20455116918E+00  0.26365474251E+02  0.60171030083E+01  0.27044141742E+02  0.51100000000E-03 0.  1.
        -12    1    4    4    0    0 -0.10945567307E+02 -0.61644630831E+01  0.10739853648E+02  0.16527265508E+02  0.00000000000E+00 0.  1.
</event>
<event>
 8    1  0.2401501E-006  0.9118800E+02  0.7816164E-02  0.1184000E+00
        -11   -1    0    0    0    0  0.00000000000E+00  0.00000000000E+00  0.45593999997E+02  0.45594000000E+02  0.51100000000E-03 0.  1.
         11   -1    0    0    0    0 -0.00000000000E+00 -0.00000000000E+00 -0.45593999997E+02  0.45594000000E+02  0.51100000000E-03 0. -1.
         23    2    1    2    0    0 -0.71054273576E-14  0.00000000000E+00  0.88817841970E-15  0.91188000000E+02  0.91188000000E+02 0.  0.
    9900012    2    3    3    0    0 -0.35314863886E+02 -0.89193569827E+01  0.53931033232E+01  0.54367080624E+02  0.39999991898E+02 0.  0.
        -12    1    3    3    0    0  0.35314863886E+02  0.89193569827E+01 -0.53931033232E+01  0.36820919376E+02  0.00000000000E+00 0.  1.
         11    1    4    4    0    0 -0.44678833165E+01 -0.27144626652E+01 -0.39947647878E+01  0.65793947185E+01  0.51100000000E-03 0. -1.
        -11    1    4    4    0    0 -0.22658755938E+02 -0.19094351542E+02  0.12573386826E+02  0.32188562224E+02  0.51100000000E-03 0.  1.
        -12    1    4    4    0    0 -0.81882246311E+01  0.12889457224E+02 -0.31855187154E+01  0.15599123682E+02  0.00000000000E+00 0.  1.
</event>
<event>
 8    1  0.2401501E-006  0.9118800E+02  0.7816164E-02  0.1184000E+00
        -11   -1    0    0    0    0  0.00000000000E+00  0.00000000000E+00  0.45593999997E+02  0.45594000000E+02  0.51100000000E-03 0.  1.
         11   -1    0    0    0    0 -0.00000000000E+00 -0.00000000000E+00 -0.45593999997E+02  0.45594000000E+02  0.51100000000E-03 0. -1.
         23    2    1    2    0    0  0.00000000000E+00  0.00000000000E+00  0.17763568394E-14  0.91188000000E+02  0.91188000000E+02 0.  0.
    9900012    2    3    3    0    0 -0.27688719698E+02 -0.22131448923E+02  0.99656882967E+01  0.54367066101E+02  0.39999958791E+02 0.  0.
         12    1    3    3    0    0  0.27688719698E+02  0.22131448923E+02 -0.99656882967E+01  0.36820933899E+02  0.00000000000E+00 0. -1.
         11    1    4    4    0    0 -0.72935989372E+01 -0.15458783775E+02  0.22438414329E+02  0.28207322083E+02  0.51100000000E-03 0. -1.
        -11    1    4    4    0    0 -0.14843757681E+02 -0.10204760380E+01 -0.64926088385E+01  0.16233683600E+02  0.51100000000E-03 0.  1.
         12    1    4    4    0    0 -0.55513630796E+01 -0.56521891104E+01 -0.59801171933E+01  0.99260604182E+01  0.00000000000E+00 0. -1.
</event>
<event>
 8    1  0.2401501E-006  0.9118800E+02  0.7816164E-02  0.1184000E+00
        -11   -1    0    0    0    0  0.00000000000E+00  0.00000000000E+00  0.45593999997E+02  0.45594000000E+02  0.51100000000E-03 0.  1.
         11   -1    0    0    0    0 -0.00000000000E+00 -0.00000000000E+00 -0.45593999997E+02  0.45594000000E+02  0.51100000000E-03 0. -1.
         23    2    1    2    0    0  0.00000000000E+00  0.88817841970E-15  0.00000000000E+00  0.91188000000E+02  0.91188000000E+02 0.  0.
    9900012    2    3    3    0    0 -0.24973603346E+02 -0.55160604273E+01  0.26489065440E+02  0.54367104104E+02  0.40000045426E+02 0.  0.
         12    1    3    3    0    0  0.24973603346E+02  0.55160604273E+01 -0.26489065440E+02  0.36820895896E+02  0.00000000000E+00 0. -1.
         11    1    4    4    0    0 -0.15199684859E+02  0.83958301176E+01  0.90308014783E+01  0.19572321241E+02  0.51100000000E-03 0. -1.
        -11    1    4    4    0    0 -0.12739713974E+02 -0.63512922530E+01  0.21451225859E+02  0.25744792028E+02  0.51100000000E-03 0.  1.
        -12    1    4    4    0    0  0.29657954870E+01 -0.75605982919E+01 -0.39929618978E+01  0.90499908353E+01  0.00000000000E+00 0.  1.
</event>
<event>
 8    1  0.2401501E-006  0.9118800E+02  0.7816164E-02  0.1184000E+00
        -11   -1    0    0    0    0  0.00000000000E+00  0.00000000000E+00  0.45593999997E+02  0.45594000000E+02  0.51100000000E-03 0.  1.
         11   -1    0    0    0    0 -0.00000000000E+00 -0.00000000000E+00 -0.45593999997E+02  0.45594000000E+02  0.51100000000E-03 0. -1.
         23    2    1    2    0    0  0.35527136788E-14  0.00000000000E+00  0.00000000000E+00  0.91188000000E+02  0.91188000000E+02 0.  0.
    9900012    2    3    3    0    0  0.16354653887E+02  0.67891800302E+01 -0.32283334894E+02  0.54367063278E+02  0.39999952355E+02 0.  0.
        -12    1    3    3    0    0 -0.16354653887E+02 -0.67891800302E+01  0.32283334894E+02  0.36820936722E+02  0.00000000000E+00 0.  1.
         11    1    4    4    0    0  0.18211249957E+02 -0.17821581777E+01 -0.33009060418E+02  0.37741539220E+02  0.51100000000E-03 0. -1.
        -11    1    4    4    0    0  0.17972860697E+01 -0.12396626977E+00  0.56890500092E+01  0.59674864994E+01  0.51100000000E-03 0.  1.
        -12    1    4    4    0    0 -0.36538821405E+01  0.86953044777E+01 -0.49633244850E+01  0.10658037559E+02  0.00000000000E+00 0.  1.
</event>
<event>
 8    1  0.2401501E-006  0.9118800E+02  0.7816164E-02  0.1184000E+00
        -11   -1    0    0    0    0  0.00000000000E+00  0.00000000000E+00  0.45593999997E+02  0.45594000000E+02  0.51100000000E-03 0. -1.
         11   -1    0    0    0    0 -0.00000000000E+00 -0.00000000000E+00 -0.45593999997E+02  0.45594000000E+02  0.51100000000E-03 0.  1.
         23    2    1    2    0    0  0.00000000000E+00  0.26645352591E-14  0.88817841970E-15  0.91188000000E+02  0.91188000000E+02 0.  0.
    9900012    2    3    3    0    0 -0.35503404061E+02  0.70015934375E+01  0.68019174801E+01  0.54367080783E+02  0.39999992261E+02 0.  0.
         12    1    3    3    0    0  0.35503404061E+02 -0.70015934375E+01 -0.68019174801E+01  0.36820919217E+02  0.00000000000E+00 0. -1.
         11    1    4    4    0    0 -0.58890652913E+01 -0.74416344141E+01 -0.51406579356E+01  0.10792839155E+02  0.51100000000E-03 0. -1.
        -11    1    4    4    0    0  0.10505131118E+01  0.10216217905E+02 -0.32988124406E+00  0.10275383592E+02  0.51100000000E-03 0.  1.
         12    1    4    4    0    0 -0.30664851881E+02  0.42270099468E+01  0.12272456660E+02  0.33298858035E+02  0.00000000000E+00 0. -1.
</event>
<event>
 8    1  0.2401501E-006  0.9118800E+02  0.7816164E-02  0.1184000E+00
        -11   -1    0    0    0    0  0.00000000000E+00  0.00000000000E+00  0.45593999997E+02  0.45594000000E+02  0.51100000000E-03 0.  1.
         11   -1    0    0    0    0 -0.00000000000E+00 -0.00000000000E+00 -0.45593999997E+02  0.45594000000E+02  0.51100000000E-03 0. -1.
         23    2    1    2    0    0 -0.35527136788E-14 -0.35527136788E-14  0.35527136788E-14  0.91188000000E+02  0.91188000000E+02 0.  0.
    9900012    2    3    3    0    0  0.19854062492E+02  0.25054448260E+02  0.18272079599E+02  0.54367108269E+02  0.40000054920E+02 0.  0.
         12    1    3    3    0    0 -0.19854062492E+02 -0.25054448260E+02 -0.18272079599E+02  0.36820891731E+02  0.00000000000E+00 0. -1.
         11    1    4    4    0    0 -0.36157036057E+01  0.34354045364E+01  0.63786197539E+01  0.80970431096E+01  0.51100000000E-03 0. -1.
        -11    1    4    4    0    0 -0.21942444949E+01  0.16758741398E+02  0.10938199477E+02  0.20132419879E+02  0.51100000000E-03 0.  1.
         12    1    4    4    0    0  0.25664010592E+02  0.48603023256E+01  0.95526036769E+00  0.26137645279E+02  0.00000000000E+00 0. -1.
</event>
<event>
 8    1  0.2401501E-006  0.9118800E+02  0.7816164E-02  0.1184000E+00
        -11   -1    0    0    0    0  0.00000000000E+00  0.00000000000E+00  0.45593999997E+02  0.45594000000E+02  0.51100000000E-03 0.  1.
         11   -1    0    0    0    0 -0.00000000000E+00 -0.00000000000E+00 -0.45593999997E+02  0.45594000000E+02  0.51100000000E-03 0. -1.
         23    2    1    2    0    0  0.00000000000E+00  0.00000000000E+00 -0.17763568394E-14  0.91188000000E+02  0.91188000000E+02 0.  0.
    9900012    2    3    3    0    0 -0.27445329665E+01 -0.34883629106E+02 -0.11462111325E+02  0.54367081532E+02  0.39999993968E+02 0.  0.
         12    1    3    3    0    0  0.27445329665E+01  0.34883629106E+02  0.11462111325E+02  0.36820918468E+02  0.00000000000E+00 0. -1.
         11    1    4    4    0    0 -0.11369354415E+02 -0.18318293681E+02 -0.21383239136E+02  0.30365523532E+02  0.51100000000E-03 0. -1.
        -11    1    4    4    0    0  0.92856609207E+01 -0.13238023687E+02  0.32153729038E+01  0.16486582212E+02  0.51100000000E-03 0.  1.
         12    1    4    4    0    0 -0.66083947250E+00 -0.33273117378E+01  0.67057549070E+01  0.75149757871E+01  0.00000000000E+00 0. -1.
</event>
<event>
 8    1  0.2401501E-006  0.9118800E+02  0.7816164E-02  0.1184000E+00
        -11   -1    0    0    0    0  0.00000000000E+00  0.00000000000E+00  0.45593999997E+02  0.45594000000E+02  0.51100000000E-03 0. -1.
         11   -1    0    0    0    0 -0.00000000000E+00 -0.00000000000E+00 -0.45593999997E+02  0.45594000000E+02  0.51100000000E-03 0.  1.
         23    2    1    2    0    0  0.00000000000E+00  0.35527136788E-14  0.44408920985E-15  0.91188000000E+02  0.91188000000E+02 0.  0.
    9900012    2    3    3    0    0 -0.32325621931E+02 -0.17474173664E+02  0.23424836918E+01  0.54367084635E+02  0.40000001041E+02 0.  0.
         12    1    3    3    0    0  0.32325621931E+02  0.17474173664E+02 -0.23424836918E+01  0.36820915365E+02  0.00000000000E+00 0. -1.
         11    1    4    4    0    0 -0.20283924670E+02 -0.16736034502E+02  0.15516486896E+02  0.30533486809E+02  0.51100000000E-03 0. -1.
        -11    1    4    4    0    0 -0.12671577695E+02  0.26534622868E+01 -0.15094029808E+02  0.19885660147E+02  0.51100000000E-03 0.  1.
         12    1    4    4    0    0  0.62988043309E+00 -0.33916014494E+01  0.19200266045E+01  0.39479376786E+01  0.00000000000E+00 0. -1.
</event>
<event>
 8    1  0.2401501E-006  0.9118800E+02  0.7816164E-02  0.1184000E+00
        -11   -1    0    0    0    0  0.00000000000E+00  0.00000000000E+00  0.45593999997E+02  0.45594000000E+02  0.51100000000E-03 0.  1.
         11   -1    0    0    0    0 -0.00000000000E+00 -0.00000000000E+00 -0.45593999997E+02  0.45594000000E+02  0.51100000000E-03 0. -1.
         23    2    1    2    0    0 -0.71054273576E-14 -0.17763568394E-14 -0.17763568394E-14  0.91188000000E+02  0.91188000000E+02 0.  0.
    9900012    2    3    3    0    0  0.32923671397E+02 -0.10600150117E+02  0.12627321811E+02  0.54367074199E+02  0.39999977251E+02 0.  0.
        -12    1    3    3    0    0 -0.32923671397E+02  0.10600150117E+02 -0.12627321811E+02  0.36820925801E+02  0.00000000000E+00 0.  1.
         11    1    4    4    0    0  0.15582637135E+02  0.28060051657E+00  0.41415059904E+01  0.16126046907E+02  0.51100000000E-03 0. -1.
        -11    1    4    4    0    0 -0.12344369186E+01  0.95721024314E+01  0.25257116951E+01  0.99763820743E+01  0.51100000000E-03 0.  1.
         12    1    4    4    0    0  0.18575471181E+02 -0.20452853065E+02  0.59601041255E+01  0.28264645217E+02  0.00000000000E+00 0. -1.
</event>
<event>
 8    1  0.2401501E-006  0.9118800E+02  0.7816164E-02  0.1184000E+00
        -11   -1    0    0    0    0  0.00000000000E+00  0.00000000000E+00  0.45593999997E+02  0.45594000000E+02  0.51100000000E-03 0. -1.
         11   -1    0    0    0    0 -0.00000000000E+00 -0.00000000000E+00 -0.45593999997E+02  0.45594000000E+02  0.51100000000E-03 0.  1.
         23    2    1    2    0    0  0.35527136788E-14  0.35527136788E-14 -0.35527136788E-14  0.91188000000E+02  0.91188000000E+02 0.  0.
    9900012    2    3    3    0    0 -0.27746830254E+02 -0.20445491880E+02  0.12956645173E+02  0.54367090430E+02  0.40000014254E+02 0.  0.
        -12    1    3    3    0    0  0.27746830254E+02  0.20445491880E+02 -0.12956645173E+02  0.36820909570E+02  0.00000000000E+00 0.  1.
         11    1    4    4    0    0 -0.14868073457E+02  0.50667320644E+01  0.53373629371E+00  0.15716750836E+02  0.51100000000E-03 0. -1.
        -11    1    4    4    0    0 -0.10772110519E+01  0.19172916815E+01 -0.40050196639E+01  0.45690889477E+01  0.51100000000E-03 0.  1.
         12    1    4    4    0    0 -0.11801545745E+02 -0.27429515626E+02  0.16427928543E+02  0.34081250647E+02  0.00000000000E+00 0. -1.
</event>
<event>
 8    1  0.2401501E-006  0.9118800E+02  0.7816164E-02  0.1184000E+00
        -11   -1    0    0    0    0  0.00000000000E+00  0.00000000000E+00  0.45593999997E+02  0.45594000000E+02  0.51100000000E-03 0. -1.
         11   -1    0    0    0    0 -0.00000000000E+00 -0.00000000000E+00 -0.45593999997E+02  0.45594000000E+02  0.51100000000E-03 0.  1.
         23    2    1    2    0    0  0.35527136788E-14 -0.17763568394E-14  0.00000000000E+00  0.91188000000E+02  0.91188000000E+02 0.  0.
    9900012    2    3    3    0    0  0.19606487735E+02 -0.88994472484E+01 -0.29869118608E+02  0.54367098747E+02  0.40000033214E+02 0.  0.
         12    1    3    3    0    0 -0.19606487735E+02  0.88994472484E+01  0.29869118608E+02  0.36820901253E+02  0.00000000000E+00 0. -1.
         11    1    4    4    0    0 -0.56594267155E+01  0.40643634260E+01 -0.31473617113E+01  0.76455246262E+01  0.51100000000E-03 0. -1.
        -11    1    4    4    0    0  0.10091667651E+02  0.63361817380E+01 -0.23846308201E+01  0.12152177558E+02  0.51100000000E-03 0.  1.
        -12    1    4    4    0    0  0.15174246799E+02 -0.19299992412E+02 -0.24337126077E+02  0.34569396563E+02  0.00000000000E+00 0.  1.
</event>
<event>
 8    1  0.2401501E-006  0.9118800E+02  0.7816164E-02  0.1184000E+00
        -11   -1    0    0    0    0  0.00000000000E+00  0.00000000000E+00  0.45593999997E+02  0.45594000000E+02  0.51100000000E-03 0. -1.
         11   -1    0    0    0    0 -0.00000000000E+00 -0.00000000000E+00 -0.45593999997E+02  0.45594000000E+02  0.51100000000E-03 0.  1.
         23    2    1    2    0    0  0.00000000000E+00  0.17763568394E-14  0.00000000000E+00  0.91188000000E+02  0.91188000000E+02 0.  0.
    9900012    2    3    3    0    0  0.54675803383E+01 -0.13004153372E+02 -0.34011443624E+02  0.54367072023E+02  0.39999972291E+02 0.  0.
         12    1    3    3    0    0 -0.54675803383E+01  0.13004153372E+02  0.34011443624E+02  0.36820927977E+02  0.00000000000E+00 0. -1.
         11    1    4    4    0    0  0.15575405903E+01  0.39659653353E+01  0.61639866456E+01  0.74933000313E+01  0.51100000000E-03 0. -1.
        -11    1    4    4    0    0  0.19086888882E+01 -0.44284169751E+00 -0.22527585485E+02  0.22612636071E+02  0.51100000000E-03 0.  1.
         12    1    4    4    0    0  0.20013508598E+01 -0.16527277010E+02 -0.17647844785E+02  0.24261135921E+02  0.00000000000E+00 0. -1.
</event>
<event>
 8    1  0.2401501E-006  0.9118800E+02  0.7816164E-02  0.1184000E+00
        -11   -1    0    0    0    0  0.00000000000E+00  0.00000000000E+00  0.45593999997E+02  0.45594000000E+02  0.51100000000E-03 0.  1.
         11   -1    0    0    0    0 -0.00000000000E+00 -0.00000000000E+00 -0.45593999997E+02  0.45594000000E+02  0.51100000000E-03 0. -1.
         23    2    1    2    0    0  0.35527136788E-14  0.00000000000E+00  0.00000000000E+00  0.91188000000E+02  0.91188000000E+02 0.  0.
    9900012    2    3    3    0    0 -0.18726826392E+02  0.80538139311E+01  0.30663033790E+02  0.54367087643E+02  0.40000007900E+02 0.  0.
         12    1    3    3    0    0  0.18726826392E+02 -0.80538139311E+01 -0.30663033790E+02  0.36820912357E+02  0.00000000000E+00 0. -1.
         11    1    4    4    0    0 -0.55778869412E+01 -0.35613230157E+01  0.43366536715E+01  0.79121684562E+01  0.51100000000E-03 0. -1.
        -11    1    4    4    0    0 -0.22979986417E+02  0.13582190360E+02  0.24562665094E+02  0.36275062888E+02  0.51100000000E-03 0.  1.
         12    1    4    4    0    0  0.98310469663E+01 -0.19670534134E+01  0.17637150249E+01  0.10179856299E+02  0.00000000000E+00 0. -1.
</event>
<event>
 8    1  0.2401501E-006  0.9118800E+02  0.7816164E-02  0.1184000E+00
        -11   -1    0    0    0    0  0.00000000000E+00  0.00000000000E+00  0.45593999997E+02  0.45594000000E+02  0.51100000000E-03 0. -1.
         11   -1    0    0    0    0 -0.00000000000E+00 -0.00000000000E+00 -0.45593999997E+02  0.45594000000E+02  0.51100000000E-03 0.  1.
         23    2    1    2    0    0  0.00000000000E+00  0.00000000000E+00  0.00000000000E+00  0.91188000000E+02  0.91188000000E+02 0.  0.
    9900012    2    3    3    0    0 -0.12705559461E+02 -0.30188485650E+02  0.16822711345E+02  0.54367088495E+02  0.40000009843E+02 0.  0.
         12    1    3    3    0    0  0.12705559461E+02  0.30188485650E+02 -0.16822711345E+02  0.36820911505E+02  0.00000000000E+00 0. -1.
         11    1    4    4    0    0  0.27461830598E+01 -0.25926155821E+02  0.17271854680E+02  0.31273375919E+02  0.51100000000E-03 0. -1.
        -11    1    4    4    0    0 -0.10697063720E+02 -0.96929581046E+01  0.35173097663E+01  0.14857727864E+02  0.51100000000E-03 0.  1.
        -12    1    4    4    0    0 -0.47546788007E+01  0.54306282761E+01 -0.39664531007E+01  0.82359847117E+01  0.00000000000E+00 0.  1.
</event>
<event>
 8    1  0.2401501E-006  0.9118800E+02  0.7816164E-02  0.1184000E+00
        -11   -1    0    0    0    0  0.00000000000E+00  0.00000000000E+00  0.45593999997E+02  0.45594000000E+02  0.51100000000E-03 0.  1.
         11   -1    0    0    0    0 -0.00000000000E+00 -0.00000000000E+00 -0.45593999997E+02  0.45594000000E+02  0.51100000000E-03 0. -1.
         23    2    1    2    0    0  0.00000000000E+00  0.00000000000E+00  0.35527136788E-14  0.91188000000E+02  0.91188000000E+02 0.  0.
    9900012    2    3    3    0    0 -0.17011071707E+02  0.20432292695E+02  0.25474010802E+02  0.54367076985E+02  0.39999983602E+02 0.  0.
         12    1    3    3    0    0  0.17011071707E+02 -0.20432292695E+02 -0.25474010802E+02  0.36820923015E+02  0.00000000000E+00 0. -1.
         11    1    4    4    0    0 -0.11518287047E+01  0.57488390027E+01 -0.37249304804E+01  0.69462915710E+01  0.51100000000E-03 0. -1.
        -11    1    4    4    0    0  0.27933822863E+01  0.16256765910E+02  0.21695624989E+02  0.27254092653E+02  0.51100000000E-03 0.  1.
         12    1    4    4    0    0 -0.18652625288E+02 -0.15733122177E+01  0.75033162934E+01  0.20166692760E+02  0.00000000000E+00 0. -1.
</event>
<event>
 8    1  0.2401501E-006  0.9118800E+02  0.7816164E-02  0.1184000E+00
        -11   -1    0    0    0    0  0.00000000000E+00  0.00000000000E+00  0.45593999997E+02  0.45594000000E+02  0.51100000000E-03 0. -1.
         11   -1    0    0    0    0 -0.00000000000E+00 -0.00000000000E+00 -0.45593999997E+02  0.45594000000E+02  0.51100000000E-03 0.  1.
         23    2    1    2    0    0  0.00000000000E+00  0.35527136788E-14 -0.35527136788E-14  0.91188000000E+02  0.91188000000E+02 0.  0.
    9900012    2    3    3    0    0 -0.16630199233E+02  0.28030625432E+02 -0.17131862204E+02  0.54367079435E+02  0.39999989189E+02 0.  0.
         12    1    3    3    0    0  0.16630199233E+02 -0.28030625432E+02  0.17131862204E+02  0.36820920565E+02  0.00000000000E+00 0. -1.
         11    1    4    4    0    0 -0.11783420067E+02  0.98373091986E+01  0.11002799066E+02  0.18886059099E+02  0.51100000000E-03 0. -1.
        -11    1    4    4    0    0 -0.56502998543E+01  0.42475012951E+01 -0.13567559253E+02  0.15298556142E+02  0.51100000000E-03 0.  1.
         12    1    4    4    0    0  0.80352068807E+00  0.13945814938E+02 -0.14567102017E+02  0.20182464194E+02  0.00000000000E+00 0. -1.
</event>
<event>
 8    1  0.2401501E-006  0.9118800E+02  0.7816164E-02  0.1184000E+00
        -11   -1    0    0    0    0  0.00000000000E+00  0.00000000000E+00  0.45593999997E+02  0.45594000000E+02  0.51100000000E-03 0. -1.
         11   -1    0    0    0    0 -0.00000000000E+00 -0.00000000000E+00 -0.45593999997E+02  0.45594000000E+02  0.51100000000E-03 0.  1.
         23    2    1    2    0    0  0.00000000000E+00  0.35527136788E-14  0.00000000000E+00  0.91188000000E+02  0.91188000000E+02 0.  0.
    9900012    2    3    3    0    0  0.22497796917E+02 -0.23465343820E+02 -0.17291783544E+02  0.54367095545E+02  0.40000025915E+02 0.  0.
         12    1    3    3    0    0 -0.22497796917E+02  0.23465343820E+02  0.17291783544E+02  0.36820904455E+02  0.00000000000E+00 0. -1.
         11    1    4    4    0    0  0.17299783516E+02  0.50410183421E+01 -0.35902432879E+01  0.18373465181E+02  0.51100000000E-03 0. -1.
        -11    1    4    4    0    0 -0.35868144877E+01 -0.43177052661E+01 -0.77682185303E+01  0.95839989738E+01  0.51100000000E-03 0.  1.
         12    1    4    4    0    0  0.87848278880E+01 -0.24188656897E+02 -0.59333217257E+01  0.26409631390E+02  0.00000000000E+00 0. -1.
</event>
<event>
 8    1  0.2401501E-006  0.9118800E+02  0.7816164E-02  0.1184000E+00
        -11   -1    0    0    0    0  0.00000000000E+00  0.00000000000E+00  0.45593999997E+02  0.45594000000E+02  0.51100000000E-03 0.  1.
         11   -1    0    0    0    0 -0.00000000000E+00 -0.00000000000E+00 -0.45593999997E+02  0.45594000000E+02  0.51100000000E-03 0. -1.
         23    2    1    2    0    0  0.00000000000E+00  0.17763568394E-14  0.13322676296E-14  0.91188000000E+02  0.91188000000E+02 0.  0.
    9900012    2    3    3    0    0 -0.33518217035E+02  0.14948459446E+02 -0.29752584102E+01  0.54367089153E+02  0.40000011342E+02 0.  0.
         12    1    3    3    0    0  0.33518217035E+02 -0.14948459446E+02  0.29752584102E+01  0.36820910847E+02  0.00000000000E+00 0. -1.
         11    1    4    4    0    0 -0.70348118460E+01 -0.70128197660E+01  0.99506087125E+00  0.99829036446E+01  0.51100000000E-03 0. -1.
        -11    1    4    4    0    0 -0.11899956981E+02  0.11393166960E+02 -0.15807972280E+02  0.22832109350E+02  0.51100000000E-03 0.  1.
         12    1    4    4    0    0 -0.14583448208E+02  0.10568112253E+02  0.11837652998E+02  0.21552076158E+02  0.00000000000E+00 0. -1.
</event>
<event>
 8    1  0.2401501E-006  0.9118800E+02  0.7816164E-02  0.1184000E+00
        -11   -1    0    0    0    0  0.00000000000E+00  0.00000000000E+00  0.45593999997E+02  0.45594000000E+02  0.51100000000E-03 0. -1.
         11   -1    0    0    0    0 -0.00000000000E+00 -0.00000000000E+00 -0.45593999997E+02  0.45594000000E+02  0.51100000000E-03 0.  1.
         23    2    1    2    0    0 -0.35527136788E-14 -0.17763568394E-14  0.35527136788E-14  0.91188000000E+02  0.91188000000E+02 0.  0.
    9900012    2    3    3    0    0  0.24354386625E+02 -0.11509386083E+02 -0.25103328429E+02  0.54367092704E+02  0.40000019438E+02 0.  0.
         12    1    3    3    0    0 -0.24354386625E+02  0.11509386083E+02  0.25103328429E+02  0.36820907296E+02  0.00000000000E+00 0. -1.
         11    1    4    4    0    0  0.19935611027E+02  0.91118443867E+01 -0.18987297090E+02  0.28999512861E+02  0.51100000000E-03 0.  1.
        -11    1    4    4    0    0  0.36613545378E+01 -0.78036491745E+01  0.35231760850E+01  0.93121011311E+01  0.51100000000E-03 0. -1.
        -12    1    4    4    0    0  0.75742106051E+00 -0.12817581295E+02 -0.96392074238E+01  0.16055478712E+02  0.00000000000E+00 0.  1.
</event>
<event>
 8    1  0.2401501E-006  0.9118800E+02  0.7816164E-02  0.1184000E+00
        -11   -1    0    0    0    0  0.00000000000E+00  0.00000000000E+00  0.45593999997E+02  0.45594000000E+02  0.51100000000E-03 0.  1.
         11   -1    0    0    0    0 -0.00000000000E+00 -0.00000000000E+00 -0.45593999997E+02  0.45594000000E+02  0.51100000000E-03 0. -1.
         23    2    1    2    0    0  0.35527136788E-14  0.00000000000E+00  0.35527136788E-14  0.91188000000E+02  0.91188000000E+02 0.  0.
    9900012    2    3    3    0    0  0.20493371349E+02 -0.14588260426E+02  0.26888370921E+02  0.54367080643E+02  0.39999991941E+02 0.  0.
         12    1    3    3    0    0 -0.20493371349E+02  0.14588260426E+02 -0.26888370921E+02  0.36820919357E+02  0.00000000000E+00 0. -1.
         11    1    4    4    0    0  0.49382579256E+01  0.11114024446E+02  0.14061172758E+02  0.18590979273E+02  0.51100000000E-03 0. -1.
        -11    1    4    4    0    0  0.86726334757E+01 -0.54455295965E+01  0.97904600555E+01  0.14167620561E+02  0.51100000000E-03 0.  1.
         12    1    4    4    0    0  0.68824799479E+01 -0.20256755276E+02  0.30367381080E+01  0.21608480809E+02  0.00000000000E+00 0. -1.
</event>
<event>
 8    1  0.2401501E-006  0.9118800E+02  0.7816164E-02  0.1184000E+00
        -11   -1    0    0    0    0  0.00000000000E+00  0.00000000000E+00  0.45593999997E+02  0.45594000000E+02  0.51100000000E-03 0.  1.
         11   -1    0    0    0    0 -0.00000000000E+00 -0.00000000000E+00 -0.45593999997E+02  0.45594000000E+02  0.51100000000E-03 0. -1.
         23    2    1    2    0    0 -0.88817841970E-15  0.71054273576E-14 -0.88817841970E-15  0.91188000000E+02  0.91188000000E+02 0.  0.
    9900012    2    3    3    0    0 -0.61215334615E+01  0.36298622734E+02 -0.84627680586E+00  0.54367090605E+02  0.40000014651E+02 0.  0.
         12    1    3    3    0    0  0.61215334615E+01 -0.36298622734E+02  0.84627680586E+00  0.36820909395E+02  0.00000000000E+00 0. -1.
         11    1    4    4    0    0 -0.37489605436E-01 -0.76766686868E+00  0.99682193432E+01  0.99978055106E+01  0.51100000000E-03 0. -1.
        -11    1    4    4    0    0 -0.86775211320E+01  0.20926432716E+02  0.31469412699E+01  0.22871777343E+02  0.51100000000E-03 0.  1.
        -12    1    4    4    0    0  0.25934772759E+01  0.16139856886E+02 -0.13961437419E+02  0.21497507751E+02  0.00000000000E+00 0.  1.
</event>
<event>
 8    1  0.2401501E-006  0.9118800E+02  0.7816164E-02  0.1184000E+00
        -11   -1    0    0    0    0  0.00000000000E+00  0.00000000000E+00  0.45593999997E+02  0.45594000000E+02  0.51100000000E-03 0.  1.
         11   -1    0    0    0    0 -0.00000000000E+00 -0.00000000000E+00 -0.45593999997E+02  0.45594000000E+02  0.51100000000E-03 0. -1.
         23    2    1    2    0    0 -0.71054273576E-14  0.88817841970E-15  0.35527136788E-14  0.91188000000E+02  0.91188000000E+02 0.  0.
    9900012    2    3    3    0    0  0.28825588525E+02 -0.56824102218E+01 -0.22194035449E+02  0.54367088153E+02  0.40000009063E+02 0.  0.
        -12    1    3    3    0    0 -0.28825588525E+02  0.56824102218E+01  0.22194035449E+02  0.36820911847E+02  0.00000000000E+00 0.  1.
         11    1    4    4    0    0  0.19244005011E+02 -0.15764366521E+02  0.20969326954E+01  0.24964857454E+02  0.51100000000E-03 0. -1.
        -11    1    4    4    0    0  0.96494815436E+00  0.31487252986E+01 -0.72790976776E+00  0.33727509303E+01  0.51100000000E-03 0.  1.
         12    1    4    4    0    0  0.86166353592E+01  0.69332310010E+01 -0.23563058376E+02  0.26029479770E+02  0.00000000000E+00 0. -1.
</event>
<event>
 8    1  0.2401501E-006  0.9118800E+02  0.7816164E-02  0.1184000E+00
        -11   -1    0    0    0    0  0.00000000000E+00  0.00000000000E+00  0.45593999997E+02  0.45594000000E+02  0.51100000000E-03 0. -1.
         11   -1    0    0    0    0 -0.00000000000E+00 -0.00000000000E+00 -0.45593999997E+02  0.45594000000E+02  0.51100000000E-03 0.  1.
         23    2    1    2    0    0  0.00000000000E+00  0.00000000000E+00  0.00000000000E+00  0.91188000000E+02  0.91188000000E+02 0.  0.
    9900012    2    3    3    0    0 -0.21816833040E+02 -0.22827420667E+02 -0.18939787340E+02  0.54367070046E+02  0.39999967783E+02 0.  0.
         12    1    3    3    0    0  0.21816833040E+02  0.22827420667E+02  0.18939787340E+02  0.36820929954E+02  0.00000000000E+00 0. -1.
         11    1    4    4    0    0 -0.13304672806E+02  0.65082225983E+01 -0.74410994760E+00  0.14829867827E+02  0.51100000000E-03 0. -1.
        -11    1    4    4    0    0 -0.80664841733E+01 -0.29067790621E+01 -0.32334371115E+01  0.91636590535E+01  0.51100000000E-03 0.  1.
         12    1    4    4    0    0 -0.44567606041E+00 -0.26428864203E+02 -0.14962240281E+02  0.30373543166E+02  0.00000000000E+00 0. -1.
</event>
<event>
 8    1  0.2775840E-006  0.9118800E+02  0.7816164E-02  0.1184000E+00
        -11   -1    0    0    0    0  0.00000000000E+00  0.00000000000E+00  0.45593999997E+02  0.45594000000E+02  0.51100000000E-03 0.  1.
         11   -1    0    0    0    0 -0.00000000000E+00 -0.00000000000E+00 -0.45593999997E+02  0.45594000000E+02  0.51100000000E-03 0. -1.
         23    2    1    2    0    0 -0.71054273576E-14  0.35527136788E-14  0.00000000000E+00  0.91188000000E+02  0.91188000000E+02 0.  0.
    9900012    2    3    3    0    0 -0.22153622899E+02  0.26291875496E+02  0.13180787764E+02  0.54367097095E+02  0.40000029448E+02 0.  0.
         12    1    3    3    0    0  0.22153622899E+02 -0.26291875496E+02 -0.13180787764E+02  0.36820902905E+02  0.00000000000E+00 0. -1.
         11    1    4    4    0    0  0.48509548773E+01  0.75599755563E+00  0.23905577797E+01  0.54605917523E+01  0.51100000000E-03 0. -1.
        -11    1    4    4    0    0  0.30325349990E+01  0.37629092994E+00  0.91977778153E+01  0.96921091814E+01  0.51100000000E-03 0.  1.
        -12    1    4    4    0    0 -0.30037112775E+02  0.25159587010E+02  0.15924521693E+01  0.39214396161E+02  0.00000000000E+00 0.  1.
</event>
<event>
 8    1  0.2401501E-006  0.9118800E+02  0.7816164E-02  0.1184000E+00
        -11   -1    0    0    0    0  0.00000000000E+00  0.00000000000E+00  0.45593999997E+02  0.45594000000E+02  0.51100000000E-03 0. -1.
         11   -1    0    0    0    0 -0.00000000000E+00 -0.00000000000E+00 -0.45593999997E+02  0.45594000000E+02  0.51100000000E-03 0.  1.
         23    2    1    2    0    0  0.00000000000E+00  0.88817841970E-15  0.00000000000E+00  0.91188000000E+02  0.91188000000E+02 0.  0.
    9900012    2    3    3    0    0  0.22556009648E+02  0.42665635629E+01  0.28788935838E+02  0.54367082540E+02  0.39999996267E+02 0.  0.
        -12    1    3    3    0    0 -0.22556009648E+02 -0.42665635629E+01 -0.28788935838E+02  0.36820917460E+02  0.00000000000E+00 0.  1.
         11    1    4    4    0    0  0.97055970339E+01  0.23409844831E+01  0.74868415181E+01  0.12479247506E+02  0.51100000000E-03 0. -1.
        -11    1    4    4    0    0  0.12677511889E+02 -0.13523913666E+02  0.45269264427E+01  0.19081630219E+02  0.51100000000E-03 0.  1.
         12    1    4    4    0    0  0.17290072578E+00  0.15449492746E+02  0.16775167877E+02  0.22806204815E+02  0.00000000000E+00 0. -1.
</event>
<event>
 8    1  0.2401501E-006  0.9118800E+02  0.7816164E-02  0.1184000E+00
        -11   -1    0    0    0    0  0.00000000000E+00  0.00000000000E+00  0.45593999997E+02  0.45594000000E+02  0.51100000000E-03 0. -1.
         11   -1    0    0    0    0 -0.00000000000E+00 -0.00000000000E+00 -0.45593999997E+02  0.45594000000E+02  0.51100000000E-03 0.  1.
         23    2    1    2    0    0  0.35527136788E-14 -0.17763568394E-14  0.35527136788E-14  0.91188000000E+02  0.91188000000E+02 0.  0.
    9900012    2    3    3    0    0 -0.19928772447E+02  0.50152289794E+01  0.30552772841E+02  0.54367076312E+02  0.39999982069E+02 0.  0.
        -12    1    3    3    0    0  0.19928772447E+02 -0.50152289794E+01 -0.30552772841E+02  0.36820923688E+02  0.00000000000E+00 0.  1.
         11    1    4    4    0    0 -0.13069507504E+02  0.47326539740E+01 -0.43623429702E+01  0.14568461707E+02  0.51100000000E-03 0. -1.
        -11    1    4    4    0    0 -0.26467074471E+01 -0.47140623714E+01  0.13083844611E+01  0.55623119754E+01  0.51100000000E-03 0.  1.
        -12    1    4    4    0    0 -0.42125574951E+01  0.49966373768E+01  0.33606731350E+02  0.34236302630E+02  0.00000000000E+00 0.  1.
</event>
<event>
 8    1  0.2401501E-006  0.9118800E+02  0.7816164E-02  0.1184000E+00
        -11   -1    0    0    0    0  0.00000000000E+00  0.00000000000E+00  0.45593999997E+02  0.45594000000E+02  0.51100000000E-03 0.  1.
         11   -1    0    0    0    0 -0.00000000000E+00 -0.00000000000E+00 -0.45593999997E+02  0.45594000000E+02  0.51100000000E-03 0. -1.
         23    2    1    2    0    0  0.35527136788E-14 -0.10658141036E-13  0.00000000000E+00  0.91188000000E+02  0.91188000000E+02 0.  0.
    9900012    2    3    3    0    0 -0.18526191107E+02  0.30213645149E+02  0.99846260948E+01  0.54367124557E+02  0.40000092053E+02 0.  0.
        -12    1    3    3    0    0  0.18526191107E+02 -0.30213645149E+02 -0.99846260948E+01  0.36820875443E+02  0.00000000000E+00 0.  1.
         11    1    4    4    0    0 -0.45883785276E+01 -0.15481353067E+01  0.42078791432E+01  0.64153088456E+01  0.51100000000E-03 0. -1.
        -11    1    4    4    0    0 -0.74668200131E+01 -0.56567874032E+01  0.31660534460E+01  0.98882020366E+01  0.51100000000E-03 0.  1.
         12    1    4    4    0    0 -0.64709925661E+01  0.37418567859E+02  0.26106935057E+01  0.38063613675E+02  0.00000000000E+00 0. -1.
</event>
<event>
 8    1  0.2401501E-006  0.9118800E+02  0.7816164E-02  0.1184000E+00
        -11   -1    0    0    0    0  0.00000000000E+00  0.00000000000E+00  0.45593999997E+02  0.45594000000E+02  0.51100000000E-03 0. -1.
         11   -1    0    0    0    0 -0.00000000000E+00 -0.00000000000E+00 -0.45593999997E+02  0.45594000000E+02  0.51100000000E-03 0.  1.
         23    2    1    2    0    0  0.00000000000E+00 -0.17763568394E-14  0.00000000000E+00  0.91188000000E+02  0.91188000000E+02 0.  0.
    9900012    2    3    3    0    0 -0.33300226060E+02 -0.12614591423E+02 -0.93673372937E+01  0.54367082298E+02  0.39999995715E+02 0.  0.
         12    1    3    3    0    0  0.33300226060E+02  0.12614591423E+02  0.93673372937E+01  0.36820917702E+02  0.00000000000E+00 0. -1.
         11    1    4    4    0    0 -0.27527643085E+02  0.53317113182E+01 -0.68202954556E+01  0.28856796596E+02  0.51100000000E-03 0. -1.
        -11    1    4    4    0    0 -0.11185804586E+02 -0.11945496784E+02 -0.49178742115E+01  0.17088083704E+02  0.51100000000E-03 0.  1.
         12    1    4    4    0    0  0.54132216113E+01 -0.60008059573E+01  0.23708323734E+01  0.84222019978E+01  0.00000000000E+00 0. -1.
</event>
<event>
 8    1  0.2401501E-006  0.9118800E+02  0.7816164E-02  0.1184000E+00
        -11   -1    0    0    0    0  0.00000000000E+00  0.00000000000E+00  0.45593999997E+02  0.45594000000E+02  0.51100000000E-03 0. -1.
         11   -1    0    0    0    0 -0.00000000000E+00 -0.00000000000E+00 -0.45593999997E+02  0.45594000000E+02  0.51100000000E-03 0.  1.
         23    2    1    2    0    0 -0.71054273576E-14  0.00000000000E+00  0.44408920985E-15  0.91188000000E+02  0.91188000000E+02 0.  0.
    9900012    2    3    3    0    0  0.35558595068E+02  0.93334972956E+01  0.20613292014E+01  0.54367123679E+02  0.40000090051E+02 0.  0.
        -12    1    3    3    0    0 -0.35558595068E+02 -0.93334972956E+01 -0.20613292014E+01  0.36820876321E+02  0.00000000000E+00 0.  1.
         11    1    4    4    0    0 -0.19469833703E+01  0.16465546331E+01 -0.51383817922E+01  0.57362752817E+01  0.51100000000E-03 0. -1.
        -11    1    4    4    0    0  0.15797593064E+02 -0.61872128865E+01 -0.79579531556E+01  0.18739652307E+02  0.51100000000E-03 0.  1.
         12    1    4    4    0    0  0.21707985375E+02  0.13874155549E+02  0.15157664149E+02  0.29891196090E+02  0.00000000000E+00 0. -1.
</event>
<event>
 8    1  0.2401501E-006  0.9118800E+02  0.7816164E-02  0.1184000E+00
        -11   -1    0    0    0    0  0.00000000000E+00  0.00000000000E+00  0.45593999997E+02  0.45594000000E+02  0.51100000000E-03 0.  1.
         11   -1    0    0    0    0 -0.00000000000E+00 -0.00000000000E+00 -0.45593999997E+02  0.45594000000E+02  0.51100000000E-03 0. -1.
         23    2    1    2    0    0  0.00000000000E+00  0.00000000000E+00  0.00000000000E+00  0.91188000000E+02  0.91188000000E+02 0.  0.
    9900012    2    3    3    0    0 -0.17104774991E+02  0.42405814017E+01 -0.32329920454E+02  0.54367087265E+02  0.40000007037E+02 0.  0.
        -12    1    3    3    0    0  0.17104774991E+02 -0.42405814017E+01  0.32329920454E+02  0.36820912735E+02  0.00000000000E+00 0.  1.
         11    1    4    4    0    0 -0.59675472518E+01  0.13182999946E+02  0.15837486427E+01  0.14557175818E+02  0.51100000000E-03 0.  1.
        -11    1    4    4    0    0 -0.81359087402E+00  0.34177910082E+01 -0.12693283773E+02  0.13170523098E+02  0.51100000000E-03 0. -1.
        -12    1    4    4    0    0 -0.10323636865E+02 -0.12360209552E+02 -0.21220385323E+02  0.26639388348E+02  0.00000000000E+00 0.  1.
</event>
<event>
 8    1  0.2401501E-006  0.9118800E+02  0.7816164E-02  0.1184000E+00
        -11   -1    0    0    0    0  0.00000000000E+00  0.00000000000E+00  0.45593999997E+02  0.45594000000E+02  0.51100000000E-03 0. -1.
         11   -1    0    0    0    0 -0.00000000000E+00 -0.00000000000E+00 -0.45593999997E+02  0.45594000000E+02  0.51100000000E-03 0.  1.
         23    2    1    2    0    0  0.00000000000E+00  0.00000000000E+00  0.17763568394E-14  0.91188000000E+02  0.91188000000E+02 0.  0.
    9900012    2    3    3    0    0  0.21746844824E+02  0.26592903781E+02  0.13254161183E+02  0.54367074156E+02  0.39999977154E+02 0.  0.
        -12    1    3    3    0    0 -0.21746844824E+02 -0.26592903781E+02 -0.13254161183E+02  0.36820925844E+02  0.00000000000E+00 0.  1.
         11    1    4    4    0    0  0.61158891444E+01  0.25377874289E+02  0.50062898442E+01  0.26580134344E+02  0.51100000000E-03 0. -1.
        -11    1    4    4    0    0 -0.36328580853E+01 -0.42009975451E+01 -0.11620265170E+01  0.56741822432E+01  0.51100000000E-03 0.  1.
        -12    1    4    4    0    0  0.19263813765E+02  0.54160270371E+01  0.94098978559E+01  0.22112757569E+02  0.00000000000E+00 0.  1.
</event>
<event>
 8    1  0.2401501E-006  0.9118800E+02  0.7816164E-02  0.1184000E+00
        -11   -1    0    0    0    0  0.00000000000E+00  0.00000000000E+00  0.45593999997E+02  0.45594000000E+02  0.51100000000E-03 0.  1.
         11   -1    0    0    0    0 -0.00000000000E+00 -0.00000000000E+00 -0.45593999997E+02  0.45594000000E+02  0.51100000000E-03 0. -1.
         23    2    1    2    0    0 -0.71054273576E-14 -0.11102230246E-15  0.44408920985E-15  0.91188000000E+02  0.91188000000E+02 0.  0.
    9900012    2    3    3    0    0 -0.36722149140E+02  0.73210352304E+00  0.25939493245E+01  0.54367071357E+02  0.39999970773E+02 0.  0.
         12    1    3    3    0    0  0.36722149140E+02 -0.73210352304E+00 -0.25939493245E+01  0.36820928643E+02  0.00000000000E+00 0. -1.
         11    1    4    4    0    0  0.42522245579E+01 -0.36307538899E+00  0.17793486887E+01  0.46237776164E+01  0.51100000000E-03 0. -1.
        -11    1    4    4    0    0 -0.34430881743E+02 -0.69721613925E+01  0.92895168118E+01  0.36337195474E+02  0.51100000000E-03 0.  1.
        -12    1    4    4    0    0 -0.65434919548E+01  0.80673403045E+01 -0.84749161759E+01  0.13406098267E+02  0.00000000000E+00 0.  1.
</event>
<event>
 8    1  0.2401501E-006  0.9118800E+02  0.7816164E-02  0.1184000E+00
        -11   -1    0    0    0    0  0.00000000000E+00  0.00000000000E+00  0.45593999997E+02  0.45594000000E+02  0.51100000000E-03 0. -1.
         11   -1    0    0    0    0 -0.00000000000E+00 -0.00000000000E+00 -0.45593999997E+02  0.45594000000E+02  0.51100000000E-03 0.  1.
         23    2    1    2    0    0  0.00000000000E+00 -0.35527136788E-14  0.35527136788E-14  0.91188000000E+02  0.91188000000E+02 0.  0.
    9900012    2    3    3    0    0 -0.15878121552E+02 -0.19471798908E+02 -0.26916811530E+02  0.54367076062E+02  0.39999981499E+02 0.  0.
         12    1    3    3    0    0  0.15878121552E+02  0.19471798908E+02  0.26916811530E+02  0.36820923938E+02  0.00000000000E+00 0. -1.
         11    1    4    4    0    0 -0.14760040226E+02 -0.20663676195E+02 -0.11997360184E+02  0.28085280006E+02  0.51100000000E-03 0. -1.
        -11    1    4    4    0    0 -0.19975934007E+01 -0.51339181200E+01 -0.18260968856E+02  0.19073816568E+02  0.51100000000E-03 0.  1.
         12    1    4    4    0    0  0.87951207513E+00  0.63257954076E+01  0.33415175100E+01  0.72079794879E+01  0.00000000000E+00 0. -1.
</event>
<event>
 8    1  0.2401501E-006  0.9118800E+02  0.7816164E-02  0.1184000E+00
        -11   -1    0    0    0    0  0.00000000000E+00  0.00000000000E+00  0.45593999997E+02  0.45594000000E+02  0.51100000000E-03 0.  1.
         11   -1    0    0    0    0 -0.00000000000E+00 -0.00000000000E+00 -0.45593999997E+02  0.45594000000E+02  0.51100000000E-03 0. -1.
         23    2    1    2    0    0  0.00000000000E+00  0.00000000000E+00  0.35527136788E-14  0.91188000000E+02  0.91188000000E+02 0.  0.
    9900012    2    3    3    0    0 -0.18331637703E+02 -0.26648807958E+02 -0.17594550558E+02  0.54367134776E+02  0.40000115349E+02 0.  0.
        -12    1    3    3    0    0  0.18331637703E+02  0.26648807958E+02  0.17594550558E+02  0.36820865224E+02  0.00000000000E+00 0.  1.
         11    1    4    4    0    0 -0.14082710689E+02 -0.12030530849E+02 -0.13875468726E+02  0.23142710418E+02  0.51100000000E-03 0. -1.
        -11    1    4    4    0    0 -0.21405987293E+01 -0.79842091855E+01 -0.15485199771E+02  0.17553380627E+02  0.51100000000E-03 0.  1.
        -12    1    4    4    0    0 -0.21083282853E+01 -0.66340679233E+01  0.11766117938E+02  0.13671043731E+02  0.00000000000E+00 0.  1.
</event>
<event>
 8    1  0.2401501E-006  0.9118800E+02  0.7816164E-02  0.1184000E+00
        -11   -1    0    0    0    0  0.00000000000E+00  0.00000000000E+00  0.45593999997E+02  0.45594000000E+02  0.51100000000E-03 0. -1.
         11   -1    0    0    0    0 -0.00000000000E+00 -0.00000000000E+00 -0.45593999997E+02  0.45594000000E+02  0.51100000000E-03 0.  1.
         23    2    1    2    0    0  0.71054273576E-14  0.35527136788E-14  0.26645352591E-14  0.91188000000E+02  0.91188000000E+02 0.  0.
    9900012    2    3    3    0    0  0.35115678370E+02  0.10513195365E+02 -0.34844678655E+01  0.54367086643E+02  0.40000005619E+02 0.  0.
        -12    1    3    3    0    0 -0.35115678370E+02 -0.10513195365E+02  0.34844678655E+01  0.36820913357E+02  0.00000000000E+00 0.  1.
         11    1    4    4    0    0  0.11902214590E+01  0.17188589233E+01 -0.13453156955E+02  0.13614644154E+02  0.51100000000E-03 0. -1.
        -11    1    4    4    0    0  0.45520136767E+01  0.90605152502E+01  0.25377137695E+01  0.10452452179E+02  0.51100000000E-03 0.  1.
         12    1    4    4    0    0  0.29373443234E+02 -0.26617880835E+00  0.74309753198E+01  0.30299990310E+02  0.00000000000E+00 0. -1.
</event>
<event>
 8    1  0.2401501E-006  0.9118800E+02  0.7816164E-02  0.1184000E+00
        -11   -1    0    0    0    0  0.00000000000E+00  0.00000000000E+00  0.45593999997E+02  0.45594000000E+02  0.51100000000E-03 0. -1.
         11   -1    0    0    0    0 -0.00000000000E+00 -0.00000000000E+00 -0.45593999997E+02  0.45594000000E+02  0.51100000000E-03 0.  1.
         23    2    1    2    0    0  0.00000000000E+00  0.35527136788E-14 -0.35527136788E-14  0.91188000000E+02  0.91188000000E+02 0.  0.
    9900012    2    3    3    0    0 -0.84175095372E+01 -0.17256627573E+02  0.31418717393E+02  0.54367062144E+02  0.39999949770E+02 0.  0.
        -12    1    3    3    0    0  0.84175095372E+01  0.17256627573E+02 -0.31418717393E+02  0.36820937856E+02  0.00000000000E+00 0.  1.
         11    1    4    4    0    0 -0.15330513863E+02 -0.36506164954E+01  0.13931905754E+02  0.21034487260E+02  0.51100000000E-03 0. -1.
        -11    1    4    4    0    0 -0.48678633286E+01  0.31186037053E+01  0.99951742087E+01  0.11546657100E+02  0.51100000000E-03 0.  1.
        -12    1    4    4    0    0  0.11780867654E+02 -0.16724614783E+02  0.74916374297E+01  0.21785917784E+02  0.00000000000E+00 0.  1.
</event>
<event>
 8    1  0.2401501E-006  0.9118800E+02  0.7816164E-02  0.1184000E+00
        -11   -1    0    0    0    0  0.00000000000E+00  0.00000000000E+00  0.45593999997E+02  0.45594000000E+02  0.51100000000E-03 0. -1.
         11   -1    0    0    0    0 -0.00000000000E+00 -0.00000000000E+00 -0.45593999997E+02  0.45594000000E+02  0.51100000000E-03 0.  1.
         23    2    1    2    0    0 -0.35527136788E-14  0.35527136788E-14 -0.17763568394E-14  0.91188000000E+02  0.91188000000E+02 0.  0.
    9900012    2    3    3    0    0 -0.18958577256E+02 -0.29619967883E+02 -0.10909181811E+02  0.54367076645E+02  0.39999982827E+02 0.  0.
        -12    1    3    3    0    0  0.18958577256E+02  0.29619967883E+02  0.10909181811E+02  0.36820923355E+02  0.00000000000E+00 0.  1.
         11    1    4    4    0    0 -0.16286194919E+02 -0.53540070606E+01 -0.17288944487E+02  0.24347754276E+02  0.51100000000E-03 0. -1.
        -11    1    4    4    0    0 -0.17508163870E+01 -0.12759983348E+01  0.66658980473E+01  0.70091174059E+01  0.51100000000E-03 0.  1.
         12    1    4    4    0    0 -0.92156594907E+00 -0.22989962488E+02 -0.28613537097E+00  0.23010204963E+02  0.00000000000E+00 0. -1.
</event>
<event>
 8    1  0.2401501E-006  0.9118800E+02  0.7816164E-02  0.1184000E+00
        -11   -1    0    0    0    0  0.00000000000E+00  0.00000000000E+00  0.45593999997E+02  0.45594000000E+02  0.51100000000E-03 0.  1.
         11   -1    0    0    0    0 -0.00000000000E+00 -0.00000000000E+00 -0.45593999997E+02  0.45594000000E+02  0.51100000000E-03 0. -1.
         23    2    1    2    0    0  0.00000000000E+00  0.88817841970E-15  0.00000000000E+00  0.91188000000E+02  0.91188000000E+02 0.  0.
    9900012    2    3    3    0    0 -0.36232583802E+02  0.51929083313E+01 -0.40016431835E+01  0.54367087816E+02  0.40000008294E+02 0.  0.
        -12    1    3    3    0    0  0.36232583802E+02 -0.51929083313E+01  0.40016431835E+01  0.36820912184E+02  0.00000000000E+00 0.  1.
         11    1    4    4    0    0 -0.21093686410E+02  0.57297642680E+01 -0.50228666273E+01  0.22427728247E+02  0.51100000000E-03 0. -1.
        -11    1    4    4    0    0 -0.10175200024E+02 -0.13387130344E+02 -0.39873691477E+01  0.17281466007E+02  0.51100000000E-03 0.  1.
         12    1    4    4    0    0 -0.49636973681E+01  0.12850274408E+02  0.50085925916E+01  0.14657893561E+02  0.00000000000E+00 0. -1.
</event>
<event>
 8    1  0.2401501E-006  0.9118800E+02  0.7816164E-02  0.1184000E+00
        -11   -1    0    0    0    0  0.00000000000E+00  0.00000000000E+00  0.45593999997E+02  0.45594000000E+02  0.51100000000E-03 0.  1.
         11   -1    0    0    0    0 -0.00000000000E+00 -0.00000000000E+00 -0.45593999997E+02  0.45594000000E+02  0.51100000000E-03 0. -1.
         23    2    1    2    0    0  0.00000000000E+00  0.00000000000E+00 -0.35527136788E-14  0.91188000000E+02  0.91188000000E+02 0.  0.
    9900012    2    3    3    0    0  0.11810483584E+02  0.16756020067E+02 -0.30586401758E+02  0.54367086059E+02  0.40000004288E+02 0.  0.
        -12    1    3    3    0    0 -0.11810483584E+02 -0.16756020067E+02  0.30586401758E+02  0.36820913941E+02  0.00000000000E+00 0.  1.
         11    1    4    4    0    0 -0.28650408511E+01 -0.35210131636E+01  0.59148091428E+01  0.74559345647E+01  0.51100000000E-03 0.  1.
        -11    1    4    4    0    0  0.88786033934E+01  0.33729835449E+01 -0.50984161051E+01  0.10779631870E+02  0.51100000000E-03 0. -1.
         12    1    4    4    0    0  0.57969210418E+01  0.16904049686E+02 -0.31402794796E+02  0.36131519624E+02  0.00000000000E+00 0. -1.
</event>
<event>
 8    1  0.2401501E-006  0.9118800E+02  0.7816164E-02  0.1184000E+00
        -11   -1    0    0    0    0  0.00000000000E+00  0.00000000000E+00  0.45593999997E+02  0.45594000000E+02  0.51100000000E-03 0. -1.
         11   -1    0    0    0    0 -0.00000000000E+00 -0.00000000000E+00 -0.45593999997E+02  0.45594000000E+02  0.51100000000E-03 0.  1.
         23    2    1    2    0    0  0.35527136788E-14 -0.53290705182E-14  0.00000000000E+00  0.91188000000E+02  0.91188000000E+02 0.  0.
    9900012    2    3    3    0    0  0.27382412963E+02 -0.13383333315E+02 -0.20660973560E+02  0.54367000845E+02  0.39999810026E+02 0.  0.
         12    1    3    3    0    0 -0.27382412963E+02  0.13383333315E+02  0.20660973560E+02  0.36820999155E+02  0.00000000000E+00 0. -1.
         11    1    4    4    0    0 -0.18406848197E+01  0.50506621504E+01 -0.14908934365E+02  0.15848458377E+02  0.51100000000E-03 0. -1.
        -11    1    4    4    0    0  0.47511610525E+01  0.29367912028E+01 -0.51278806825E+00  0.56090307344E+01  0.51100000000E-03 0.  1.
        -12    1    4    4    0    0  0.24471936730E+02 -0.21370786668E+02 -0.52392511269E+01  0.32909511733E+02  0.00000000000E+00 0.  1.
</event>
<event>
 8    1  0.2401501E-006  0.9118800E+02  0.7816164E-02  0.1184000E+00
        -11   -1    0    0    0    0  0.00000000000E+00  0.00000000000E+00  0.45593999997E+02  0.45594000000E+02  0.51100000000E-03 0.  1.
         11   -1    0    0    0    0 -0.00000000000E+00 -0.00000000000E+00 -0.45593999997E+02  0.45594000000E+02  0.51100000000E-03 0. -1.
         23    2    1    2    0    0 -0.35527136788E-14  0.00000000000E+00 -0.17763568394E-14  0.91188000000E+02  0.91188000000E+02 0.  0.
    9900012    2    3    3    0    0 -0.28997802543E+02  0.19878462954E+02  0.10943194386E+02  0.54367090925E+02  0.40000015381E+02 0.  0.
         12    1    3    3    0    0  0.28997802543E+02 -0.19878462954E+02 -0.10943194386E+02  0.36820909075E+02  0.00000000000E+00 0. -1.
         11    1    4    4    0    0 -0.90403382391E+00 -0.91238740964E+01 -0.71362902946E+00  0.91962830717E+01  0.51100000000E-03 0. -1.
        -11    1    4    4    0    0 -0.19117089008E+02  0.79005857052E+01  0.47844642170E+01  0.21231425876E+02  0.51100000000E-03 0.  1.
         12    1    4    4    0    0 -0.89766797111E+01  0.21101751345E+02  0.68723591984E+01  0.23939381977E+02  0.00000000000E+00 0. -1.
</event>
<event>
 8    1  0.2401501E-006  0.9118800E+02  0.7816164E-02  0.1184000E+00
        -11   -1    0    0    0    0  0.00000000000E+00  0.00000000000E+00  0.45593999997E+02  0.45594000000E+02  0.51100000000E-03 0. -1.
         11   -1    0    0    0    0 -0.00000000000E+00 -0.00000000000E+00 -0.45593999997E+02  0.45594000000E+02  0.51100000000E-03 0.  1.
         23    2    1    2    0    0  0.88817841970E-15  0.00000000000E+00  0.17763568394E-14  0.91188000000E+02  0.91188000000E+02 0.  0.
    9900012    2    3    3    0    0  0.31337510755E+01 -0.33612358636E+02 -0.14702688094E+02  0.54367080864E+02  0.39999992445E+02 0.  0.
         12    1    3    3    0    0 -0.31337510755E+01  0.33612358636E+02  0.14702688094E+02  0.36820919136E+02  0.00000000000E+00 0. -1.
         11    1    4    4    0    0  0.95252810531E+01  0.14085437049E+00 -0.55604198319E+01  0.11030371166E+02  0.51100000000E-03 0. -1.
        -11    1    4    4    0    0 -0.84172938738E+00 -0.16947427917E+02 -0.16957836487E+02  0.23989415165E+02  0.51100000000E-03 0.  1.
        -12    1    4    4    0    0 -0.55498005902E+01 -0.16805785089E+02  0.78155682249E+01  0.19347294533E+02  0.00000000000E+00 0.  1.
</event>
<event>
 8    1  0.2401501E-006  0.9118800E+02  0.7816164E-02  0.1184000E+00
        -11   -1    0    0    0    0  0.00000000000E+00  0.00000000000E+00  0.45593999997E+02  0.45594000000E+02  0.51100000000E-03 0.  1.
         11   -1    0    0    0    0 -0.00000000000E+00 -0.00000000000E+00 -0.45593999997E+02  0.45594000000E+02  0.51100000000E-03 0. -1.
         23    2    1    2    0    0  0.00000000000E+00 -0.17763568394E-14  0.71054273576E-14  0.91188000000E+02  0.91188000000E+02 0.  0.
    9900012    2    3    3    0    0  0.71820927528E+01  0.13222145244E+02 -0.33606133811E+02  0.54367084601E+02  0.40000000964E+02 0.  0.
        -12    1    3    3    0    0 -0.71820927528E+01 -0.13222145244E+02  0.33606133811E+02  0.36820915399E+02  0.00000000000E+00 0.  1.
         11    1    4    4    0    0 -0.21595734238E+01  0.11221162129E+02 -0.46149543702E+01  0.12323799779E+02  0.51100000000E-03 0. -1.
        -11    1    4    4    0    0  0.19601759485E+02  0.62664037730E-01 -0.15536664706E+02  0.25012413961E+02  0.51100000000E-03 0.  1.
         12    1    4    4    0    0 -0.10260093309E+02  0.19383190776E+01 -0.13454514735E+02  0.17030870861E+02  0.00000000000E+00 0. -1.
</event>
<event>
 8    1  0.2401501E-006  0.9118800E+02  0.7816164E-02  0.1184000E+00
        -11   -1    0    0    0    0  0.00000000000E+00  0.00000000000E+00  0.45593999997E+02  0.45594000000E+02  0.51100000000E-03 0.  1.
         11   -1    0    0    0    0 -0.00000000000E+00 -0.00000000000E+00 -0.45593999997E+02  0.45594000000E+02  0.51100000000E-03 0. -1.
         23    2    1    2    0    0  0.44408920985E-15  0.71054273576E-14  0.55511151231E-16  0.91188000000E+02  0.91188000000E+02 0.  0.
    9900012    2    3    3    0    0  0.31508661517E+01  0.36684485011E+02  0.31420418614E+00  0.54367107530E+02  0.40000053236E+02 0.  0.
         12    1    3    3    0    0 -0.31508661517E+01 -0.36684485011E+02 -0.31420418614E+00  0.36820892470E+02  0.00000000000E+00 0. -1.
         11    1    4    4    0    0 -0.62423199921E+01  0.25231376884E+01 -0.61040448474E+01  0.90880221412E+01  0.51100000000E-03 0. -1.
        -11    1    4    4    0    0  0.12939658176E+00  0.28243335789E+02 -0.58111671178E+01  0.28835263541E+02  0.51100000000E-03 0.  1.
         12    1    4    4    0    0  0.92637895620E+01  0.59180115339E+01  0.12229416151E+02  0.16443821848E+02  0.00000000000E+00 0. -1.
</event>
<event>
 8    1  0.2401501E-006  0.9118800E+02  0.7816164E-02  0.1184000E+00
        -11   -1    0    0    0    0  0.00000000000E+00  0.00000000000E+00  0.45593999997E+02  0.45594000000E+02  0.51100000000E-03 0.  1.
         11   -1    0    0    0    0 -0.00000000000E+00 -0.00000000000E+00 -0.45593999997E+02  0.45594000000E+02  0.51100000000E-03 0. -1.
         23    2    1    2    0    0  0.35527136788E-14  0.00000000000E+00 -0.17763568394E-14  0.91188000000E+02  0.91188000000E+02 0.  0.
    9900012    2    3    3    0    0  0.26965697705E+02 -0.24865340657E+02 -0.32160142712E+01  0.54367125941E+02  0.40000095207E+02 0.  0.
         12    1    3    3    0    0 -0.26965697705E+02  0.24865340657E+02  0.32160142712E+01  0.36820874059E+02  0.00000000000E+00 0. -1.
         11    1    4    4    0    0 -0.37604858612E+01 -0.59957694011E+01  0.42995063903E+01  0.82810784373E+01  0.51100000000E-03 0. -1.
        -11    1    4    4    0    0  0.25932824601E+02 -0.18070152591E+02 -0.16660756585E+02  0.35729856096E+02  0.51100000000E-03 0.  1.
         12    1    4    4    0    0  0.47933589649E+01 -0.79941866515E+00  0.91452359231E+01  0.10356191407E+02  0.00000000000E+00 0. -1.
</event>
<event>
 8    1  0.2401501E-006  0.9118800E+02  0.7816164E-02  0.1184000E+00
        -11   -1    0    0    0    0  0.00000000000E+00  0.00000000000E+00  0.45593999997E+02  0.45594000000E+02  0.51100000000E-03 0.  1.
         11   -1    0    0    0    0 -0.00000000000E+00 -0.00000000000E+00 -0.45593999997E+02  0.45594000000E+02  0.51100000000E-03 0. -1.
         23    2    1    2    0    0  0.00000000000E+00  0.00000000000E+00  0.00000000000E+00  0.91188000000E+02  0.91188000000E+02 0.  0.
    9900012    2    3    3    0    0  0.43089135923E+01  0.19186297994E+02 -0.31130345230E+02  0.54367093422E+02  0.40000021074E+02 0.  0.
        -12    1    3    3    0    0 -0.43089135923E+01 -0.19186297994E+02  0.31130345230E+02  0.36820906578E+02  0.00000000000E+00 0.  1.
         11    1    4    4    0    0  0.28020429954E+01  0.10508715811E+02 -0.17619193756E+02  0.20705567894E+02  0.51100000000E-03 0. -1.
        -11    1    4    4    0    0 -0.10915224124E+02  0.31826115533E+01  0.34966708728E+01  0.11895286522E+02  0.51100000000E-03 0.  1.
         12    1    4    4    0    0  0.12422094721E+02  0.54949706300E+01 -0.17007822347E+02  0.21766239006E+02  0.00000000000E+00 0. -1.
</event>
<event>
 8    1  0.2401501E-006  0.9118800E+02  0.7816164E-02  0.1184000E+00
        -11   -1    0    0    0    0  0.00000000000E+00  0.00000000000E+00  0.45593999997E+02  0.45594000000E+02  0.51100000000E-03 0.  1.
         11   -1    0    0    0    0 -0.00000000000E+00 -0.00000000000E+00 -0.45593999997E+02  0.45594000000E+02  0.51100000000E-03 0. -1.
         23    2    1    2    0    0  0.71054273576E-14  0.17763568394E-14  0.88817841970E-15  0.91188000000E+02  0.91188000000E+02 0.  0.
    9900012    2    3    3    0    0 -0.35206417622E+02 -0.77465217813E+01 -0.75019301418E+01  0.54367090216E+02  0.40000013766E+02 0.  0.
        -12    1    3    3    0    0  0.35206417622E+02  0.77465217813E+01  0.75019301418E+01  0.36820909784E+02  0.00000000000E+00 0.  1.
         11    1    4    4    0    0 -0.24354458278E+02 -0.60152605194E+01 -0.14670513006E+02  0.29061089952E+02  0.51100000000E-03 0. -1.
        -11    1    4    4    0    0 -0.83819436516E+01 -0.62864030956E+01 -0.53449901942E+01  0.11762005088E+02  0.51100000000E-03 0.  1.
        -12    1    4    4    0    0 -0.24700156923E+01  0.45551418337E+01  0.12513573058E+02  0.13543995176E+02  0.00000000000E+00 0.  1.
</event>
<event>
 8    1  0.2401501E-006  0.9118800E+02  0.7816164E-02  0.1184000E+00
        -11   -1    0    0    0    0  0.00000000000E+00  0.00000000000E+00  0.45593999997E+02  0.45594000000E+02  0.51100000000E-03 0.  1.
         11   -1    0    0    0    0 -0.00000000000E+00 -0.00000000000E+00 -0.45593999997E+02  0.45594000000E+02  0.51100000000E-03 0. -1.
         23    2    1    2    0    0  0.17763568394E-14 -0.35527136788E-14 -0.35527136788E-14  0.91188000000E+02  0.91188000000E+02 0.  0.
    9900012    2    3    3    0    0 -0.13854477195E+02  0.18750923624E+02  0.28499422352E+02  0.54367343441E+02  0.40000591037E+02 0.  0.
         12    1    3    3    0    0  0.13854477195E+02 -0.18750923624E+02 -0.28499422352E+02  0.36820656559E+02  0.00000000000E+00 0. -1.
         11    1    4    4    0    0  0.42510120837E+01  0.31286181695E+01 -0.18169330968E+01  0.55821681743E+01  0.51100000000E-03 0. -1.
        -11    1    4    4    0    0 -0.92142523021E+01 -0.84384913668E+01  0.11398326188E+02  0.16912493080E+02  0.51100000000E-03 0.  1.
        -12    1    4    4    0    0 -0.88912369768E+01  0.24060796821E+02  0.18918029260E+02  0.31872682186E+02  0.00000000000E+00 0.  1.
</event>
<event>
 8    1  0.2401501E-006  0.9118800E+02  0.7816164E-02  0.1184000E+00
        -11   -1    0    0    0    0  0.00000000000E+00  0.00000000000E+00  0.45593999997E+02  0.45594000000E+02  0.51100000000E-03 0.  1.
         11   -1    0    0    0    0 -0.00000000000E+00 -0.00000000000E+00 -0.45593999997E+02  0.45594000000E+02  0.51100000000E-03 0. -1.
         23    2    1    2    0    0  0.00000000000E+00 -0.35527136788E-14  0.00000000000E+00  0.91188000000E+02  0.91188000000E+02 0.  0.
    9900012    2    3    3    0    0 -0.22690344689E+02  0.27342960866E+02 -0.96586389725E+01  0.54367101615E+02  0.40000039753E+02 0.  0.
         12    1    3    3    0    0  0.22690344689E+02 -0.27342960866E+02  0.96586389725E+01  0.36820898385E+02  0.00000000000E+00 0. -1.
         11    1    4    4    0    0  0.56930429419E+01  0.59059091132E+01 -0.10212549533E+01  0.82664056477E+01  0.51100000000E-03 0. -1.
        -11    1    4    4    0    0 -0.21270217778E+02  0.27499216157E+02 -0.10993867482E+02  0.36462229445E+02  0.51100000000E-03 0.  1.
         12    1    4    4    0    0 -0.71131698524E+01 -0.60621644039E+01  0.23564834628E+01  0.96384665232E+01  0.00000000000E+00 0. -1.
</event>
<event>
 8    1  0.2401501E-006  0.9118800E+02  0.7816164E-02  0.1184000E+00
        -11   -1    0    0    0    0  0.00000000000E+00  0.00000000000E+00  0.45593999997E+02  0.45594000000E+02  0.51100000000E-03 0.  1.
         11   -1    0    0    0    0 -0.00000000000E+00 -0.00000000000E+00 -0.45593999997E+02  0.45594000000E+02  0.51100000000E-03 0. -1.
         23    2    1    2    0    0  0.00000000000E+00  0.00000000000E+00  0.00000000000E+00  0.91188000000E+02  0.91188000000E+02 0.  0.
    9900012    2    3    3    0    0 -0.66220108776E+01  0.56143394118E+01 -0.35782781734E+02  0.54367091487E+02  0.40000016663E+02 0.  0.
        -12    1    3    3    0    0  0.66220108776E+01 -0.56143394118E+01  0.35782781734E+02  0.36820908513E+02  0.00000000000E+00 0.  1.
         11    1    4    4    0    0 -0.77792360542E+01  0.40471251330E+01 -0.24995373489E+02  0.26488949235E+02  0.51100000000E-03 0. -1.
        -11    1    4    4    0    0  0.48654831723E+01 -0.75879130139E+01  0.41874111564E+01  0.99390021059E+01  0.51100000000E-03 0.  1.
        -12    1    4    4    0    0 -0.37082579957E+01  0.91551272927E+01 -0.14974819401E+02  0.17939140147E+02  0.00000000000E+00 0.  1.
</event>
<event>
 8    1  0.2401501E-006  0.9118800E+02  0.7816164E-02  0.1184000E+00
        -11   -1    0    0    0    0  0.00000000000E+00  0.00000000000E+00  0.45593999997E+02  0.45594000000E+02  0.51100000000E-03 0. -1.
         11   -1    0    0    0    0 -0.00000000000E+00 -0.00000000000E+00 -0.45593999997E+02  0.45594000000E+02  0.51100000000E-03 0.  1.
         23    2    1    2    0    0  0.00000000000E+00  0.35527136788E-14  0.44408920985E-15  0.91188000000E+02  0.91188000000E+02 0.  0.
    9900012    2    3    3    0    0  0.23030408491E+02  0.28728147896E+02  0.27098940816E+00  0.54367087029E+02  0.40000006500E+02 0.  0.
        -12    1    3    3    0    0 -0.23030408491E+02 -0.28728147896E+02 -0.27098940816E+00  0.36820912971E+02  0.00000000000E+00 0.  1.
         11    1    4    4    0    0  0.64434011669E+01  0.10792965788E+02  0.27200023585E-01  0.12570054463E+02  0.51100000000E-03 0. -1.
        -11    1    4    4    0    0  0.23741057615E+02  0.21979898429E+02  0.42898741017E+01  0.32636739599E+02  0.51100000000E-03 0.  1.
        -12    1    4    4    0    0 -0.71540502906E+01 -0.40447163219E+01 -0.40460847171E+01  0.91602929660E+01  0.00000000000E+00 0.  1.
</event>
<event>
 8    1  0.2401501E-006  0.9118800E+02  0.7816164E-02  0.1184000E+00
        -11   -1    0    0    0    0  0.00000000000E+00  0.00000000000E+00  0.45593999997E+02  0.45594000000E+02  0.51100000000E-03 0.  1.
         11   -1    0    0    0    0 -0.00000000000E+00 -0.00000000000E+00 -0.45593999997E+02  0.45594000000E+02  0.51100000000E-03 0. -1.
         23    2    1    2    0    0  0.71054273576E-14  0.00000000000E+00 -0.17763568394E-14  0.91188000000E+02  0.91188000000E+02 0.  0.
    9900012    2    3    3    0    0  0.33883101546E+02  0.11104414356E+02  0.91873805629E+01  0.54367074561E+02  0.39999978077E+02 0.  0.
         12    1    3    3    0    0 -0.33883101546E+02 -0.11104414356E+02 -0.91873805629E+01  0.36820925439E+02  0.00000000000E+00 0. -1.
         11    1    4    4    0    0 -0.66172654382E+00  0.44500520516E+00 -0.65506145952E+01  0.65989744269E+01  0.51100000000E-03 0. -1.
        -11    1    4    4    0    0  0.78683740432E+01 -0.35692848950E+01 -0.60099990695E+01  0.10524789491E+02  0.51100000000E-03 0.  1.
         12    1    4    4    0    0  0.26676454047E+02  0.14228694045E+02  0.21747994228E+02  0.37243310643E+02  0.00000000000E+00 0. -1.
</event>
<event>
 8    1  0.2401501E-006  0.9118800E+02  0.7816164E-02  0.1184000E+00
        -11   -1    0    0    0    0  0.00000000000E+00  0.00000000000E+00  0.45593999997E+02  0.45594000000E+02  0.51100000000E-03 0. -1.
         11   -1    0    0    0    0 -0.00000000000E+00 -0.00000000000E+00 -0.45593999997E+02  0.45594000000E+02  0.51100000000E-03 0.  1.
         23    2    1    2    0    0  0.00000000000E+00 -0.44408920985E-15  0.00000000000E+00  0.91188000000E+02  0.91188000000E+02 0.  0.
    9900012    2    3    3    0    0 -0.12471539886E+02  0.21431598018E+01 -0.34578148783E+02  0.54367070974E+02  0.39999969899E+02 0.  0.
         12    1    3    3    0    0  0.12471539886E+02 -0.21431598018E+01  0.34578148783E+02  0.36820929026E+02  0.00000000000E+00 0. -1.
         11    1    4    4    0    0  0.25358353929E+01 -0.71178808225E+01 -0.46174572150E+01  0.88552583213E+01  0.51100000000E-03 0. -1.
        -11    1    4    4    0    0 -0.15389742602E+02  0.74094987685E+01 -0.35642439098E+02  0.39523768981E+02  0.51100000000E-03 0.  1.
        -12    1    4    4    0    0  0.38236732308E+00  0.18515418559E+01  0.56817475300E+01  0.59880436712E+01  0.00000000000E+00 0.  1.
</event>
<event>
 8    1  0.2401501E-006  0.9118800E+02  0.7816164E-02  0.1184000E+00
        -11   -1    0    0    0    0  0.00000000000E+00  0.00000000000E+00  0.45593999997E+02  0.45594000000E+02  0.51100000000E-03 0.  1.
         11   -1    0    0    0    0 -0.00000000000E+00 -0.00000000000E+00 -0.45593999997E+02  0.45594000000E+02  0.51100000000E-03 0. -1.
         23    2    1    2    0    0 -0.35527136788E-14  0.35527136788E-14 -0.35527136788E-14  0.91188000000E+02  0.91188000000E+02 0.  0.
    9900012    2    3    3    0    0 -0.27568651905E+02  0.17960370891E+02 -0.16527975224E+02  0.54367089427E+02  0.40000011966E+02 0.  0.
        -12    1    3    3    0    0  0.27568651905E+02 -0.17960370891E+02  0.16527975224E+02  0.36820910573E+02  0.00000000000E+00 0.  1.
         11    1    4    4    0    0 -0.44380357441E+01 -0.11700805302E+01 -0.90297942922E+01  0.10129286003E+02  0.51100000000E-03 0. -1.
        -11    1    4    4    0    0  0.80979392626E+00 -0.75260933570E+01  0.27822683502E+00  0.75746457247E+01  0.51100000000E-03 0.  1.
         12    1    4    4    0    0 -0.23940410088E+02  0.26656544778E+02 -0.77764077673E+01  0.36663157699E+02  0.00000000000E+00 0. -1.
</event>
<event>
 8    1  0.2401501E-006  0.9118800E+02  0.7816164E-02  0.1184000E+00
        -11   -1    0    0    0    0  0.00000000000E+00  0.00000000000E+00  0.45593999997E+02  0.45594000000E+02  0.51100000000E-03 0.  1.
         11   -1    0    0    0    0 -0.00000000000E+00 -0.00000000000E+00 -0.45593999997E+02  0.45594000000E+02  0.51100000000E-03 0. -1.
         23    2    1    2    0    0 -0.17763568394E-14  0.00000000000E+00 -0.71054273576E-14  0.91188000000E+02  0.91188000000E+02 0.  0.
    9900012    2    3    3    0    0 -0.94846504428E+01  0.14609065096E+02  0.32440677441E+02  0.54367069406E+02  0.39999966324E+02 0.  0.
         12    1    3    3    0    0  0.94846504428E+01 -0.14609065096E+02 -0.32440677441E+02  0.36820930594E+02  0.00000000000E+00 0. -1.
         11    1    4    4    0    0 -0.12861078151E+01 -0.56494062142E+01 -0.28815768510E+01  0.64709620069E+01  0.51100000000E-03 0. -1.
        -11    1    4    4    0    0  0.31785920968E+01  0.18890093680E+01  0.22434580897E+02  0.22737243114E+02  0.51100000000E-03 0.  1.
        -12    1    4    4    0    0 -0.11377134724E+02  0.18369461943E+02  0.12887673395E+02  0.25158864285E+02  0.00000000000E+00 0.  1.
</event>
<event>
 8    1  0.2401501E-006  0.9118800E+02  0.7816164E-02  0.1184000E+00
        -11   -1    0    0    0    0  0.00000000000E+00  0.00000000000E+00  0.45593999997E+02  0.45594000000E+02  0.51100000000E-03 0. -1.
         11   -1    0    0    0    0 -0.00000000000E+00 -0.00000000000E+00 -0.45593999997E+02  0.45594000000E+02  0.51100000000E-03 0.  1.
         23    2    1    2    0    0  0.00000000000E+00  0.00000000000E+00  0.17763568394E-14  0.91188000000E+02  0.91188000000E+02 0.  0.
    9900012    2    3    3    0    0 -0.16169960718E+02 -0.30867029268E+02  0.11896965893E+02  0.54367096658E+02  0.40000028451E+02 0.  0.
        -12    1    3    3    0    0  0.16169960718E+02  0.30867029268E+02 -0.11896965893E+02  0.36820903342E+02  0.00000000000E+00 0.  1.
         11    1    4    4    0    0  0.78449803662E+01 -0.96557193176E+01 -0.50326645878E+01  0.13420296033E+02  0.51100000000E-03 0. -1.
        -11    1    4    4    0    0 -0.14238101236E+02 -0.12858886215E+02 -0.61422938130E+00  0.19195097277E+02  0.51100000000E-03 0.  1.
         12    1    4    4    0    0 -0.97768398482E+01 -0.83524237360E+01  0.17543859862E+02  0.21751703348E+02  0.00000000000E+00 0. -1.
</event>
<event>
 8    1  0.2401501E-006  0.9118800E+02  0.7816164E-02  0.1184000E+00
        -11   -1    0    0    0    0  0.00000000000E+00  0.00000000000E+00  0.45593999997E+02  0.45594000000E+02  0.51100000000E-03 0.  1.
         11   -1    0    0    0    0 -0.00000000000E+00 -0.00000000000E+00 -0.45593999997E+02  0.45594000000E+02  0.51100000000E-03 0. -1.
         23    2    1    2    0    0  0.00000000000E+00 -0.35527136788E-14  0.00000000000E+00  0.91188000000E+02  0.91188000000E+02 0.  0.
    9900012    2    3    3    0    0  0.22670778388E+02  0.16404336397E+02  0.23931476671E+02  0.54367054589E+02  0.39999932546E+02 0.  0.
         12    1    3    3    0    0 -0.22670778388E+02 -0.16404336397E+02 -0.23931476671E+02  0.36820945411E+02  0.00000000000E+00 0. -1.
         11    1    4    4    0    0 -0.11382431755E+01  0.13505112651E+02  0.13819656652E+02  0.19356305833E+02  0.51100000000E-03 0. -1.
        -11    1    4    4    0    0  0.12932726444E+02 -0.76354324460E+01  0.12676638569E+02  0.19653305258E+02  0.51100000000E-03 0.  1.
        -12    1    4    4    0    0  0.10876295119E+02  0.10534656192E+02 -0.25648185498E+01  0.15357443498E+02  0.00000000000E+00 0.  1.
</event>
<event>
 8    1  0.2401501E-006  0.9118800E+02  0.7816164E-02  0.1184000E+00
        -11   -1    0    0    0    0  0.00000000000E+00  0.00000000000E+00  0.45593999997E+02  0.45594000000E+02  0.51100000000E-03 0. -1.
         11   -1    0    0    0    0 -0.00000000000E+00 -0.00000000000E+00 -0.45593999997E+02  0.45594000000E+02  0.51100000000E-03 0.  1.
         23    2    1    2    0    0  0.00000000000E+00  0.17763568394E-14  0.35527136788E-14  0.91188000000E+02  0.91188000000E+02 0.  0.
    9900012    2    3    3    0    0  0.20361517937E+02 -0.10239681720E+02 -0.28919505306E+02  0.54367078209E+02  0.39999986392E+02 0.  0.
         12    1    3    3    0    0 -0.20361517937E+02  0.10239681720E+02  0.28919505306E+02  0.36820921791E+02  0.00000000000E+00 0. -1.
         11    1    4    4    0    0  0.20434576160E+01 -0.30898240302E+01  0.55763167053E+01  0.66946276838E+01  0.51100000000E-03 0. -1.
        -11    1    4    4    0    0  0.21875667174E+02  0.29436390135E+01 -0.21202453703E+02  0.30606435079E+02  0.51100000000E-03 0.  1.
        -12    1    4    4    0    0 -0.35576068531E+01 -0.10093496703E+02 -0.13293368308E+02  0.17066015446E+02  0.00000000000E+00 0.  1.
</event>
<event>
 8    1  0.2401501E-006  0.9118800E+02  0.7816164E-02  0.1184000E+00
        -11   -1    0    0    0    0  0.00000000000E+00  0.00000000000E+00  0.45593999997E+02  0.45594000000E+02  0.51100000000E-03 0. -1.
         11   -1    0    0    0    0 -0.00000000000E+00 -0.00000000000E+00 -0.45593999997E+02  0.45594000000E+02  0.51100000000E-03 0.  1.
         23    2    1    2    0    0 -0.44408920985E-15  0.35527136788E-14 -0.35527136788E-14  0.91188000000E+02  0.91188000000E+02 0.  0.
    9900012    2    3    3    0    0 -0.14340760938E+01 -0.26989024279E+02  0.25006324247E+02  0.54367078527E+02  0.39999987117E+02 0.  0.
        -12    1    3    3    0    0  0.14340760938E+01  0.26989024279E+02 -0.25006324247E+02  0.36820921473E+02  0.00000000000E+00 0.  1.
         11    1    4    4    0    0  0.73395561378E+01 -0.27041953355E+02  0.94179402226E+01  0.29560682060E+02  0.51100000000E-03 0. -1.
        -11    1    4    4    0    0  0.10930077593E+01  0.70201840752E+01  0.70933226364E+01  0.10039565563E+02  0.51100000000E-03 0.  1.
         12    1    4    4    0    0 -0.98666399909E+01 -0.69672549992E+01  0.84950613880E+01  0.14766830903E+02  0.00000000000E+00 0. -1.
</event>
<event>
 8    1  0.2401501E-006  0.9118800E+02  0.7816164E-02  0.1184000E+00
        -11   -1    0    0    0    0  0.00000000000E+00  0.00000000000E+00  0.45593999997E+02  0.45594000000E+02  0.51100000000E-03 0.  1.
         11   -1    0    0    0    0 -0.00000000000E+00 -0.00000000000E+00 -0.45593999997E+02  0.45594000000E+02  0.51100000000E-03 0. -1.
         23    2    1    2    0    0  0.35527136788E-14  0.17763568394E-14 -0.35527136788E-14  0.91188000000E+02  0.91188000000E+02 0.  0.
    9900012    2    3    3    0    0 -0.21975032928E+02 -0.39294526562E+01  0.29282029186E+02  0.54367083341E+02  0.39999998093E+02 0.  0.
         12    1    3    3    0    0  0.21975032928E+02  0.39294526562E+01 -0.29282029186E+02  0.36820916659E+02  0.00000000000E+00 0. -1.
         11    1    4    4    0    0 -0.23880301411E+02 -0.13108249188E+02  0.11370588789E+02  0.29519235795E+02  0.51100000000E-03 0. -1.
        -11    1    4    4    0    0  0.51280422781E+01  0.11606576474E+02  0.15890517400E+02  0.20335141469E+02  0.51100000000E-03 0.  1.
        -12    1    4    4    0    0 -0.32227737948E+01 -0.24277799430E+01  0.20209229973E+01  0.45127060778E+01  0.00000000000E+00 0.  1.
</event>
<event>
 8    1  0.2401501E-006  0.9118800E+02  0.7816164E-02  0.1184000E+00
        -11   -1    0    0    0    0  0.00000000000E+00  0.00000000000E+00  0.45593999997E+02  0.45594000000E+02  0.51100000000E-03 0.  1.
         11   -1    0    0    0    0 -0.00000000000E+00 -0.00000000000E+00 -0.45593999997E+02  0.45594000000E+02  0.51100000000E-03 0. -1.
         23    2    1    2    0    0  0.44408920985E-15  0.00000000000E+00  0.00000000000E+00  0.91188000000E+02  0.91188000000E+02 0.  0.
    9900012    2    3    3    0    0 -0.28409149335E+01  0.32663537685E+02  0.16757144475E+02  0.54367090415E+02  0.40000014218E+02 0.  0.
         12    1    3    3    0    0  0.28409149335E+01 -0.32663537685E+02 -0.16757144475E+02  0.36820909585E+02  0.00000000000E+00 0. -1.
         11    1    4    4    0    0 -0.26831769860E+01  0.32282601981E+01 -0.30583569835E+01  0.51937125781E+01  0.51100000000E-03 0. -1.
        -11    1    4    4    0    0  0.13726274964E+02  0.21979386185E+01  0.27828231754E+01  0.14176941266E+02  0.51100000000E-03 0.  1.
        -12    1    4    4    0    0 -0.13884012912E+02  0.27237338868E+02  0.17032678283E+02  0.34996436571E+02  0.00000000000E+00 0.  1.
</event>
<event>
 8    1  0.2401501E-006  0.9118800E+02  0.7816164E-02  0.1184000E+00
        -11   -1    0    0    0    0  0.00000000000E+00  0.00000000000E+00  0.45593999997E+02  0.45594000000E+02  0.51100000000E-03 0. -1.
         11   -1    0    0    0    0 -0.00000000000E+00 -0.00000000000E+00 -0.45593999997E+02  0.45594000000E+02  0.51100000000E-03 0.  1.
         23    2    1    2    0    0  0.00000000000E+00  0.00000000000E+00 -0.17763568394E-14  0.91188000000E+02  0.91188000000E+02 0.  0.
    9900012    2    3    3    0    0  0.35543588903E+02 -0.71093650995E+01  0.64722772117E+01  0.54367079906E+02  0.39999990263E+02 0.  0.
        -12    1    3    3    0    0 -0.35543588903E+02  0.71093650995E+01 -0.64722772117E+01  0.36820920094E+02  0.00000000000E+00 0.  1.
         11    1    4    4    0    0  0.21657744231E+02 -0.11774671076E+01  0.20940054330E+02  0.30148469109E+02  0.51100000000E-03 0. -1.
        -11    1    4    4    0    0  0.46400042001E+01 -0.61198816516E+01 -0.80738955285E+00  0.77223356932E+01  0.51100000000E-03 0.  1.
        -12    1    4    4    0    0  0.92458404718E+01  0.18798365976E+00 -0.13660387566E+02  0.16496275105E+02  0.00000000000E+00 0.  1.
</event>
<event>
 8    1  0.2401501E-006  0.9118800E+02  0.7816164E-02  0.1184000E+00
        -11   -1    0    0    0    0  0.00000000000E+00  0.00000000000E+00  0.45593999997E+02  0.45594000000E+02  0.51100000000E-03 0. -1.
         11   -1    0    0    0    0 -0.00000000000E+00 -0.00000000000E+00 -0.45593999997E+02  0.45594000000E+02  0.51100000000E-03 0.  1.
         23    2    1    2    0    0  0.35527136788E-14  0.00000000000E+00  0.35527136788E-14  0.91188000000E+02  0.91188000000E+02 0.  0.
    9900012    2    3    3    0    0  0.24274417740E+02 -0.16483040979E+02  0.22245033767E+02  0.54367088498E+02  0.40000009849E+02 0.  0.
        -12    1    3    3    0    0 -0.24274417740E+02  0.16483040979E+02 -0.22245033767E+02  0.36820911502E+02  0.00000000000E+00 0.  1.
         11    1    4    4    0    0  0.24293949605E+02 -0.17284796679E+02  0.59455308521E+01  0.30402459128E+02  0.51100000000E-03 0. -1.
        -11    1    4    4    0    0  0.16240008766E+01 -0.68262040386E+01  0.14270318509E+02  0.15902088889E+02  0.51100000000E-03 0.  1.
        -12    1    4    4    0    0 -0.16435327414E+01  0.76279597390E+01  0.20291844057E+01  0.80625404807E+01  0.00000000000E+00 0.  1.
</event>
<event>
 8    1  0.2401501E-006  0.9118800E+02  0.7816164E-02  0.1184000E+00
        -11   -1    0    0    0    0  0.00000000000E+00  0.00000000000E+00  0.45593999997E+02  0.45594000000E+02  0.51100000000E-03 0. -1.
         11   -1    0    0    0    0 -0.00000000000E+00 -0.00000000000E+00 -0.45593999997E+02  0.45594000000E+02  0.51100000000E-03 0.  1.
         23    2    1    2    0    0  0.00000000000E+00  0.00000000000E+00  0.17763568394E-14  0.91188000000E+02  0.91188000000E+02 0.  0.
    9900012    2    3    3    0    0 -0.16031099905E+02 -0.29184342723E+02 -0.15718047100E+02  0.54367095218E+02  0.40000025169E+02 0.  0.
         12    1    3    3    0    0  0.16031099905E+02  0.29184342723E+02  0.15718047100E+02  0.36820904782E+02  0.00000000000E+00 0. -1.
         11    1    4    4    0    0 -0.25995576188E+02 -0.21223448828E+02 -0.12689107061E+01  0.33582955441E+02  0.51100000000E-03 0. -1.
        -11    1    4    4    0    0  0.14285374109E+00 -0.43699849927E+01 -0.54541747785E+01  0.69903647118E+01  0.51100000000E-03 0.  1.
         12    1    4    4    0    0  0.98216225419E+01 -0.35909089018E+01 -0.89949616154E+01  0.13793775066E+02  0.00000000000E+00 0. -1.
</event>
<event>
 8    1  0.2401501E-006  0.9118800E+02  0.7816164E-02  0.1184000E+00
        -11   -1    0    0    0    0  0.00000000000E+00  0.00000000000E+00  0.45593999997E+02  0.45594000000E+02  0.51100000000E-03 0.  1.
         11   -1    0    0    0    0 -0.00000000000E+00 -0.00000000000E+00 -0.45593999997E+02  0.45594000000E+02  0.51100000000E-03 0. -1.
         23    2    1    2    0    0  0.00000000000E+00  0.00000000000E+00  0.00000000000E+00  0.91188000000E+02  0.91188000000E+02 0.  0.
    9900012    2    3    3    0    0 -0.29343077446E+02 -0.20133613327E+02  0.94552534613E+01  0.54367076633E+02  0.39999982800E+02 0.  0.
        -12    1    3    3    0    0  0.29343077446E+02  0.20133613327E+02 -0.94552534613E+01  0.36820923367E+02  0.00000000000E+00 0.  1.
         11    1    4    4    0    0  0.12653019344E+01  0.19726314852E+01  0.65443859020E+01  0.69513488660E+01  0.51100000000E-03 0. -1.
        -11    1    4    4    0    0 -0.94381708837E+01 -0.92933156210E+00  0.12755657235E+02  0.15894952612E+02  0.51100000000E-03 0.  1.
         12    1    4    4    0    0 -0.21170208497E+02 -0.21176913250E+02 -0.98447896755E+01  0.31520775155E+02  0.00000000000E+00 0. -1.
</event>
<event>
 8    1  0.2401501E-006  0.9118800E+02  0.7816164E-02  0.1184000E+00
        -11   -1    0    0    0    0  0.00000000000E+00  0.00000000000E+00  0.45593999997E+02  0.45594000000E+02  0.51100000000E-03 0.  1.
         11   -1    0    0    0    0 -0.00000000000E+00 -0.00000000000E+00 -0.45593999997E+02  0.45594000000E+02  0.51100000000E-03 0. -1.
         23    2    1    2    0    0  0.88817841970E-15 -0.71054273576E-14 -0.17763568394E-14  0.91188000000E+02  0.91188000000E+02 0.  0.
    9900012    2    3    3    0    0 -0.74607188452E+01  0.33795704782E+02  0.12568514907E+02  0.54367088084E+02  0.40000008905E+02 0.  0.
         12    1    3    3    0    0  0.74607188452E+01 -0.33795704782E+02 -0.12568514907E+02  0.36820911916E+02  0.00000000000E+00 0. -1.
         11    1    4    4    0    0  0.24738369922E+01  0.21908274501E+01 -0.32604856216E+01  0.46422366517E+01  0.51100000000E-03 0. -1.
        -11    1    4    4    0    0 -0.15251954385E+02  0.89136332568E+01 -0.51145942532E+01  0.18391140395E+02  0.51100000000E-03 0.  1.
        -12    1    4    4    0    0  0.53173985475E+01  0.22691244075E+02  0.20943594782E+02  0.31333711037E+02  0.00000000000E+00 0.  1.
</event>
<event>
 8    1  0.2401501E-006  0.9118800E+02  0.7816164E-02  0.1184000E+00
        -11   -1    0    0    0    0  0.00000000000E+00  0.00000000000E+00  0.45593999997E+02  0.45594000000E+02  0.51100000000E-03 0. -1.
         11   -1    0    0    0    0 -0.00000000000E+00 -0.00000000000E+00 -0.45593999997E+02  0.45594000000E+02  0.51100000000E-03 0.  1.
         23    2    1    2    0    0  0.00000000000E+00  0.00000000000E+00  0.00000000000E+00  0.91188000000E+02  0.91188000000E+02 0.  0.
    9900012    2    3    3    0    0  0.27857057168E+02  0.14200396564E+02  0.19445123459E+02  0.54367085794E+02  0.40000003684E+02 0.  0.
        -12    1    3    3    0    0 -0.27857057168E+02 -0.14200396564E+02 -0.19445123459E+02  0.36820914206E+02  0.00000000000E+00 0.  1.
         11    1    4    4    0    0  0.29771212130E+02  0.58165470223E+01  0.12239967274E+02  0.32710458421E+02  0.51100000000E-03 0. -1.
        -11    1    4    4    0    0 -0.39215953816E+01  0.19828961918E+01  0.12410539118E+02  0.13165571355E+02  0.51100000000E-03 0.  1.
         12    1    4    4    0    0  0.20074404198E+01  0.64009533499E+01 -0.52053829329E+01  0.84910560182E+01  0.00000000000E+00 0. -1.
</event>
<event>
 8    1  0.2401501E-006  0.9118800E+02  0.7816164E-02  0.1184000E+00
        -11   -1    0    0    0    0  0.00000000000E+00  0.00000000000E+00  0.45593999997E+02  0.45594000000E+02  0.51100000000E-03 0. -1.
         11   -1    0    0    0    0 -0.00000000000E+00 -0.00000000000E+00 -0.45593999997E+02  0.45594000000E+02  0.51100000000E-03 0.  1.
         23    2    1    2    0    0  0.00000000000E+00  0.00000000000E+00  0.35527136788E-14  0.91188000000E+02  0.91188000000E+02 0.  0.
    9900012    2    3    3    0    0  0.13755399429E+02  0.27057506201E+02  0.20843632949E+02  0.54367126983E+02  0.40000097583E+02 0.  0.
        -12    1    3    3    0    0 -0.13755399429E+02 -0.27057506201E+02 -0.20843632949E+02  0.36820873017E+02  0.00000000000E+00 0.  1.
         11    1    4    4    0    0 -0.95131807798E+00  0.15254670479E+02  0.21590867877E+02  0.26453271130E+02  0.51100000000E-03 0. -1.
        -11    1    4    4    0    0  0.14383396766E+02  0.60814502595E+01  0.79306487535E+01  0.17514603327E+02  0.51100000000E-03 0.  1.
        -12    1    4    4    0    0  0.32332074051E+00  0.57213854620E+01 -0.86778836817E+01  0.10399252526E+02  0.00000000000E+00 0.  1.
</event>
<event>
 8    1  0.2401501E-006  0.9118800E+02  0.7816164E-02  0.1184000E+00
        -11   -1    0    0    0    0  0.00000000000E+00  0.00000000000E+00  0.45593999997E+02  0.45594000000E+02  0.51100000000E-03 0.  1.
         11   -1    0    0    0    0 -0.00000000000E+00 -0.00000000000E+00 -0.45593999997E+02  0.45594000000E+02  0.51100000000E-03 0. -1.
         23    2    1    2    0    0  0.35527136788E-14  0.00000000000E+00  0.35527136788E-14  0.91188000000E+02  0.91188000000E+02 0.  0.
    9900012    2    3    3    0    0  0.27415618093E+02  0.15549739581E+02 -0.19035915247E+02  0.54367128395E+02  0.40000100803E+02 0.  0.
        -12    1    3    3    0    0 -0.27415618093E+02 -0.15549739581E+02  0.19035915247E+02  0.36820871605E+02  0.00000000000E+00 0.  1.
         11    1    4    4    0    0  0.10198141474E+02  0.44156645102E+01  0.10749636852E+02  0.15461399527E+02  0.51100000000E-03 0. -1.
        -11    1    4    4    0    0  0.18251350619E+01  0.85750852970E+01 -0.15197070622E+02  0.17544633413E+02  0.51100000000E-03 0.  1.
         12    1    4    4    0    0  0.15392341556E+02  0.25589897739E+01 -0.14588481478E+02  0.21361095456E+02  0.00000000000E+00 0. -1.
</event>
<event>
 8    1  0.2401501E-006  0.9118800E+02  0.7816164E-02  0.1184000E+00
        -11   -1    0    0    0    0  0.00000000000E+00  0.00000000000E+00  0.45593999997E+02  0.45594000000E+02  0.51100000000E-03 0. -1.
         11   -1    0    0    0    0 -0.00000000000E+00 -0.00000000000E+00 -0.45593999997E+02  0.45594000000E+02  0.51100000000E-03 0.  1.
         23    2    1    2    0    0  0.00000000000E+00  0.35527136788E-14  0.35527136788E-14  0.91188000000E+02  0.91188000000E+02 0.  0.
    9900012    2    3    3    0    0 -0.15949686425E+02 -0.25331031742E+02 -0.21441221829E+02  0.54367086653E+02  0.40000005643E+02 0.  0.
         12    1    3    3    0    0  0.15949686425E+02  0.25331031742E+02  0.21441221829E+02  0.36820913347E+02  0.00000000000E+00 0. -1.
         11    1    4    4    0    0 -0.19959159877E+01  0.36111826866E+00 -0.71278061778E+01  0.74107832382E+01  0.51100000000E-03 0. -1.
        -11    1    4    4    0    0  0.11066618401E+02 -0.47229269544E+01 -0.29392963032E+01  0.12386102893E+02  0.51100000000E-03 0.  1.
        -12    1    4    4    0    0 -0.25020388838E+02 -0.20969223056E+02 -0.11374119348E+02  0.34570200522E+02  0.00000000000E+00 0.  1.
</event>
<event>
 8    1  0.2401501E-006  0.9118800E+02  0.7816164E-02  0.1184000E+00
        -11   -1    0    0    0    0  0.00000000000E+00  0.00000000000E+00  0.45593999997E+02  0.45594000000E+02  0.51100000000E-03 0.  1.
         11   -1    0    0    0    0 -0.00000000000E+00 -0.00000000000E+00 -0.45593999997E+02  0.45594000000E+02  0.51100000000E-03 0. -1.
         23    2    1    2    0    0  0.16653345369E-15  0.00000000000E+00  0.00000000000E+00  0.91188000000E+02  0.91188000000E+02 0.  0.
    9900012    2    3    3    0    0 -0.21022524546E+00 -0.32439588842E+02  0.17418629830E+02  0.54367084964E+02  0.40000001793E+02 0.  0.
         12    1    3    3    0    0  0.21022524546E+00  0.32439588842E+02 -0.17418629830E+02  0.36820915036E+02  0.00000000000E+00 0. -1.
         11    1    4    4    0    0  0.12318830749E+01 -0.81971367611E+01  0.13280308361E+01  0.83948944695E+01  0.51100000000E-03 0. -1.
        -11    1    4    4    0    0  0.13277892266E+02 -0.22491486914E+02  0.16928681539E+02  0.31124743622E+02  0.51100000000E-03 0.  1.
        -12    1    4    4    0    0 -0.14720000586E+02 -0.17509651676E+01 -0.83808254508E+00  0.14847446873E+02  0.00000000000E+00 0.  1.
</event>
<event>
 8    1  0.2401501E-006  0.9118800E+02  0.7816164E-02  0.1184000E+00
        -11   -1    0    0    0    0  0.00000000000E+00  0.00000000000E+00  0.45593999997E+02  0.45594000000E+02  0.51100000000E-03 0. -1.
         11   -1    0    0    0    0 -0.00000000000E+00 -0.00000000000E+00 -0.45593999997E+02  0.45594000000E+02  0.51100000000E-03 0.  1.
         23    2    1    2    0    0 -0.44408920985E-15 -0.35527136788E-14 -0.35527136788E-14  0.91188000000E+02  0.91188000000E+02 0.  0.
    9900012    2    3    3    0    0  0.23604740796E+01  0.30859800405E+02  0.19946954645E+02  0.54367080422E+02  0.39999991439E+02 0.  0.
        -12    1    3    3    0    0 -0.23604740796E+01 -0.30859800405E+02 -0.19946954645E+02  0.36820919578E+02  0.00000000000E+00 0.  1.
         11    1    4    4    0    0 -0.49171293478E+01  0.84067007376E+01  0.14931849751E+02  0.17827252048E+02  0.51100000000E-03 0. -1.
        -11    1    4    4    0    0 -0.33408574314E+01 -0.98883355027E+00  0.97672087542E+01  0.10370028316E+02  0.51100000000E-03 0.  1.
         12    1    4    4    0    0  0.10618460859E+02  0.23441933218E+02 -0.47521038606E+01  0.26169800059E+02  0.00000000000E+00 0. -1.
</event>
<event>
 8    1  0.2401501E-006  0.9118800E+02  0.7816164E-02  0.1184000E+00
        -11   -1    0    0    0    0  0.00000000000E+00  0.00000000000E+00  0.45593999997E+02  0.45594000000E+02  0.51100000000E-03 0. -1.
         11   -1    0    0    0    0 -0.00000000000E+00 -0.00000000000E+00 -0.45593999997E+02  0.45594000000E+02  0.51100000000E-03 0.  1.
         23    2    1    2    0    0  0.71054273576E-14  0.17763568394E-14 -0.35527136788E-14  0.91188000000E+02  0.91188000000E+02 0.  0.
    9900012    2    3    3    0    0 -0.25444429405E+02 -0.11802866637E+02  0.23854836003E+02  0.54367084078E+02  0.39999999773E+02 0.  0.
        -12    1    3    3    0    0  0.25444429405E+02  0.11802866637E+02 -0.23854836003E+02  0.36820915922E+02  0.00000000000E+00 0.  1.
         11    1    4    4    0    0  0.68356423973E+01  0.48878944234E+01  0.33342720837E+01  0.90407350070E+01  0.51100000000E-03 0. -1.
        -11    1    4    4    0    0 -0.29649416277E+00 -0.67940376896E+01  0.21200984894E+01  0.71233190847E+01  0.51100000000E-03 0.  1.
        -12    1    4    4    0    0 -0.31983577640E+02 -0.98967233704E+01  0.18400465430E+02  0.38203029986E+02  0.00000000000E+00 0.  1.
</event>
<event>
 8    1  0.2401501E-006  0.9118800E+02  0.7816164E-02  0.1184000E+00
        -11   -1    0    0    0    0  0.00000000000E+00  0.00000000000E+00  0.45593999997E+02  0.45594000000E+02  0.51100000000E-03 0. -1.
         11   -1    0    0    0    0 -0.00000000000E+00 -0.00000000000E+00 -0.45593999997E+02  0.45594000000E+02  0.51100000000E-03 0.  1.
         23    2    1    2    0    0  0.00000000000E+00 -0.35527136788E-14  0.00000000000E+00  0.91188000000E+02  0.91188000000E+02 0.  0.
    9900012    2    3    3    0    0 -0.18303853656E+02  0.27536330344E+02  0.16201712404E+02  0.54367135910E+02  0.40000117935E+02 0.  0.
        -12    1    3    3    0    0  0.18303853656E+02 -0.27536330344E+02 -0.16201712404E+02  0.36820864090E+02  0.00000000000E+00 0.  1.
         11    1    4    4    0    0  0.94066251404E+01  0.82051460884E+01  0.13955982117E+02  0.18723740437E+02  0.51100000000E-03 0.  1.
        -11    1    4    4    0    0 -0.27827360202E+02  0.15731501009E+02  0.21935312232E+01  0.32041436911E+02  0.51100000000E-03 0. -1.
         12    1    4    4    0    0  0.11688140585E+00  0.35996832469E+01  0.52199063731E-01  0.36019585621E+01  0.00000000000E+00 0. -1.
</event>
<event>
 8    1  0.2401501E-006  0.9118800E+02  0.7816164E-02  0.1184000E+00
        -11   -1    0    0    0    0  0.00000000000E+00  0.00000000000E+00  0.45593999997E+02  0.45594000000E+02  0.51100000000E-03 0. -1.
         11   -1    0    0    0    0 -0.00000000000E+00 -0.00000000000E+00 -0.45593999997E+02  0.45594000000E+02  0.51100000000E-03 0.  1.
         23    2    1    2    0    0 -0.88817841970E-15  0.00000000000E+00  0.00000000000E+00  0.91188000000E+02  0.91188000000E+02 0.  0.
    9900012    2    3    3    0    0 -0.70141479988E+01  0.14009177752E+02  0.33321536030E+02  0.54367080717E+02  0.39999992112E+02 0.  0.
        -12    1    3    3    0    0  0.70141479988E+01 -0.14009177752E+02 -0.33321536030E+02  0.36820919283E+02  0.00000000000E+00 0.  1.
         11    1    4    4    0    0  0.34322029940E+00  0.15416483287E+02  0.20677536810E+02  0.25794307239E+02  0.51100000000E-03 0. -1.
        -11    1    4    4    0    0 -0.14905748910E+02 -0.32677913111E+01  0.19974961251E+01  0.15389925330E+02  0.51100000000E-03 0.  1.
         12    1    4    4    0    0  0.75483806118E+01  0.18604857756E+01  0.10646503094E+02  0.13182848149E+02  0.00000000000E+00 0. -1.
</event>
<event>
 8    1  0.2401501E-006  0.9118800E+02  0.7816164E-02  0.1184000E+00
        -11   -1    0    0    0    0  0.00000000000E+00  0.00000000000E+00  0.45593999997E+02  0.45594000000E+02  0.51100000000E-03 0. -1.
         11   -1    0    0    0    0 -0.00000000000E+00 -0.00000000000E+00 -0.45593999997E+02  0.45594000000E+02  0.51100000000E-03 0.  1.
         23    2    1    2    0    0  0.61062266354E-15  0.00000000000E+00 -0.35527136788E-14  0.91188000000E+02  0.91188000000E+02 0.  0.
    9900012    2    3    3    0    0  0.44470977834E+00  0.20522343233E+02  0.30568217408E+02  0.54367078582E+02  0.39999987243E+02 0.  0.
        -12    1    3    3    0    0 -0.44470977834E+00 -0.20522343233E+02 -0.30568217408E+02  0.36820921418E+02  0.00000000000E+00 0.  1.
         11    1    4    4    0    0 -0.63435449787E+01  0.65565257614E+01  0.37339125439E+01  0.98575197744E+01  0.51100000000E-03 0. -1.
        -11    1    4    4    0    0 -0.26750884942E+01 -0.55210650965E+01 -0.36297786219E+01  0.71283624596E+01  0.51100000000E-03 0.  1.
        -12    1    4    4    0    0  0.94633432511E+01  0.19486882568E+02  0.30464083486E+02  0.37381196348E+02  0.00000000000E+00 0.  1.
</event>
<event>
 8    1  0.2401501E-006  0.9118800E+02  0.7816164E-02  0.1184000E+00
        -11   -1    0    0    0    0  0.00000000000E+00  0.00000000000E+00  0.45593999997E+02  0.45594000000E+02  0.51100000000E-03 0.  1.
         11   -1    0    0    0    0 -0.00000000000E+00 -0.00000000000E+00 -0.45593999997E+02  0.45594000000E+02  0.51100000000E-03 0. -1.
         23    2    1    2    0    0  0.00000000000E+00  0.88817841970E-15 -0.17763568394E-14  0.91188000000E+02  0.91188000000E+02 0.  0.
    9900012    2    3    3    0    0 -0.34020393994E+02 -0.30240814652E+01 -0.13756696748E+02  0.54367095861E+02  0.40000026633E+02 0.  0.
         12    1    3    3    0    0  0.34020393994E+02  0.30240814652E+01  0.13756696748E+02  0.36820904139E+02  0.00000000000E+00 0. -1.
         11    1    4    4    0    0 -0.14337863517E+01  0.61700291618E+01 -0.14368492892E+02  0.15702821129E+02  0.51100000000E-03 0. -1.
        -11    1    4    4    0    0 -0.25793838264E+02 -0.80678008195E+01 -0.74773535470E+01  0.28041439313E+02  0.51100000000E-03 0.  1.
        -12    1    4    4    0    0 -0.67927693789E+01 -0.11263098075E+01  0.80891496906E+01  0.10622835419E+02  0.00000000000E+00 0.  1.
</event>
<event>
 8    1  0.2401501E-006  0.9118800E+02  0.7816164E-02  0.1184000E+00
        -11   -1    0    0    0    0  0.00000000000E+00  0.00000000000E+00  0.45593999997E+02  0.45594000000E+02  0.51100000000E-03 0.  1.
         11   -1    0    0    0    0 -0.00000000000E+00 -0.00000000000E+00 -0.45593999997E+02  0.45594000000E+02  0.51100000000E-03 0. -1.
         23    2    1    2    0    0  0.00000000000E+00  0.35527136788E-14  0.00000000000E+00  0.91188000000E+02  0.91188000000E+02 0.  0.
    9900012    2    3    3    0    0  0.21108244282E+02  0.16284990567E+02  0.25397263027E+02  0.54367083883E+02  0.39999999328E+02 0.  0.
         12    1    3    3    0    0 -0.21108244282E+02 -0.16284990567E+02 -0.25397263027E+02  0.36820916117E+02  0.00000000000E+00 0. -1.
         11    1    4    4    0    0  0.14108968100E+02  0.48951227056E+01  0.16134830104E+02  0.21985403110E+02  0.51100000000E-03 0. -1.
        -11    1    4    4    0    0  0.79134660369E+01  0.17512602964E+02  0.14658094072E+02  0.24169690304E+02  0.51100000000E-03 0.  1.
         12    1    4    4    0    0 -0.91418985566E+00 -0.61227351025E+01 -0.53956611491E+01  0.82119904690E+01  0.00000000000E+00 0. -1.
</event>
<event>
 8    1  0.2401501E-006  0.9118800E+02  0.7816164E-02  0.1184000E+00
        -11   -1    0    0    0    0  0.00000000000E+00  0.00000000000E+00  0.45593999997E+02  0.45594000000E+02  0.51100000000E-03 0.  1.
         11   -1    0    0    0    0 -0.00000000000E+00 -0.00000000000E+00 -0.45593999997E+02  0.45594000000E+02  0.51100000000E-03 0. -1.
         23    2    1    2    0    0  0.00000000000E+00  0.35527136788E-14 -0.17763568394E-14  0.91188000000E+02  0.91188000000E+02 0.  0.
    9900012    2    3    3    0    0  0.24146882359E+02 -0.23794069790E+02 -0.14371903595E+02  0.54367064409E+02  0.39999954934E+02 0.  0.
        -12    1    3    3    0    0 -0.24146882359E+02  0.23794069790E+02  0.14371903595E+02  0.36820935591E+02  0.00000000000E+00 0.  1.
         11    1    4    4    0    0  0.42211759389E+01 -0.14708373476E+02 -0.11677910441E+02  0.19249108269E+02  0.51100000000E-03 0. -1.
        -11    1    4    4    0    0  0.49586914419E+01  0.96444350553E+01 -0.25572803916E+01  0.11141967134E+02  0.51100000000E-03 0.  1.
        -12    1    4    4    0    0  0.14967014978E+02 -0.18730131369E+02 -0.13671276288E+00  0.23975989006E+02  0.00000000000E+00 0.  1.
</event>
<event>
 8    1  0.2401501E-006  0.9118800E+02  0.7816164E-02  0.1184000E+00
        -11   -1    0    0    0    0  0.00000000000E+00  0.00000000000E+00  0.45593999997E+02  0.45594000000E+02  0.51100000000E-03 0. -1.
         11   -1    0    0    0    0 -0.00000000000E+00 -0.00000000000E+00 -0.45593999997E+02  0.45594000000E+02  0.51100000000E-03 0.  1.
         23    2    1    2    0    0  0.71054273576E-14  0.00000000000E+00  0.00000000000E+00  0.91188000000E+02  0.91188000000E+02 0.  0.
    9900012    2    3    3    0    0  0.36011173519E+02 -0.46102824827E+01 -0.61416019293E+01  0.54367101084E+02  0.40000038540E+02 0.  0.
        -12    1    3    3    0    0 -0.36011173519E+02  0.46102824827E+01  0.61416019293E+01  0.36820898916E+02  0.00000000000E+00 0.  1.
         11    1    4    4    0    0  0.71621550789E+01 -0.37213232028E+01 -0.18423883875E+02  0.20114278736E+02  0.51100000000E-03 0.  1.
        -11    1    4    4    0    0  0.10006256324E+02 -0.54197292492E+01  0.13470747936E+00  0.11380543797E+02  0.51100000000E-03 0. -1.
         12    1    4    4    0    0  0.18842762116E+02  0.45307699693E+01  0.12147574467E+02  0.22872278550E+02  0.00000000000E+00 0. -1.
</event>
<event>
 8    1  0.2401501E-006  0.9118800E+02  0.7816164E-02  0.1184000E+00
        -11   -1    0    0    0    0  0.00000000000E+00  0.00000000000E+00  0.45593999997E+02  0.45594000000E+02  0.51100000000E-03 0.  1.
         11   -1    0    0    0    0 -0.00000000000E+00 -0.00000000000E+00 -0.45593999997E+02  0.45594000000E+02  0.51100000000E-03 0. -1.
         23    2    1    2    0    0  0.35527136788E-14  0.00000000000E+00  0.00000000000E+00  0.91188000000E+02  0.91188000000E+02 0.  0.
    9900012    2    3    3    0    0 -0.31983101903E+02 -0.17500383538E+02  0.51572271872E+01  0.54367092575E+02  0.40000019144E+02 0.  0.
         12    1    3    3    0    0  0.31983101903E+02  0.17500383538E+02 -0.51572271872E+01  0.36820907425E+02  0.00000000000E+00 0. -1.
         11    1    4    4    0    0 -0.13224882830E+02  0.12741937477E+02  0.24494643739E+01  0.18527125317E+02  0.51100000000E-03 0. -1.
        -11    1    4    4    0    0 -0.15425849745E+02 -0.23638321147E+02  0.33028796696E+01  0.28418938780E+02  0.51100000000E-03 0.  1.
         12    1    4    4    0    0 -0.33323693272E+01 -0.66039998689E+01 -0.59511685619E+00  0.74210284781E+01  0.00000000000E+00 0. -1.
</event>
<event>
 8    1  0.2401501E-006  0.9118800E+02  0.7816164E-02  0.1184000E+00
        -11   -1    0    0    0    0  0.00000000000E+00  0.00000000000E+00  0.45593999997E+02  0.45594000000E+02  0.51100000000E-03 0.  1.
         11   -1    0    0    0    0 -0.00000000000E+00 -0.00000000000E+00 -0.45593999997E+02  0.45594000000E+02  0.51100000000E-03 0. -1.
         23    2    1    2    0    0  0.99920072216E-15 -0.17763568394E-14  0.00000000000E+00  0.91188000000E+02  0.91188000000E+02 0.  0.
    9900012    2    3    3    0    0  0.59728310499E+00 -0.12426311740E+02  0.34655580078E+02  0.54367092880E+02  0.40000019839E+02 0.  0.
         12    1    3    3    0    0 -0.59728310499E+00  0.12426311740E+02 -0.34655580078E+02  0.36820907120E+02  0.00000000000E+00 0. -1.
         11    1    4    4    0    0  0.73424116598E+01  0.10920749878E+02  0.16665044684E+02  0.21234347211E+02  0.51100000000E-03 0. -1.
        -11    1    4    4    0    0  0.37397807696E+01 -0.95451626270E+01  0.88190425113E+01  0.13523002657E+02  0.51100000000E-03 0.  1.
         12    1    4    4    0    0 -0.10484909324E+02 -0.13801898992E+02  0.91714928823E+01  0.19609743012E+02  0.00000000000E+00 0. -1.
</event>
<event>
 8    1  0.2401501E-006  0.9118800E+02  0.7816164E-02  0.1184000E+00
        -11   -1    0    0    0    0  0.00000000000E+00  0.00000000000E+00  0.45593999997E+02  0.45594000000E+02  0.51100000000E-03 0.  1.
         11   -1    0    0    0    0 -0.00000000000E+00 -0.00000000000E+00 -0.45593999997E+02  0.45594000000E+02  0.51100000000E-03 0. -1.
         23    2    1    2    0    0  0.35527136788E-14  0.00000000000E+00 -0.35527136788E-14  0.91188000000E+02  0.91188000000E+02 0.  0.
    9900012    2    3    3    0    0 -0.12351866813E+02  0.15481779410E+02  0.31040721782E+02  0.54367075022E+02  0.39999979129E+02 0.  0.
         12    1    3    3    0    0  0.12351866813E+02 -0.15481779410E+02 -0.31040721782E+02  0.36820924978E+02  0.00000000000E+00 0. -1.
         11    1    4    4    0    0  0.48791696232E+01  0.22284086455E+00  0.41188273654E+01  0.63891074017E+01  0.51100000000E-03 0. -1.
        -11    1    4    4    0    0  0.54624005906E+01  0.11912374561E+02  0.67873028141E+00  0.13122620278E+02  0.51100000000E-03 0.  1.
        -12    1    4    4    0    0 -0.22693437027E+02  0.33465639845E+01  0.26243164135E+02  0.34855347343E+02  0.00000000000E+00 0.  1.
</event>
<event>
 8    1  0.2401501E-006  0.9118800E+02  0.7816164E-02  0.1184000E+00
        -11   -1    0    0    0    0  0.00000000000E+00  0.00000000000E+00  0.45593999997E+02  0.45594000000E+02  0.51100000000E-03 0.  1.
         11   -1    0    0    0    0 -0.00000000000E+00 -0.00000000000E+00 -0.45593999997E+02  0.45594000000E+02  0.51100000000E-03 0. -1.
         23    2    1    2    0    0  0.17763568394E-14  0.17763568394E-14  0.00000000000E+00  0.91188000000E+02  0.91188000000E+02 0.  0.
    9900012    2    3    3    0    0  0.11410128012E+02 -0.12438229478E+02 -0.32724289083E+02  0.54367086516E+02  0.40000005331E+02 0.  0.
        -12    1    3    3    0    0 -0.11410128012E+02  0.12438229478E+02  0.32724289083E+02  0.36820913484E+02  0.00000000000E+00 0.  1.
         11    1    4    4    0    0  0.44677059312E+01 -0.14434528812E+01 -0.15495537994E+02  0.16191221403E+02  0.51100000000E-03 0. -1.
        -11    1    4    4    0    0 -0.10563701735E+02 -0.12383994439E+02 -0.60864609007E+01  0.17378150626E+02  0.51100000000E-03 0.  1.
        -12    1    4    4    0    0  0.17506123816E+02  0.13892178427E+01 -0.11142290188E+02  0.20797714488E+02  0.00000000000E+00 0.  1.
</event>
<event>
 8    1  0.2401501E-006  0.9118800E+02  0.7816164E-02  0.1184000E+00
        -11   -1    0    0    0    0  0.00000000000E+00  0.00000000000E+00  0.45593999997E+02  0.45594000000E+02  0.51100000000E-03 0.  1.
         11   -1    0    0    0    0 -0.00000000000E+00 -0.00000000000E+00 -0.45593999997E+02  0.45594000000E+02  0.51100000000E-03 0. -1.
         23    2    1    2    0    0  0.35527136788E-14  0.00000000000E+00 -0.11102230246E-15  0.91188000000E+02  0.91188000000E+02 0.  0.
    9900012    2    3    3    0    0  0.28026622551E+02  0.23874638666E+02  0.53916705195E+00  0.54367073285E+02  0.39999975168E+02 0.  0.
         12    1    3    3    0    0 -0.28026622551E+02 -0.23874638666E+02 -0.53916705195E+00  0.36820926715E+02  0.00000000000E+00 0. -1.
         11    1    4    4    0    0  0.75918737865E+01 -0.48738854858E+01  0.25732708886E+01  0.93815260297E+01  0.51100000000E-03 0. -1.
        -11    1    4    4    0    0  0.13658928938E+02  0.27105500132E+02  0.92417075114E+01  0.31728278162E+02  0.51100000000E-03 0.  1.
        -12    1    4    4    0    0  0.67758198270E+01  0.16430240194E+01 -0.11275811348E+02  0.13257269093E+02  0.00000000000E+00 0.  1.
</event>
<event>
 8    1  0.2401501E-006  0.9118800E+02  0.7816164E-02  0.1184000E+00
        -11   -1    0    0    0    0  0.00000000000E+00  0.00000000000E+00  0.45593999997E+02  0.45594000000E+02  0.51100000000E-03 0.  1.
         11   -1    0    0    0    0 -0.00000000000E+00 -0.00000000000E+00 -0.45593999997E+02  0.45594000000E+02  0.51100000000E-03 0. -1.
         23    2    1    2    0    0  0.44408920985E-15  0.35527136788E-14  0.00000000000E+00  0.91188000000E+02  0.91188000000E+02 0.  0.
    9900012    2    3    3    0    0 -0.87365306177E+00  0.31332143296E+02 -0.19321393027E+02  0.54367045345E+02  0.39999911474E+02 0.  0.
        -12    1    3    3    0    0  0.87365306177E+00 -0.31332143296E+02  0.19321393027E+02  0.36820954655E+02  0.00000000000E+00 0.  1.
         11    1    4    4    0    0 -0.16447444786E+01  0.13722030820E+02 -0.94853477599E+01  0.16762193669E+02  0.51100000000E-03 0. -1.
        -11    1    4    4    0    0  0.14949444158E+02  0.16203367158E+02 -0.58066038402E+01  0.22798062117E+02  0.51100000000E-03 0.  1.
        -12    1    4    4    0    0 -0.14178352741E+02  0.14067453189E+01 -0.40294414267E+01  0.14806789559E+02  0.00000000000E+00 0.  1.
</event>
<event>
 8    1  0.2401501E-006  0.9118800E+02  0.7816164E-02  0.1184000E+00
        -11   -1    0    0    0    0  0.00000000000E+00  0.00000000000E+00  0.45593999997E+02  0.45594000000E+02  0.51100000000E-03 0.  1.
         11   -1    0    0    0    0 -0.00000000000E+00 -0.00000000000E+00 -0.45593999997E+02  0.45594000000E+02  0.51100000000E-03 0. -1.
         23    2    1    2    0    0  0.53290705182E-14 -0.71054273576E-14  0.00000000000E+00  0.91188000000E+02  0.91188000000E+02 0.  0.
    9900012    2    3    3    0    0 -0.12217383245E+02  0.33571153028E+02 -0.89158455661E+01  0.54367094645E+02  0.40000023862E+02 0.  0.
        -12    1    3    3    0    0  0.12217383245E+02 -0.33571153028E+02  0.89158455661E+01  0.36820905355E+02  0.00000000000E+00 0.  1.
         11    1    4    4    0    0  0.82472635486E+01 -0.27254490418E+01  0.22474290811E+01  0.89719767195E+01  0.51100000000E-03 0. -1.
        -11    1    4    4    0    0 -0.11648791821E+02  0.81016219960E+01 -0.12893794104E+01  0.14247565736E+02  0.51100000000E-03 0.  1.
         12    1    4    4    0    0 -0.88158549724E+01  0.28194980074E+02 -0.98738952368E+01  0.31147552190E+02  0.00000000000E+00 0. -1.
</event>
<event>
 8    1  0.2401501E-006  0.9118800E+02  0.7816164E-02  0.1184000E+00
        -11   -1    0    0    0    0  0.00000000000E+00  0.00000000000E+00  0.45593999997E+02  0.45594000000E+02  0.51100000000E-03 0.  1.
         11   -1    0    0    0    0 -0.00000000000E+00 -0.00000000000E+00 -0.45593999997E+02  0.45594000000E+02  0.51100000000E-03 0. -1.
         23    2    1    2    0    0  0.00000000000E+00  0.00000000000E+00  0.00000000000E+00  0.91188000000E+02  0.91188000000E+02 0.  0.
    9900012    2    3    3    0    0  0.22329780867E+02 -0.24517451151E+02  0.16001760375E+02  0.54367070359E+02  0.39999968498E+02 0.  0.
         12    1    3    3    0    0 -0.22329780867E+02  0.24517451151E+02 -0.16001760375E+02  0.36820929641E+02  0.00000000000E+00 0. -1.
         11    1    4    4    0    0 -0.21786278443E+01 -0.38642844192E+01 -0.87376636079E+01  0.97992795114E+01  0.51100000000E-03 0. -1.
        -11    1    4    4    0    0  0.31736962433E+01  0.31001159721E+01  0.62758354462E+01  0.76856475130E+01  0.51100000000E-03 0.  1.
         12    1    4    4    0    0  0.21334712468E+02 -0.23753282704E+02  0.18463588537E+02  0.36882143335E+02  0.00000000000E+00 0. -1.
</event>
<event>
 8    1  0.2401501E-006  0.9118800E+02  0.7816164E-02  0.1184000E+00
        -11   -1    0    0    0    0  0.00000000000E+00  0.00000000000E+00  0.45593999997E+02  0.45594000000E+02  0.51100000000E-03 0. -1.
         11   -1    0    0    0    0 -0.00000000000E+00 -0.00000000000E+00 -0.45593999997E+02  0.45594000000E+02  0.51100000000E-03 0.  1.
         23    2    1    2    0    0  0.00000000000E+00  0.46629367034E-14  0.35527136788E-14  0.91188000000E+02  0.91188000000E+02 0.  0.
    9900012    2    3    3    0    0 -0.31750761430E+02  0.16134293841E+01 -0.18575941704E+02  0.54367087247E+02  0.40000006997E+02 0.  0.
         12    1    3    3    0    0  0.31750761430E+02 -0.16134293841E+01  0.18575941704E+02  0.36820912753E+02  0.00000000000E+00 0. -1.
         11    1    4    4    0    0 -0.14454201002E+02  0.20502513695E+02 -0.10308714033E+02  0.27120961998E+02  0.51100000000E-03 0. -1.
        -11    1    4    4    0    0 -0.16533910165E+02 -0.17894991454E+02 -0.87725192385E+01  0.25895134650E+02  0.51100000000E-03 0.  1.
         12    1    4    4    0    0 -0.76265026267E+00 -0.99409285692E+00  0.50529156748E+00  0.13509905993E+01  0.00000000000E+00 0. -1.
</event>
<event>
 8    1  0.2401501E-006  0.9118800E+02  0.7816164E-02  0.1184000E+00
        -11   -1    0    0    0    0  0.00000000000E+00  0.00000000000E+00  0.45593999997E+02  0.45594000000E+02  0.51100000000E-03 0.  1.
         11   -1    0    0    0    0 -0.00000000000E+00 -0.00000000000E+00 -0.45593999997E+02  0.45594000000E+02  0.51100000000E-03 0. -1.
         23    2    1    2    0    0  0.00000000000E+00  0.00000000000E+00  0.44408920985E-15  0.91188000000E+02  0.91188000000E+02 0.  0.
    9900012    2    3    3    0    0 -0.33182305520E+02  0.15614429530E+02 -0.33021313235E+01  0.54367083656E+02  0.39999998810E+02 0.  0.
         12    1    3    3    0    0  0.33182305520E+02 -0.15614429530E+02  0.33021313235E+01  0.36820916344E+02  0.00000000000E+00 0. -1.
         11    1    4    4    0    0 -0.16178109882E+02  0.14538775317E+02 -0.12897588250E+02  0.25287447677E+02  0.51100000000E-03 0. -1.
        -11    1    4    4    0    0  0.42380471097E+01 -0.15977249118E+01  0.57625438931E+01  0.73294393086E+01  0.51100000000E-03 0.  1.
         12    1    4    4    0    0 -0.21242242747E+02  0.26733791245E+01  0.38329130331E+01  0.21750196670E+02  0.00000000000E+00 0. -1.
</event>
<event>
 8    1  0.2401501E-006  0.9118800E+02  0.7816164E-02  0.1184000E+00
        -11   -1    0    0    0    0  0.00000000000E+00  0.00000000000E+00  0.45593999997E+02  0.45594000000E+02  0.51100000000E-03 0. -1.
         11   -1    0    0    0    0 -0.00000000000E+00 -0.00000000000E+00 -0.45593999997E+02  0.45594000000E+02  0.51100000000E-03 0.  1.
         23    2    1    2    0    0  0.00000000000E+00  0.00000000000E+00  0.00000000000E+00  0.91188000000E+02  0.91188000000E+02 0.  0.
    9900012    2    3    3    0    0  0.23924662128E+02 -0.59902183270E+01  0.27340596456E+02  0.54367076762E+02  0.39999983094E+02 0.  0.
        -12    1    3    3    0    0 -0.23924662128E+02  0.59902183270E+01 -0.27340596456E+02  0.36820923238E+02  0.00000000000E+00 0.  1.
         11    1    4    4    0    0  0.18368265068E+02  0.70535214948E+01  0.20411024654E+02  0.28350577680E+02  0.51100000000E-03 0. -1.
        -11    1    4    4    0    0 -0.16577652102E+01  0.40394659469E+01  0.60376135125E+01  0.74510568255E+01  0.51100000000E-03 0.  1.
        -12    1    4    4    0    0  0.72141622698E+01 -0.17083205769E+02  0.89195828926E+00  0.18565442257E+02  0.00000000000E+00 0.  1.
</event>
<event>
 8    1  0.2401501E-006  0.9118800E+02  0.7816164E-02  0.1184000E+00
        -11   -1    0    0    0    0  0.00000000000E+00  0.00000000000E+00  0.45593999997E+02  0.45594000000E+02  0.51100000000E-03 0.  1.
         11   -1    0    0    0    0 -0.00000000000E+00 -0.00000000000E+00 -0.45593999997E+02  0.45594000000E+02  0.51100000000E-03 0. -1.
         23    2    1    2    0    0 -0.17763568394E-14 -0.17763568394E-14  0.71054273576E-14  0.91188000000E+02  0.91188000000E+02 0.  0.
    9900012    2    3    3    0    0  0.11940133253E+02  0.98055567060E+01 -0.33422506810E+02  0.54367086298E+02  0.40000004833E+02 0.  0.
        -12    1    3    3    0    0 -0.11940133253E+02 -0.98055567060E+01  0.33422506810E+02  0.36820913702E+02  0.00000000000E+00 0.  1.
         11    1    4    4    0    0  0.86677623169E+01  0.14989033998E+02 -0.28850647711E+02  0.33647601956E+02  0.51100000000E-03 0. -1.
        -11    1    4    4    0    0  0.53189706177E+01 -0.88083817304E+00  0.66306027600E+01  0.85458889263E+01  0.51100000000E-03 0.  1.
        -12    1    4    4    0    0 -0.20465996815E+01 -0.43026391189E+01 -0.11202461859E+02  0.12173595416E+02  0.00000000000E+00 0.  1.
</event>
<event>
 8    1  0.2401501E-006  0.9118800E+02  0.7816164E-02  0.1184000E+00
        -11   -1    0    0    0    0  0.00000000000E+00  0.00000000000E+00  0.45593999997E+02  0.45594000000E+02  0.51100000000E-03 0.  1.
         11   -1    0    0    0    0 -0.00000000000E+00 -0.00000000000E+00 -0.45593999997E+02  0.45594000000E+02  0.51100000000E-03 0. -1.
         23    2    1    2    0    0 -0.35527136788E-14  0.00000000000E+00  0.35527136788E-14  0.91188000000E+02  0.91188000000E+02 0.  0.
    9900012    2    3    3    0    0  0.18690764608E+02 -0.12588704816E+02 -0.29119740731E+02  0.54367089218E+02  0.40000011490E+02 0.  0.
        -12    1    3    3    0    0 -0.18690764608E+02  0.12588704816E+02  0.29119740731E+02  0.36820910782E+02  0.00000000000E+00 0.  1.
         11    1    4    4    0    0  0.62257074951E+01  0.13429574145E+02 -0.11173589138E+02  0.18546212282E+02  0.51100000000E-03 0. -1.
        -11    1    4    4    0    0  0.12277964915E+02 -0.27107071784E+02 -0.17874780694E+02  0.34713823591E+02  0.51100000000E-03 0.  1.
        -12    1    4    4    0    0  0.18709219763E+00  0.10887928239E+01 -0.71370898853E-01  0.11070533452E+01  0.00000000000E+00 0.  1.
</event>
<event>
 8    1  0.2401501E-006  0.9118800E+02  0.7816164E-02  0.1184000E+00
        -11   -1    0    0    0    0  0.00000000000E+00  0.00000000000E+00  0.45593999997E+02  0.45594000000E+02  0.51100000000E-03 0.  1.
         11   -1    0    0    0    0 -0.00000000000E+00 -0.00000000000E+00 -0.45593999997E+02  0.45594000000E+02  0.51100000000E-03 0. -1.
         23    2    1    2    0    0  0.17763568394E-14  0.19428902931E-15  0.00000000000E+00  0.91188000000E+02  0.91188000000E+02 0.  0.
    9900012    2    3    3    0    0 -0.11938791821E+02 -0.84493357808E-01  0.34831700726E+02  0.54366956225E+02  0.39999708304E+02 0.  0.
         12    1    3    3    0    0  0.11938791821E+02  0.84493357808E-01 -0.34831700726E+02  0.36821043775E+02  0.00000000000E+00 0. -1.
         11    1    4    4    0    0 -0.83563651254E+01 -0.72194141268E+01  0.32479294534E+02  0.34305296270E+02  0.51100000000E-03 0.  1.
        -11    1    4    4    0    0  0.53515559550E+01  0.77229166816E+01  0.51070949626E+01  0.10694157864E+02  0.51100000000E-03 0. -1.
        -12    1    4    4    0    0 -0.89339826504E+01 -0.58799591260E+00 -0.27546887711E+01  0.93675020906E+01  0.00000000000E+00 0.  1.
</event>
<event>
 8    1  0.2401501E-006  0.9118800E+02  0.7816164E-02  0.1184000E+00
        -11   -1    0    0    0    0  0.00000000000E+00  0.00000000000E+00  0.45593999997E+02  0.45594000000E+02  0.51100000000E-03 0.  1.
         11   -1    0    0    0    0 -0.00000000000E+00 -0.00000000000E+00 -0.45593999997E+02  0.45594000000E+02  0.51100000000E-03 0. -1.
         23    2    1    2    0    0  0.00000000000E+00  0.00000000000E+00 -0.35527136788E-14  0.91188000000E+02  0.91188000000E+02 0.  0.
    9900012    2    3    3    0    0  0.23131005019E+02 -0.22190463345E+02  0.18119597387E+02  0.54367083850E+02  0.39999999253E+02 0.  0.
         12    1    3    3    0    0 -0.23131005019E+02  0.22190463345E+02 -0.18119597387E+02  0.36820916150E+02  0.00000000000E+00 0. -1.
         11    1    4    4    0    0 -0.37059265545E+01  0.13278263361E+01  0.13493428227E+02  0.14055946073E+02  0.51100000000E-03 0. -1.
        -11    1    4    4    0    0  0.26579939155E+02 -0.14639077790E+02  0.10717364991E+00  0.30344805988E+02  0.51100000000E-03 0.  1.
         12    1    4    4    0    0  0.25699241867E+00 -0.88792118913E+01  0.45189955094E+01  0.99663317890E+01  0.00000000000E+00 0. -1.
</event>
<event>
 8    1  0.2401501E-006  0.9118800E+02  0.7816164E-02  0.1184000E+00
        -11   -1    0    0    0    0  0.00000000000E+00  0.00000000000E+00  0.45593999997E+02  0.45594000000E+02  0.51100000000E-03 0.  1.
         11   -1    0    0    0    0 -0.00000000000E+00 -0.00000000000E+00 -0.45593999997E+02  0.45594000000E+02  0.51100000000E-03 0. -1.
         23    2    1    2    0    0  0.35527136788E-14 -0.17763568394E-14  0.35527136788E-14  0.91188000000E+02  0.91188000000E+02 0.  0.
    9900012    2    3    3    0    0  0.28997324355E+02 -0.73435252955E+01  0.21471085173E+02  0.54367086350E+02  0.40000004951E+02 0.  0.
         12    1    3    3    0    0 -0.28997324355E+02  0.73435252955E+01 -0.21471085173E+02  0.36820913650E+02  0.00000000000E+00 0. -1.
         11    1    4    4    0    0 -0.29170394162E+01  0.30843451085E+01  0.10733436637E+02  0.11542485261E+02  0.51100000000E-03 0. -1.
        -11    1    4    4    0    0  0.43678798313E+00  0.25846508286E+01  0.82684893205E+01  0.86740486252E+01  0.51100000000E-03 0.  1.
        -12    1    4    4    0    0  0.31477575788E+02 -0.13012521233E+02  0.24691592164E+01  0.34150552464E+02  0.00000000000E+00 0.  1.
</event>
<event>
 8    1  0.2401501E-006  0.9118800E+02  0.7816164E-02  0.1184000E+00
        -11   -1    0    0    0    0  0.00000000000E+00  0.00000000000E+00  0.45593999997E+02  0.45594000000E+02  0.51100000000E-03 0. -1.
         11   -1    0    0    0    0 -0.00000000000E+00 -0.00000000000E+00 -0.45593999997E+02  0.45594000000E+02  0.51100000000E-03 0.  1.
         23    2    1    2    0    0  0.00000000000E+00  0.35527136788E-14  0.00000000000E+00  0.91188000000E+02  0.91188000000E+02 0.  0.
    9900012    2    3    3    0    0 -0.10556806876E+02 -0.18223237274E+02 -0.30203434400E+02  0.54367082063E+02  0.39999995179E+02 0.  0.
         12    1    3    3    0    0  0.10556806876E+02  0.18223237274E+02  0.30203434400E+02  0.36820917937E+02  0.00000000000E+00 0. -1.
         11    1    4    4    0    0 -0.18792624509E+02  0.12158123827E+01 -0.52760224055E+01  0.19557028107E+02  0.51100000000E-03 0. -1.
        -11    1    4    4    0    0 -0.28516761563E+01 -0.71334153655E+01 -0.89691781853E+01  0.11809480482E+02  0.51100000000E-03 0.  1.
         12    1    4    4    0    0  0.11087493790E+02 -0.12305634291E+02 -0.15958233809E+02  0.23000573474E+02  0.00000000000E+00 0. -1.
</event>
<event>
 8    1  0.2401501E-006  0.9118800E+02  0.7816164E-02  0.1184000E+00
        -11   -1    0    0    0    0  0.00000000000E+00  0.00000000000E+00  0.45593999997E+02  0.45594000000E+02  0.51100000000E-03 0.  1.
         11   -1    0    0    0    0 -0.00000000000E+00 -0.00000000000E+00 -0.45593999997E+02  0.45594000000E+02  0.51100000000E-03 0. -1.
         23    2    1    2    0    0 -0.17763568394E-14 -0.71054273576E-14  0.00000000000E+00  0.91188000000E+02  0.91188000000E+02 0.  0.
    9900012    2    3    3    0    0 -0.14684630884E+02 -0.33098719992E+02  0.66800217485E+01  0.54366995941E+02  0.39999798847E+02 0.  0.
         12    1    3    3    0    0  0.14684630884E+02  0.33098719992E+02 -0.66800217485E+01  0.36821004059E+02  0.00000000000E+00 0. -1.
         11    1    4    4    0    0 -0.11275294311E+02  0.27289867627E+01  0.63097251121E+01  0.13205766233E+02  0.51100000000E-03 0. -1.
        -11    1    4    4    0    0  0.52799286023E+01 -0.44020892227E+01  0.46172464301E+01  0.82810023805E+01  0.51100000000E-03 0.  1.
         12    1    4    4    0    0 -0.86892651750E+01 -0.31425617532E+02 -0.42469497937E+01  0.32880227328E+02  0.00000000000E+00 0. -1.
</event>
<event>
 8    1  0.2401501E-006  0.9118800E+02  0.7816164E-02  0.1184000E+00
        -11   -1    0    0    0    0  0.00000000000E+00  0.00000000000E+00  0.45593999997E+02  0.45594000000E+02  0.51100000000E-03 0. -1.
         11   -1    0    0    0    0 -0.00000000000E+00 -0.00000000000E+00 -0.45593999997E+02  0.45594000000E+02  0.51100000000E-03 0.  1.
         23    2    1    2    0    0  0.35527136788E-14  0.00000000000E+00  0.00000000000E+00  0.91188000000E+02  0.91188000000E+02 0.  0.
    9900012    2    3    3    0    0 -0.28572025202E+02  0.22234879133E+02  0.67102753316E+01  0.54367105534E+02  0.40000048686E+02 0.  0.
        -12    1    3    3    0    0  0.28572025202E+02 -0.22234879133E+02 -0.67102753316E+01  0.36820894466E+02  0.00000000000E+00 0.  1.
         11    1    4    4    0    0 -0.17248212031E+02  0.22397158849E+02  0.11686248949E+02  0.30589245782E+02  0.51100000000E-03 0. -1.
        -11    1    4    4    0    0  0.17500564686E+01  0.47686484134E+01  0.45883807382E+01  0.68451401296E+01  0.51100000000E-03 0.  1.
        -12    1    4    4    0    0 -0.13073869640E+02 -0.49309281289E+01 -0.95643543557E+01  0.16932719623E+02  0.00000000000E+00 0.  1.
</event>
<event>
 8    1  0.2401501E-006  0.9118800E+02  0.7816164E-02  0.1184000E+00
        -11   -1    0    0    0    0  0.00000000000E+00  0.00000000000E+00  0.45593999997E+02  0.45594000000E+02  0.51100000000E-03 0. -1.
         11   -1    0    0    0    0 -0.00000000000E+00 -0.00000000000E+00 -0.45593999997E+02  0.45594000000E+02  0.51100000000E-03 0.  1.
         23    2    1    2    0    0  0.00000000000E+00 -0.17763568394E-14  0.00000000000E+00  0.91188000000E+02  0.91188000000E+02 0.  0.
    9900012    2    3    3    0    0  0.13051777467E+02 -0.14968156320E+02 -0.31006210760E+02  0.54367086046E+02  0.40000004260E+02 0.  0.
         12    1    3    3    0    0 -0.13051777467E+02  0.14968156320E+02  0.31006210760E+02  0.36820913954E+02  0.00000000000E+00 0. -1.
         11    1    4    4    0    0  0.15191424305E+00  0.53030538724E+00  0.53831860651E+01  0.54113763697E+01  0.51100000000E-03 0. -1.
        -11    1    4    4    0    0 -0.15534586946E+01  0.57753669889E+01 -0.26758544652E+01  0.65519687998E+01  0.51100000000E-03 0.  1.
        -12    1    4    4    0    0  0.14453321919E+02 -0.21273828696E+02 -0.33713542360E+02  0.42403740877E+02  0.00000000000E+00 0.  1.
</event>
<event>
 8    1  0.2401501E-006  0.9118800E+02  0.7816164E-02  0.1184000E+00
        -11   -1    0    0    0    0  0.00000000000E+00  0.00000000000E+00  0.45593999997E+02  0.45594000000E+02  0.51100000000E-03 0. -1.
         11   -1    0    0    0    0 -0.00000000000E+00 -0.00000000000E+00 -0.45593999997E+02  0.45594000000E+02  0.51100000000E-03 0.  1.
         23    2    1    2    0    0  0.71054273576E-14 -0.88817841970E-15 -0.17763568394E-14  0.91188000000E+02  0.91188000000E+02 0.  0.
    9900012    2    3    3    0    0 -0.34697218490E+02  0.63029892644E+01 -0.10590075294E+02  0.54367158900E+02  0.40000170344E+02 0.  0.
         12    1    3    3    0    0  0.34697218490E+02 -0.63029892644E+01  0.10590075294E+02  0.36820841100E+02  0.00000000000E+00 0. -1.
         11    1    4    4    0    0 -0.61720930582E+01  0.85052906259E+01  0.71911156803E+01  0.12733689424E+02  0.51100000000E-03 0. -1.
        -11    1    4    4    0    0 -0.20819368300E+02  0.35251472228E+01  0.34830611125E+00  0.21118571845E+02  0.51100000000E-03 0.  1.
        -12    1    4    4    0    0 -0.77057571310E+01 -0.57274485843E+01 -0.18129497085E+02  0.20514897631E+02  0.00000000000E+00 0.  1.
</event>
<event>
 8    1  0.2401501E-006  0.9118800E+02  0.7816164E-02  0.1184000E+00
        -11   -1    0    0    0    0  0.00000000000E+00  0.00000000000E+00  0.45593999997E+02  0.45594000000E+02  0.51100000000E-03 0.  1.
         11   -1    0    0    0    0 -0.00000000000E+00 -0.00000000000E+00 -0.45593999997E+02  0.45594000000E+02  0.51100000000E-03 0. -1.
         23    2    1    2    0    0 -0.35527136788E-14  0.00000000000E+00  0.35527136788E-14  0.91188000000E+02  0.91188000000E+02 0.  0.
    9900012    2    3    3    0    0 -0.22203226019E+02  0.16782748945E+02  0.24106860357E+02  0.54367019241E+02  0.39999851963E+02 0.  0.
         12    1    3    3    0    0  0.22203226019E+02 -0.16782748945E+02 -0.24106860357E+02  0.36820980759E+02  0.00000000000E+00 0. -1.
         11    1    4    4    0    0 -0.65810727914E+01 -0.15558316622E+01 -0.33228035246E+00  0.67706382077E+01  0.51100000000E-03 0. -1.
        -11    1    4    4    0    0 -0.16736935341E+02 -0.45405961252E+01  0.14587584778E+02  0.22661413189E+02  0.51100000000E-03 0.  1.
        -12    1    4    4    0    0  0.11147821139E+01  0.22879176732E+02  0.98515559316E+01  0.24934967844E+02  0.00000000000E+00 0.  1.
</event>
<event>
 8    1  0.2401501E-006  0.9118800E+02  0.7816164E-02  0.1184000E+00
        -11   -1    0    0    0    0  0.00000000000E+00  0.00000000000E+00  0.45593999997E+02  0.45594000000E+02  0.51100000000E-03 0.  1.
         11   -1    0    0    0    0 -0.00000000000E+00 -0.00000000000E+00 -0.45593999997E+02  0.45594000000E+02  0.51100000000E-03 0. -1.
         23    2    1    2    0    0  0.35527136788E-14  0.00000000000E+00  0.00000000000E+00  0.91188000000E+02  0.91188000000E+02 0.  0.
    9900012    2    3    3    0    0 -0.18815620286E+02 -0.90225236938E+01 -0.30337221537E+02  0.54367075091E+02  0.39999979286E+02 0.  0.
        -12    1    3    3    0    0  0.18815620286E+02  0.90225236938E+01  0.30337221537E+02  0.36820924909E+02  0.00000000000E+00 0.  1.
         11    1    4    4    0    0  0.32078197966E+01 -0.46217622240E+01 -0.34737357869E+01  0.66119312217E+01  0.51100000000E-03 0. -1.
        -11    1    4    4    0    0  0.53836504700E+01 -0.24499593398E+00  0.36663740628E+01  0.65181296719E+01  0.51100000000E-03 0.  1.
         12    1    4    4    0    0 -0.27407090552E+02 -0.41557655359E+01 -0.30529859813E+02  0.41237014198E+02  0.00000000000E+00 0. -1.
</event>
<event>
 8    1  0.2401501E-006  0.9118800E+02  0.7816164E-02  0.1184000E+00
        -11   -1    0    0    0    0  0.00000000000E+00  0.00000000000E+00  0.45593999997E+02  0.45594000000E+02  0.51100000000E-03 0. -1.
         11   -1    0    0    0    0 -0.00000000000E+00 -0.00000000000E+00 -0.45593999997E+02  0.45594000000E+02  0.51100000000E-03 0.  1.
         23    2    1    2    0    0  0.00000000000E+00  0.00000000000E+00  0.00000000000E+00  0.91188000000E+02  0.91188000000E+02 0.  0.
    9900012    2    3    3    0    0 -0.54451691082E+01 -0.36345212030E+02  0.22706474233E+01  0.54367080079E+02  0.39999990657E+02 0.  0.
         12    1    3    3    0    0  0.54451691082E+01  0.36345212030E+02 -0.22706474233E+01  0.36820919921E+02  0.00000000000E+00 0. -1.
         11    1    4    4    0    0 -0.11535400555E+01 -0.33641405365E+02  0.72124456514E+01  0.34425196907E+02  0.51100000000E-03 0. -1.
        -11    1    4    4    0    0 -0.28127838747E+01 -0.92049923483E+01 -0.80855738274E+01  0.12570606256E+02  0.51100000000E-03 0.  1.
        -12    1    4    4    0    0 -0.14788451780E+01  0.65011856836E+01  0.31437755993E+01  0.73712769160E+01  0.00000000000E+00 0.  1.
</event>
<event>
 8    1  0.2401501E-006  0.9118800E+02  0.7816164E-02  0.1184000E+00
        -11   -1    0    0    0    0  0.00000000000E+00  0.00000000000E+00  0.45593999997E+02  0.45594000000E+02  0.51100000000E-03 0. -1.
         11   -1    0    0    0    0 -0.00000000000E+00 -0.00000000000E+00 -0.45593999997E+02  0.45594000000E+02  0.51100000000E-03 0.  1.
         23    2    1    2    0    0  0.00000000000E+00  0.00000000000E+00  0.71054273576E-14  0.91188000000E+02  0.91188000000E+02 0.  0.
    9900012    2    3    3    0    0 -0.10018579080E+02  0.95593724909E+01 -0.34117859623E+02  0.54367056578E+02  0.39999937082E+02 0.  0.
         12    1    3    3    0    0  0.10018579080E+02 -0.95593724909E+01  0.34117859623E+02  0.36820943422E+02  0.00000000000E+00 0. -1.
         11    1    4    4    0    0 -0.46317673035E+01 -0.88153713899E+00  0.48002642278E+01  0.67285149178E+01  0.51100000000E-03 0. -1.
        -11    1    4    4    0    0 -0.38746926757E+01  0.17935442460E+02 -0.19531340714E+02  0.26798630747E+02  0.51100000000E-03 0.  1.
        -12    1    4    4    0    0 -0.15121191003E+01 -0.74945328296E+01 -0.19386783137E+02  0.20839910914E+02  0.00000000000E+00 0.  1.
</event>
<event>
 8    1  0.2401501E-006  0.9118800E+02  0.7816164E-02  0.1184000E+00
        -11   -1    0    0    0    0  0.00000000000E+00  0.00000000000E+00  0.45593999997E+02  0.45594000000E+02  0.51100000000E-03 0.  1.
         11   -1    0    0    0    0 -0.00000000000E+00 -0.00000000000E+00 -0.45593999997E+02  0.45594000000E+02  0.51100000000E-03 0. -1.
         23    2    1    2    0    0  0.00000000000E+00  0.33306690739E-15  0.35527136788E-14  0.91188000000E+02  0.91188000000E+02 0.  0.
    9900012    2    3    3    0    0 -0.32207681058E+02  0.56291450938E+00 -0.17836155619E+02  0.54367081501E+02  0.39999993897E+02 0.  0.
        -12    1    3    3    0    0  0.32207681058E+02 -0.56291450938E+00  0.17836155619E+02  0.36820918499E+02  0.00000000000E+00 0.  1.
         11    1    4    4    0    0  0.26741990034E+01 -0.11671161756E+01  0.11483750243E+01  0.31356444210E+01  0.51100000000E-03 0. -1.
        -11    1    4    4    0    0 -0.31886792746E+01  0.13143630534E+02 -0.84034507919E+01  0.15922960924E+02  0.51100000000E-03 0.  1.
         12    1    4    4    0    0 -0.31693200787E+02 -0.11413599849E+02 -0.10581079852E+02  0.35308476156E+02  0.00000000000E+00 0. -1.
</event>
<event>
 8    1  0.2401501E-006  0.9118800E+02  0.7816164E-02  0.1184000E+00
        -11   -1    0    0    0    0  0.00000000000E+00  0.00000000000E+00  0.45593999997E+02  0.45594000000E+02  0.51100000000E-03 0.  1.
         11   -1    0    0    0    0 -0.00000000000E+00 -0.00000000000E+00 -0.45593999997E+02  0.45594000000E+02  0.51100000000E-03 0. -1.
         23    2    1    2    0    0 -0.16653345369E-14  0.00000000000E+00 -0.35527136788E-14  0.91188000000E+02  0.91188000000E+02 0.  0.
    9900012    2    3    3    0    0 -0.38221492173E+00 -0.21415436758E+02  0.29950150270E+02  0.54367102116E+02  0.40000040894E+02 0.  0.
        -12    1    3    3    0    0  0.38221492173E+00  0.21415436758E+02 -0.29950150270E+02  0.36820897884E+02  0.00000000000E+00 0.  1.
         11    1    4    4    0    0  0.73716203803E+01 -0.10448410793E+02  0.78761313418E+01  0.15018106415E+02  0.51100000000E-03 0. -1.
        -11    1    4    4    0    0  0.10545376363E+02  0.63139566318E+00  0.99992241605E+01  0.14546068444E+02  0.51100000000E-03 0.  1.
        -12    1    4    4    0    0 -0.18299211665E+02 -0.11598421629E+02  0.12074794767E+02  0.24802927257E+02  0.00000000000E+00 0.  1.
</event>
<event>
 8    1  0.2401501E-006  0.9118800E+02  0.7816164E-02  0.1184000E+00
        -11   -1    0    0    0    0  0.00000000000E+00  0.00000000000E+00  0.45593999997E+02  0.45594000000E+02  0.51100000000E-03 0.  1.
         11   -1    0    0    0    0 -0.00000000000E+00 -0.00000000000E+00 -0.45593999997E+02  0.45594000000E+02  0.51100000000E-03 0. -1.
         23    2    1    2    0    0 -0.53290705182E-14  0.17763568394E-14 -0.10658141036E-13  0.91188000000E+02  0.91188000000E+02 0.  0.
    9900012    2    3    3    0    0 -0.15228782843E+02  0.15687974015E+02 -0.29626902168E+02  0.54367059115E+02  0.39999942865E+02 0.  0.
        -12    1    3    3    0    0  0.15228782843E+02 -0.15687974015E+02  0.29626902168E+02  0.36820940885E+02  0.00000000000E+00 0.  1.
         11    1    4    4    0    0  0.26180898578E+01  0.30582027950E+01  0.26813121261E+01  0.48369860262E+01  0.51100000000E-03 0. -1.
        -11    1    4    4    0    0  0.57176344702E+01 -0.17728099310E+01  0.12023022174E+01  0.61057128878E+01  0.51100000000E-03 0.  1.
        -12    1    4    4    0    0 -0.23564507171E+02  0.14402581151E+02 -0.33510516511E+02  0.43424360201E+02  0.00000000000E+00 0.  1.
</event>
<event>
 8    1  0.2401501E-006  0.9118800E+02  0.7816164E-02  0.1184000E+00
        -11   -1    0    0    0    0  0.00000000000E+00  0.00000000000E+00  0.45593999997E+02  0.45594000000E+02  0.51100000000E-03 0. -1.
         11   -1    0    0    0    0 -0.00000000000E+00 -0.00000000000E+00 -0.45593999997E+02  0.45594000000E+02  0.51100000000E-03 0.  1.
         23    2    1    2    0    0  0.00000000000E+00  0.00000000000E+00  0.35527136788E-14  0.91188000000E+02  0.91188000000E+02 0.  0.
    9900012    2    3    3    0    0 -0.30540347464E+02 -0.11048140716E+02  0.17349512469E+02  0.54367084485E+02  0.40000000699E+02 0.  0.
        -12    1    3    3    0    0  0.30540347464E+02  0.11048140716E+02 -0.17349512469E+02  0.36820915515E+02  0.00000000000E+00 0.  1.
         11    1    4    4    0    0 -0.12091572152E+02 -0.18489969684E+01  0.22128194507E+02  0.25284024587E+02  0.51100000000E-03 0. -1.
        -11    1    4    4    0    0  0.35411895975E+01 -0.43432507217E+01 -0.33258209477E+01  0.65165125516E+01  0.51100000000E-03 0.  1.
         12    1    4    4    0    0 -0.21989964909E+02 -0.48558930255E+01 -0.14528610901E+01  0.22566547346E+02  0.00000000000E+00 0. -1.
</event>
<event>
 8    1  0.2401501E-006  0.9118800E+02  0.7816164E-02  0.1184000E+00
        -11   -1    0    0    0    0  0.00000000000E+00  0.00000000000E+00  0.45593999997E+02  0.45594000000E+02  0.51100000000E-03 0.  1.
         11   -1    0    0    0    0 -0.00000000000E+00 -0.00000000000E+00 -0.45593999997E+02  0.45594000000E+02  0.51100000000E-03 0. -1.
         23    2    1    2    0    0  0.00000000000E+00  0.00000000000E+00  0.00000000000E+00  0.91188000000E+02  0.91188000000E+02 0.  0.
    9900012    2    3    3    0    0  0.96924189022E+01 -0.14332125001E+01  0.35493400119E+02  0.54367101935E+02  0.40000040482E+02 0.  0.
         12    1    3    3    0    0 -0.96924189022E+01  0.14332125001E+01 -0.35493400119E+02  0.36820898065E+02  0.00000000000E+00 0. -1.
         11    1    4    4    0    0  0.88179016872E+01 -0.10770997367E+02  0.37200015158E+02  0.39719150324E+02  0.51100000000E-03 0.  1.
        -11    1    4    4    0    0 -0.35636499200E+01  0.90114261056E+01  0.45382359557E+00  0.97011008307E+01  0.51100000000E-03 0. -1.
        -12    1    4    4    0    0  0.44381671349E+01  0.32635876125E+00 -0.21604386340E+01  0.49468507810E+01  0.00000000000E+00 0.  1.
</event>
<event>
 8    1  0.2401501E-006  0.9118800E+02  0.7816164E-02  0.1184000E+00
        -11   -1    0    0    0    0  0.00000000000E+00  0.00000000000E+00  0.45593999997E+02  0.45594000000E+02  0.51100000000E-03 0. -1.
         11   -1    0    0    0    0 -0.00000000000E+00 -0.00000000000E+00 -0.45593999997E+02  0.45594000000E+02  0.51100000000E-03 0.  1.
         23    2    1    2    0    0  0.35527136788E-14  0.00000000000E+00 -0.35527136788E-14  0.91188000000E+02  0.91188000000E+02 0.  0.
    9900012    2    3    3    0    0  0.21108963179E+02  0.13988258731E+01  0.30136926259E+02  0.54367090660E+02  0.40000014777E+02 0.  0.
        -12    1    3    3    0    0 -0.21108963179E+02 -0.13988258731E+01 -0.30136926259E+02  0.36820909340E+02  0.00000000000E+00 0.  1.
         11    1    4    4    0    0 -0.31688263024E+01  0.23781051378E+01  0.25343805637E+02  0.25651614542E+02  0.51100000000E-03 0. -1.
        -11    1    4    4    0    0  0.65427966356E+01 -0.69329813519E+01  0.25910353024E+01  0.98786579271E+01  0.51100000000E-03 0.  1.
         12    1    4    4    0    0  0.17734992846E+02  0.59537020873E+01  0.22020853193E+01  0.18836818190E+02  0.00000000000E+00 0. -1.
</event>
<event>
 8    1  0.2401501E-006  0.9118800E+02  0.7816164E-02  0.1184000E+00
        -11   -1    0    0    0    0  0.00000000000E+00  0.00000000000E+00  0.45593999997E+02  0.45594000000E+02  0.51100000000E-03 0.  1.
         11   -1    0    0    0    0 -0.00000000000E+00 -0.00000000000E+00 -0.45593999997E+02  0.45594000000E+02  0.51100000000E-03 0. -1.
         23    2    1    2    0    0 -0.17763568394E-14  0.35527136788E-14  0.35527136788E-14  0.91188000000E+02  0.91188000000E+02 0.  0.
    9900012    2    3    3    0    0  0.14473476631E+02 -0.25249849898E+02 -0.22555333774E+02  0.54367088450E+02  0.40000009740E+02 0.  0.
        -12    1    3    3    0    0 -0.14473476631E+02  0.25249849898E+02  0.22555333774E+02  0.36820911550E+02  0.00000000000E+00 0.  1.
         11    1    4    4    0    0  0.10339156330E+02 -0.14477515750E+02 -0.17891517739E+02  0.25230993306E+02  0.51100000000E-03 0. -1.
        -11    1    4    4    0    0  0.10802669819E+02 -0.66907411434E+01 -0.12671078695E+02  0.17944913703E+02  0.51100000000E-03 0.  1.
         12    1    4    4    0    0 -0.66683495186E+01 -0.40815930050E+01  0.80072626596E+01  0.11191181442E+02  0.00000000000E+00 0. -1.
</event>
<event>
 8    1  0.2401501E-006  0.9118800E+02  0.7816164E-02  0.1184000E+00
        -11   -1    0    0    0    0  0.00000000000E+00  0.00000000000E+00  0.45593999997E+02  0.45594000000E+02  0.51100000000E-03 0. -1.
         11   -1    0    0    0    0 -0.00000000000E+00 -0.00000000000E+00 -0.45593999997E+02  0.45594000000E+02  0.51100000000E-03 0.  1.
         23    2    1    2    0    0  0.22204460493E-15  0.00000000000E+00  0.00000000000E+00  0.91188000000E+02  0.91188000000E+02 0.  0.
    9900012    2    3    3    0    0 -0.17758021953E+00  0.35203853194E+02  0.10790629279E+02  0.54367075315E+02  0.39999979795E+02 0.  0.
         12    1    3    3    0    0  0.17758021953E+00 -0.35203853194E+02 -0.10790629279E+02  0.36820924685E+02  0.00000000000E+00 0. -1.
         11    1    4    4    0    0 -0.17829561889E+01 -0.32972784508E+00  0.78323785645E+01  0.80395153749E+01  0.51100000000E-03 0. -1.
        -11    1    4    4    0    0 -0.86314465471E+00  0.20608263656E+02 -0.12965912825E+02  0.24363095970E+02  0.51100000000E-03 0.  1.
         12    1    4    4    0    0  0.24685206241E+01  0.14925317383E+02  0.15924163539E+02  0.21964463970E+02  0.00000000000E+00 0. -1.
</event>
<event>
 8    1  0.2401501E-006  0.9118800E+02  0.7816164E-02  0.1184000E+00
        -11   -1    0    0    0    0  0.00000000000E+00  0.00000000000E+00  0.45593999997E+02  0.45594000000E+02  0.51100000000E-03 0.  1.
         11   -1    0    0    0    0 -0.00000000000E+00 -0.00000000000E+00 -0.45593999997E+02  0.45594000000E+02  0.51100000000E-03 0. -1.
         23    2    1    2    0    0 -0.35527136788E-14  0.00000000000E+00  0.00000000000E+00  0.91188000000E+02  0.91188000000E+02 0.  0.
    9900012    2    3    3    0    0  0.23290208470E+02 -0.21780910760E+02  0.18409995200E+02  0.54367220441E+02  0.40000310638E+02 0.  0.
         12    1    3    3    0    0 -0.23290208470E+02  0.21780910760E+02 -0.18409995200E+02  0.36820779559E+02  0.00000000000E+00 0. -1.
         11    1    4    4    0    0  0.10526033578E+02  0.54847900659E+01 -0.78799000964E+00  0.11895429100E+02  0.51100000000E-03 0. -1.
        -11    1    4    4    0    0 -0.41278361825E+01 -0.11681344851E+02 -0.20929110877E+00  0.12390990764E+02  0.51100000000E-03 0.  1.
         12    1    4    4    0    0  0.16892011074E+02 -0.15584355974E+02  0.19407276319E+02  0.30080800577E+02  0.00000000000E+00 0. -1.
</event>
<event>
 8    1  0.2401501E-006  0.9118800E+02  0.7816164E-02  0.1184000E+00
        -11   -1    0    0    0    0  0.00000000000E+00  0.00000000000E+00  0.45593999997E+02  0.45594000000E+02  0.51100000000E-03 0.  1.
         11   -1    0    0    0    0 -0.00000000000E+00 -0.00000000000E+00 -0.45593999997E+02  0.45594000000E+02  0.51100000000E-03 0. -1.
         23    2    1    2    0    0  0.00000000000E+00 -0.88817841970E-15  0.00000000000E+00  0.91188000000E+02  0.91188000000E+02 0.  0.
    9900012    2    3    3    0    0 -0.10394714637E+02  0.43574881412E+01  0.35053432598E+02  0.54367069373E+02  0.39999966250E+02 0.  0.
         12    1    3    3    0    0  0.10394714637E+02 -0.43574881412E+01 -0.35053432598E+02  0.36820930627E+02  0.00000000000E+00 0. -1.
         11    1    4    4    0    0 -0.63854366792E+01 -0.24539521833E+01  0.21081742294E+02  0.22163834085E+02  0.51100000000E-03 0. -1.
        -11    1    4    4    0    0 -0.14017416890E+02 -0.33152729645E+01  0.95975696219E+01  0.17308736349E+02  0.51100000000E-03 0.  1.
         12    1    4    4    0    0  0.10008138932E+02  0.10126713289E+02  0.43741206823E+01  0.14894498940E+02  0.00000000000E+00 0. -1.
</event>
<event>
 8    1  0.2401501E-006  0.9118800E+02  0.7816164E-02  0.1184000E+00
        -11   -1    0    0    0    0  0.00000000000E+00  0.00000000000E+00  0.45593999997E+02  0.45594000000E+02  0.51100000000E-03 0. -1.
         11   -1    0    0    0    0 -0.00000000000E+00 -0.00000000000E+00 -0.45593999997E+02  0.45594000000E+02  0.51100000000E-03 0.  1.
         23    2    1    2    0    0  0.35527136788E-14 -0.35527136788E-14 -0.17763568394E-14  0.91188000000E+02  0.91188000000E+02 0.  0.
    9900012    2    3    3    0    0 -0.26155839258E+02  0.24748782416E+02  0.76909035741E+01  0.54367079912E+02  0.39999990275E+02 0.  0.
        -12    1    3    3    0    0  0.26155839258E+02 -0.24748782416E+02 -0.76909035741E+01  0.36820920088E+02  0.00000000000E+00 0.  1.
         11    1    4    4    0    0 -0.16713169047E+02  0.69255490627E+01  0.57403398248E+01  0.18980114620E+02  0.51100000000E-03 0. -1.
        -11    1    4    4    0    0 -0.68055844849E+01 -0.29831277474E+01 -0.90455743167E+01  0.11706299429E+02  0.51100000000E-03 0.  1.
         12    1    4    4    0    0 -0.26370857258E+01  0.20806361100E+02  0.10996138066E+02  0.23680665863E+02  0.00000000000E+00 0. -1.
</event>
<event>
 8    1  0.2401501E-006  0.9118800E+02  0.7816164E-02  0.1184000E+00
        -11   -1    0    0    0    0  0.00000000000E+00  0.00000000000E+00  0.45593999997E+02  0.45594000000E+02  0.51100000000E-03 0. -1.
         11   -1    0    0    0    0 -0.00000000000E+00 -0.00000000000E+00 -0.45593999997E+02  0.45594000000E+02  0.51100000000E-03 0.  1.
         23    2    1    2    0    0  0.35527136788E-14  0.17763568394E-14 -0.35527136788E-14  0.91188000000E+02  0.91188000000E+02 0.  0.
    9900012    2    3    3    0    0 -0.12363265612E+02  0.14069199960E+02 -0.31701495631E+02  0.54367115310E+02  0.40000070971E+02 0.  0.
         12    1    3    3    0    0  0.12363265612E+02 -0.14069199960E+02  0.31701495631E+02  0.36820884690E+02  0.00000000000E+00 0. -1.
         11    1    4    4    0    0 -0.20802904220E+01 -0.23652378399E+01 -0.97013727124E+00  0.32959254945E+01  0.51100000000E-03 0. -1.
        -11    1    4    4    0    0  0.12417832139E+02  0.56604560408E+01 -0.36475952346E+01  0.14126155488E+02  0.51100000000E-03 0.  1.
        -12    1    4    4    0    0 -0.22700807329E+02  0.10773981759E+02 -0.27083763126E+02  0.36945034327E+02  0.00000000000E+00 0.  1.
</event>
<event>
 8    1  0.2401501E-006  0.9118800E+02  0.7816164E-02  0.1184000E+00
        -11   -1    0    0    0    0  0.00000000000E+00  0.00000000000E+00  0.45593999997E+02  0.45594000000E+02  0.51100000000E-03 0.  1.
         11   -1    0    0    0    0 -0.00000000000E+00 -0.00000000000E+00 -0.45593999997E+02  0.45594000000E+02  0.51100000000E-03 0. -1.
         23    2    1    2    0    0  0.35527136788E-14 -0.35527136788E-14  0.00000000000E+00  0.91188000000E+02  0.91188000000E+02 0.  0.
    9900012    2    3    3    0    0 -0.31562535267E+02  0.16151293579E+02  0.99357270011E+01  0.54367128367E+02  0.40000100738E+02 0.  0.
         12    1    3    3    0    0  0.31562535267E+02 -0.16151293579E+02 -0.99357270011E+01  0.36820871633E+02  0.00000000000E+00 0. -1.
         11    1    4    4    0    0 -0.57728302681E+01 -0.24588727708E+01 -0.52207692797E+01  0.81626011013E+01  0.51100000000E-03 0. -1.
        -11    1    4    4    0    0 -0.24209303782E+02  0.23461213498E+02  0.19975925810E+02  0.39186177928E+02  0.51100000000E-03 0.  1.
        -12    1    4    4    0    0 -0.15804012166E+01 -0.48510471476E+01 -0.48194295293E+01  0.70183493374E+01  0.00000000000E+00 0.  1.
</event>
<event>
 8    1  0.2401501E-006  0.9118800E+02  0.7816164E-02  0.1184000E+00
        -11   -1    0    0    0    0  0.00000000000E+00  0.00000000000E+00  0.45593999997E+02  0.45594000000E+02  0.51100000000E-03 0.  1.
         11   -1    0    0    0    0 -0.00000000000E+00 -0.00000000000E+00 -0.45593999997E+02  0.45594000000E+02  0.51100000000E-03 0. -1.
         23    2    1    2    0    0  0.00000000000E+00 -0.88817841970E-15  0.00000000000E+00  0.91188000000E+02  0.91188000000E+02 0.  0.
    9900012    2    3    3    0    0 -0.31082638148E+02 -0.58132592973E+01  0.18864047532E+02  0.54367127289E+02  0.40000098281E+02 0.  0.
         12    1    3    3    0    0  0.31082638148E+02  0.58132592973E+01 -0.18864047532E+02  0.36820872711E+02  0.00000000000E+00 0. -1.
         11    1    4    4    0    0 -0.60762290447E+01 -0.99758691682E+01  0.30960426059E+01  0.12084039273E+02  0.51100000000E-03 0. -1.
        -11    1    4    4    0    0 -0.28694868640E+02 -0.20090338878E+01  0.18923220623E+02  0.34431380780E+02  0.51100000000E-03 0.  1.
         12    1    4    4    0    0  0.36884595368E+01  0.61716437587E+01 -0.31552156966E+01  0.78517072367E+01  0.00000000000E+00 0. -1.
</event>
<event>
 8    1  0.2401501E-006  0.9118800E+02  0.7816164E-02  0.1184000E+00
        -11   -1    0    0    0    0  0.00000000000E+00  0.00000000000E+00  0.45593999997E+02  0.45594000000E+02  0.51100000000E-03 0.  1.
         11   -1    0    0    0    0 -0.00000000000E+00 -0.00000000000E+00 -0.45593999997E+02  0.45594000000E+02  0.51100000000E-03 0. -1.
         23    2    1    2    0    0  0.00000000000E+00  0.17763568394E-14 -0.71054273576E-14  0.91188000000E+02  0.91188000000E+02 0.  0.
    9900012    2    3    3    0    0  0.11795144155E+02 -0.55767995966E+01  0.34431861298E+02  0.54367093006E+02  0.40000020126E+02 0.  0.
         12    1    3    3    0    0 -0.11795144155E+02  0.55767995966E+01 -0.34431861298E+02  0.36820906994E+02  0.00000000000E+00 0. -1.
         11    1    4    4    0    0 -0.40683629175E+01  0.94608893338E+01  0.89507528573E+01  0.13644631940E+02  0.51100000000E-03 0. -1.
        -11    1    4    4    0    0  0.97853388466E+01 -0.21001094595E+02  0.19894440320E+02  0.30538297045E+02  0.51100000000E-03 0.  1.
        -12    1    4    4    0    0  0.60781682258E+01  0.59634056645E+01  0.55866681214E+01  0.10184164021E+02  0.00000000000E+00 0.  1.
</event>
<event>
 8    1  0.2401501E-006  0.9118800E+02  0.7816164E-02  0.1184000E+00
        -11   -1    0    0    0    0  0.00000000000E+00  0.00000000000E+00  0.45593999997E+02  0.45594000000E+02  0.51100000000E-03 0.  1.
         11   -1    0    0    0    0 -0.00000000000E+00 -0.00000000000E+00 -0.45593999997E+02  0.45594000000E+02  0.51100000000E-03 0. -1.
         23    2    1    2    0    0 -0.17763568394E-14  0.00000000000E+00  0.00000000000E+00  0.91188000000E+02  0.91188000000E+02 0.  0.
    9900012    2    3    3    0    0 -0.15746123053E+02 -0.25882084162E+01  0.33183396792E+02  0.54367122272E+02  0.40000086843E+02 0.  0.
         12    1    3    3    0    0  0.15746123053E+02  0.25882084162E+01 -0.33183396792E+02  0.36820877728E+02  0.00000000000E+00 0. -1.
         11    1    4    4    0    0 -0.19878735112E+02  0.27962081312E+01  0.32639435818E+02  0.38318607234E+02  0.51100000000E-03 0.  1.
        -11    1    4    4    0    0 -0.47352777754E+01 -0.47209561185E+00 -0.26153207858E+01  0.54300674905E+01  0.51100000000E-03 0. -1.
         12    1    4    4    0    0  0.88678898344E+01 -0.49123209356E+01  0.31592817599E+01  0.10618447548E+02  0.00000000000E+00 0. -1.
</event>
<event>
 8    1  0.2401501E-006  0.9118800E+02  0.7816164E-02  0.1184000E+00
        -11   -1    0    0    0    0  0.00000000000E+00  0.00000000000E+00  0.45593999997E+02  0.45594000000E+02  0.51100000000E-03 0.  1.
         11   -1    0    0    0    0 -0.00000000000E+00 -0.00000000000E+00 -0.45593999997E+02  0.45594000000E+02  0.51100000000E-03 0. -1.
         23    2    1    2    0    0  0.00000000000E+00  0.00000000000E+00  0.00000000000E+00  0.91188000000E+02  0.91188000000E+02 0.  0.
    9900012    2    3    3    0    0 -0.78227954567E+01 -0.18253917348E+02 -0.31006075169E+02  0.54367104782E+02  0.40000046971E+02 0.  0.
        -12    1    3    3    0    0  0.78227954567E+01  0.18253917348E+02  0.31006075169E+02  0.36820895218E+02  0.00000000000E+00 0.  1.
         11    1    4    4    0    0 -0.12990727011E+02 -0.16725693953E+02 -0.86004236805E+01  0.22857714546E+02  0.51100000000E-03 0. -1.
        -11    1    4    4    0    0  0.41621184762E+01  0.95023762372E+01 -0.69198720324E+01  0.12470084746E+02  0.51100000000E-03 0.  1.
         12    1    4    4    0    0  0.10058130785E+01 -0.11030599632E+02 -0.15485779456E+02  0.19039305490E+02  0.00000000000E+00 0. -1.
</event>
<event>
 8    1  0.2401501E-006  0.9118800E+02  0.7816164E-02  0.1184000E+00
        -11   -1    0    0    0    0  0.00000000000E+00  0.00000000000E+00  0.45593999997E+02  0.45594000000E+02  0.51100000000E-03 0. -1.
         11   -1    0    0    0    0 -0.00000000000E+00 -0.00000000000E+00 -0.45593999997E+02  0.45594000000E+02  0.51100000000E-03 0.  1.
         23    2    1    2    0    0  0.00000000000E+00 -0.88817841970E-15  0.00000000000E+00  0.91188000000E+02  0.91188000000E+02 0.  0.
    9900012    2    3    3    0    0 -0.35382158757E+02 -0.72540764127E+01 -0.71597530151E+01  0.54367070542E+02  0.39999968915E+02 0.  0.
         12    1    3    3    0    0  0.35382158757E+02  0.72540764127E+01  0.71597530151E+01  0.36820929458E+02  0.00000000000E+00 0. -1.
         11    1    4    4    0    0 -0.17170269479E+01  0.10048328030E+02 -0.15700833366E+01  0.10314176636E+02  0.51100000000E-03 0. -1.
        -11    1    4    4    0    0 -0.21990827444E+02  0.96839703710E+00 -0.25740485947E+01  0.22162130108E+02  0.51100000000E-03 0.  1.
         12    1    4    4    0    0 -0.11674304364E+02 -0.18270801480E+02 -0.30156210838E+01  0.21890763797E+02  0.00000000000E+00 0. -1.
</event>
<event>
 8    1  0.2401501E-006  0.9118800E+02  0.7816164E-02  0.1184000E+00
        -11   -1    0    0    0    0  0.00000000000E+00  0.00000000000E+00  0.45593999997E+02  0.45594000000E+02  0.51100000000E-03 0.  1.
         11   -1    0    0    0    0 -0.00000000000E+00 -0.00000000000E+00 -0.45593999997E+02  0.45594000000E+02  0.51100000000E-03 0. -1.
         23    2    1    2    0    0  0.00000000000E+00  0.00000000000E+00  0.00000000000E+00  0.91188000000E+02  0.91188000000E+02 0.  0.
    9900012    2    3    3    0    0  0.33507662719E+02  0.64064608555E+01 -0.13855430170E+02  0.54367093618E+02  0.40000021522E+02 0.  0.
        -12    1    3    3    0    0 -0.33507662719E+02 -0.64064608555E+01  0.13855430170E+02  0.36820906382E+02  0.00000000000E+00 0.  1.
         11    1    4    4    0    0  0.16746076757E+02 -0.15551668718E+02 -0.54933854667E+01  0.23504526603E+02  0.51100000000E-03 0. -1.
        -11    1    4    4    0    0  0.15529612465E+01  0.10548439679E+02 -0.23061734503E+01  0.10908698573E+02  0.51100000000E-03 0.  1.
        -12    1    4    4    0    0  0.15208624715E+02  0.11409689894E+02 -0.60558712534E+01  0.19953868443E+02  0.00000000000E+00 0.  1.
</event>
<event>
 8    1  0.2401501E-006  0.9118800E+02  0.7816164E-02  0.1184000E+00
        -11   -1    0    0    0    0  0.00000000000E+00  0.00000000000E+00  0.45593999997E+02  0.45594000000E+02  0.51100000000E-03 0. -1.
         11   -1    0    0    0    0 -0.00000000000E+00 -0.00000000000E+00 -0.45593999997E+02  0.45594000000E+02  0.51100000000E-03 0.  1.
         23    2    1    2    0    0  0.00000000000E+00  0.00000000000E+00  0.00000000000E+00  0.91188000000E+02  0.91188000000E+02 0.  0.
    9900012    2    3    3    0    0  0.16587272508E+02  0.27702680623E+02 -0.17697545696E+02  0.54367092263E+02  0.40000018432E+02 0.  0.
         12    1    3    3    0    0 -0.16587272508E+02 -0.27702680623E+02  0.17697545696E+02  0.36820907737E+02  0.00000000000E+00 0. -1.
         11    1    4    4    0    0  0.10010410579E+02  0.18160492642E+02 -0.24969538854E+02  0.32457505816E+02  0.51100000000E-03 0.  1.
        -11    1    4    4    0    0  0.93755927170E+01  0.12465591441E+02  0.27454496075E+01  0.15837619852E+02  0.51100000000E-03 0. -1.
         12    1    4    4    0    0 -0.27987307886E+01 -0.29234034597E+01  0.45265435508E+01  0.60719665952E+01  0.00000000000E+00 0. -1.
</event>
<event>
 8    1  0.2401501E-006  0.9118800E+02  0.7816164E-02  0.1184000E+00
        -11   -1    0    0    0    0  0.00000000000E+00  0.00000000000E+00  0.45593999997E+02  0.45594000000E+02  0.51100000000E-03 0. -1.
         11   -1    0    0    0    0 -0.00000000000E+00 -0.00000000000E+00 -0.45593999997E+02  0.45594000000E+02  0.51100000000E-03 0.  1.
         23    2    1    2    0    0  0.35527136788E-14 -0.35527136788E-14 -0.35527136788E-14  0.91188000000E+02  0.91188000000E+02 0.  0.
    9900012    2    3    3    0    0 -0.17053140517E+02 -0.27356154654E+02  0.17793575517E+02  0.54367080285E+02  0.39999991127E+02 0.  0.
        -12    1    3    3    0    0  0.17053140517E+02  0.27356154654E+02 -0.17793575517E+02  0.36820919715E+02  0.00000000000E+00 0.  1.
         11    1    4    4    0    0 -0.38858948645E+01  0.50082898358E+01 -0.45151515173E+00  0.63550776683E+01  0.51100000000E-03 0. -1.
        -11    1    4    4    0    0  0.51767589263E+01 -0.29110532964E+01 -0.36610556430E+01  0.69768469209E+01  0.51100000000E-03 0.  1.
         12    1    4    4    0    0 -0.18344004578E+02 -0.29453391194E+02  0.21906146311E+02  0.41035155696E+02  0.00000000000E+00 0. -1.
</event>
<event>
 8    1  0.2403340E-006  0.9118800E+02  0.7816164E-02  0.1184000E+00
        -11   -1    0    0    0    0  0.00000000000E+00  0.00000000000E+00  0.45593999997E+02  0.45594000000E+02  0.51100000000E-03 0.  1.
         11   -1    0    0    0    0 -0.00000000000E+00 -0.00000000000E+00 -0.45593999997E+02  0.45594000000E+02  0.51100000000E-03 0. -1.
         23    2    1    2    0    0  0.44408920985E-15 -0.44408920985E-15 -0.71054273576E-14  0.91188000000E+02  0.91188000000E+02 0.  0.
    9900012    2    3    3    0    0  0.20118175910E+01 -0.39581832926E+01 -0.36552232121E+02  0.54367077986E+02  0.39999985884E+02 0.  0.
        -12    1    3    3    0    0 -0.20118175910E+01  0.39581832926E+01  0.36552232121E+02  0.36820922014E+02  0.00000000000E+00 0.  1.
         11    1    4    4    0    0  0.77575795902E+01 -0.79208682734E+00 -0.82237886668E+00  0.78411574338E+01  0.51100000000E-03 0. -1.
        -11    1    4    4    0    0 -0.73303946590E+01 -0.64411054804E+00  0.28057420972E+01  0.78753890845E+01  0.51100000000E-03 0.  1.
         12    1    4    4    0    0  0.15846326598E+01 -0.25219859173E+01 -0.38535595351E+02  0.38650531467E+02  0.00000000000E+00 0. -1.
</event>
<event>
 8    1  0.2401501E-006  0.9118800E+02  0.7816164E-02  0.1184000E+00
        -11   -1    0    0    0    0  0.00000000000E+00  0.00000000000E+00  0.45593999997E+02  0.45594000000E+02  0.51100000000E-03 0.  1.
         11   -1    0    0    0    0 -0.00000000000E+00 -0.00000000000E+00 -0.45593999997E+02  0.45594000000E+02  0.51100000000E-03 0. -1.
         23    2    1    2    0    0  0.88817841970E-15  0.00000000000E+00  0.00000000000E+00  0.91188000000E+02  0.91188000000E+02 0.  0.
    9900012    2    3    3    0    0  0.58019668500E+01  0.23158300630E+02 -0.28032334890E+02  0.54367061571E+02  0.39999948463E+02 0.  0.
        -12    1    3    3    0    0 -0.58019668500E+01 -0.23158300630E+02  0.28032334890E+02  0.36820938429E+02  0.00000000000E+00 0.  1.
         11    1    4    4    0    0  0.86146289922E+01  0.38470395292E+01 -0.27221800173E+02  0.28810379219E+02  0.51100000000E-03 0. -1.
        -11    1    4    4    0    0  0.43583350044E+01  0.32489804538E+01  0.46338368239E+01  0.71430667064E+01  0.51100000000E-03 0.  1.
         12    1    4    4    0    0 -0.71709971466E+01  0.16062280647E+02 -0.54443715403E+01  0.18413615645E+02  0.00000000000E+00 0. -1.
</event>
<event>
 8    1  0.2401501E-006  0.9118800E+02  0.7816164E-02  0.1184000E+00
        -11   -1    0    0    0    0  0.00000000000E+00  0.00000000000E+00  0.45593999997E+02  0.45594000000E+02  0.51100000000E-03 0. -1.
         11   -1    0    0    0    0 -0.00000000000E+00 -0.00000000000E+00 -0.45593999997E+02  0.45594000000E+02  0.51100000000E-03 0.  1.
         23    2    1    2    0    0  0.35527136788E-14  0.00000000000E+00  0.00000000000E+00  0.91188000000E+02  0.91188000000E+02 0.  0.
    9900012    2    3    3    0    0 -0.24266115298E+02  0.14426931877E+02  0.23638923996E+02  0.54367089599E+02  0.40000012360E+02 0.  0.
        -12    1    3    3    0    0  0.24266115298E+02 -0.14426931877E+02 -0.23638923996E+02  0.36820910401E+02  0.00000000000E+00 0.  1.
         11    1    4    4    0    0 -0.34201932359E+00  0.11933016042E+02  0.51386073134E+01  0.12996889414E+02  0.51100000000E-03 0. -1.
        -11    1    4    4    0    0 -0.26669664274E+02 -0.24175385512E+01  0.22074299972E+02  0.34704325446E+02  0.51100000000E-03 0.  1.
        -12    1    4    4    0    0  0.27455682996E+01  0.49114543867E+01 -0.35739832896E+01  0.66658747389E+01  0.00000000000E+00 0.  1.
</event>
<event>
 8    1  0.2401501E-006  0.9118800E+02  0.7816164E-02  0.1184000E+00
        -11   -1    0    0    0    0  0.00000000000E+00  0.00000000000E+00  0.45593999997E+02  0.45594000000E+02  0.51100000000E-03 0. -1.
         11   -1    0    0    0    0 -0.00000000000E+00 -0.00000000000E+00 -0.45593999997E+02  0.45594000000E+02  0.51100000000E-03 0.  1.
         23    2    1    2    0    0  0.00000000000E+00  0.00000000000E+00  0.00000000000E+00  0.91188000000E+02  0.91188000000E+02 0.  0.
    9900012    2    3    3    0    0 -0.21715873674E+02  0.19019919137E+02 -0.22857019138E+02  0.54367084513E+02  0.40000000765E+02 0.  0.
         12    1    3    3    0    0  0.21715873674E+02 -0.19019919137E+02  0.22857019138E+02  0.36820915487E+02  0.00000000000E+00 0. -1.
         11    1    4    4    0    0 -0.12960963684E+02  0.11016036256E+02 -0.97289248951E+01  0.19595703975E+02  0.51100000000E-03 0. -1.
        -11    1    4    4    0    0 -0.12879676437E+02  0.12235689974E+02  0.26142531150E+01  0.17956405372E+02  0.51100000000E-03 0.  1.
        -12    1    4    4    0    0  0.41247664464E+01 -0.42318070933E+01 -0.15742347358E+02  0.16814975167E+02  0.00000000000E+00 0.  1.
</event>
<event>
 8    1  0.2401501E-006  0.9118800E+02  0.7816164E-02  0.1184000E+00
        -11   -1    0    0    0    0  0.00000000000E+00  0.00000000000E+00  0.45593999997E+02  0.45594000000E+02  0.51100000000E-03 0.  1.
         11   -1    0    0    0    0 -0.00000000000E+00 -0.00000000000E+00 -0.45593999997E+02  0.45594000000E+02  0.51100000000E-03 0. -1.
         23    2    1    2    0    0  0.00000000000E+00  0.00000000000E+00  0.00000000000E+00  0.91188000000E+02  0.91188000000E+02 0.  0.
    9900012    2    3    3    0    0  0.22129679387E+02  0.12851054872E+02 -0.26474722553E+02  0.54367037827E+02  0.39999894335E+02 0.  0.
        -12    1    3    3    0    0 -0.22129679387E+02 -0.12851054872E+02  0.26474722553E+02  0.36820962173E+02  0.00000000000E+00 0.  1.
         11    1    4    4    0    0  0.10926412781E+02  0.18407496097E+02 -0.24662755647E+02  0.32656912365E+02  0.51100000000E-03 0. -1.
        -11    1    4    4    0    0  0.11674500762E+01 -0.17751187343E+01 -0.87055806548E+01  0.89610892753E+01  0.51100000000E-03 0.  1.
         12    1    4    4    0    0  0.10035816529E+02 -0.37813224914E+01  0.68936137488E+01  0.12749036187E+02  0.00000000000E+00 0. -1.
</event>
<event>
 8    1  0.2401501E-006  0.9118800E+02  0.7816164E-02  0.1184000E+00
        -11   -1    0    0    0    0  0.00000000000E+00  0.00000000000E+00  0.45593999997E+02  0.45594000000E+02  0.51100000000E-03 0. -1.
         11   -1    0    0    0    0 -0.00000000000E+00 -0.00000000000E+00 -0.45593999997E+02  0.45594000000E+02  0.51100000000E-03 0.  1.
         23    2    1    2    0    0  0.00000000000E+00  0.00000000000E+00  0.00000000000E+00  0.91188000000E+02  0.91188000000E+02 0.  0.
    9900012    2    3    3    0    0  0.15053832355E+02  0.10634697450E+02 -0.31875741158E+02  0.54367115535E+02  0.40000071485E+02 0.  0.
         12    1    3    3    0    0 -0.15053832355E+02 -0.10634697450E+02  0.31875741158E+02  0.36820884465E+02  0.00000000000E+00 0. -1.
         11    1    4    4    0    0  0.10027796071E+01 -0.11444040032E+02 -0.85757222331E+01  0.14335781502E+02  0.51100000000E-03 0. -1.
        -11    1    4    4    0    0  0.40060792372E+01  0.21010863743E+02 -0.20311851353E+02  0.29497057001E+02  0.51100000000E-03 0.  1.
        -12    1    4    4    0    0  0.10044973510E+02  0.10678737382E+01 -0.29881675716E+01  0.10534277032E+02  0.00000000000E+00 0.  1.
</event>
<event>
 8    1  0.2401501E-006  0.9118800E+02  0.7816164E-02  0.1184000E+00
        -11   -1    0    0    0    0  0.00000000000E+00  0.00000000000E+00  0.45593999997E+02  0.45594000000E+02  0.51100000000E-03 0.  1.
         11   -1    0    0    0    0 -0.00000000000E+00 -0.00000000000E+00 -0.45593999997E+02  0.45594000000E+02  0.51100000000E-03 0. -1.
         23    2    1    2    0    0  0.00000000000E+00  0.00000000000E+00  0.17763568394E-14  0.91188000000E+02  0.91188000000E+02 0.  0.
    9900012    2    3    3    0    0 -0.90165912883E+01 -0.33864448019E+02  0.11299508265E+02  0.54367100430E+02  0.40000037050E+02 0.  0.
         12    1    3    3    0    0  0.90165912883E+01  0.33864448019E+02 -0.11299508265E+02  0.36820899570E+02  0.00000000000E+00 0. -1.
         11    1    4    4    0    0 -0.59881500499E+01  0.20541344559E+01 -0.10524066355E+01  0.64175516648E+01  0.51100000000E-03 0. -1.
        -11    1    4    4    0    0 -0.13106033682E+02 -0.12704815385E+02  0.13363964150E+02  0.22622466508E+02  0.51100000000E-03 0.  1.
         12    1    4    4    0    0  0.10077592444E+02 -0.23213767090E+02 -0.10120492487E+01  0.25327082257E+02  0.00000000000E+00 0. -1.
</event>
<event>
 8    1  0.2401501E-006  0.9118800E+02  0.7816164E-02  0.1184000E+00
        -11   -1    0    0    0    0  0.00000000000E+00  0.00000000000E+00  0.45593999997E+02  0.45594000000E+02  0.51100000000E-03 0. -1.
         11   -1    0    0    0    0 -0.00000000000E+00 -0.00000000000E+00 -0.45593999997E+02  0.45594000000E+02  0.51100000000E-03 0.  1.
         23    2    1    2    0    0  0.00000000000E+00  0.00000000000E+00  0.00000000000E+00  0.91188000000E+02  0.91188000000E+02 0.  0.
    9900012    2    3    3    0    0 -0.17494278267E+02  0.21022571290E+02  0.24653241731E+02  0.54367073836E+02  0.39999976423E+02 0.  0.
        -12    1    3    3    0    0  0.17494278267E+02 -0.21022571290E+02 -0.24653241731E+02  0.36820926164E+02  0.00000000000E+00 0.  1.
         11    1    4    4    0    0 -0.77605094921E+01 -0.58202159875E+01  0.20717245182E+02  0.22875853424E+02  0.51100000000E-03 0. -1.
        -11    1    4    4    0    0 -0.87279609953E+01  0.90492252341E+01 -0.19493240429E+01  0.12722643002E+02  0.51100000000E-03 0.  1.
         12    1    4    4    0    0 -0.10058077797E+01  0.17793562044E+02  0.58853205928E+01  0.18768577409E+02  0.00000000000E+00 0. -1.
</event>
<event>
 8    1  0.2401501E-006  0.9118800E+02  0.7816164E-02  0.1184000E+00
        -11   -1    0    0    0    0  0.00000000000E+00  0.00000000000E+00  0.45593999997E+02  0.45594000000E+02  0.51100000000E-03 0. -1.
         11   -1    0    0    0    0 -0.00000000000E+00 -0.00000000000E+00 -0.45593999997E+02  0.45594000000E+02  0.51100000000E-03 0.  1.
         23    2    1    2    0    0 -0.35527136788E-14  0.00000000000E+00 -0.17763568394E-14  0.91188000000E+02  0.91188000000E+02 0.  0.
    9900012    2    3    3    0    0 -0.24596331574E+02 -0.25856771785E+02 -0.90679517324E+01  0.54367083082E+02  0.39999997502E+02 0.  0.
         12    1    3    3    0    0  0.24596331574E+02  0.25856771785E+02  0.90679517324E+01  0.36820916918E+02  0.00000000000E+00 0. -1.
         11    1    4    4    0    0 -0.10125154863E+02 -0.21550165267E+02 -0.19221417420E+02  0.30600510975E+02  0.51100000000E-03 0.  1.
        -11    1    4    4    0    0  0.15517646878E+01 -0.50243921196E+01  0.39198456998E+01  0.65587865028E+01  0.51100000000E-03 0. -1.
        -12    1    4    4    0    0 -0.16022941400E+02  0.71778560120E+00  0.62336199878E+01  0.17207785605E+02  0.00000000000E+00 0.  1.
</event>
<event>
 8    1  0.2401501E-006  0.9118800E+02  0.7816164E-02  0.1184000E+00
        -11   -1    0    0    0    0  0.00000000000E+00  0.00000000000E+00  0.45593999997E+02  0.45594000000E+02  0.51100000000E-03 0. -1.
         11   -1    0    0    0    0 -0.00000000000E+00 -0.00000000000E+00 -0.45593999997E+02  0.45594000000E+02  0.51100000000E-03 0.  1.
         23    2    1    2    0    0  0.00000000000E+00  0.00000000000E+00  0.17763568394E-14  0.91188000000E+02  0.91188000000E+02 0.  0.
    9900012    2    3    3    0    0  0.28242237726E+02 -0.20837189032E+02  0.11134084814E+02  0.54367078187E+02  0.39999986343E+02 0.  0.
        -12    1    3    3    0    0 -0.28242237726E+02  0.20837189032E+02 -0.11134084814E+02  0.36820921813E+02  0.00000000000E+00 0.  1.
         11    1    4    4    0    0  0.94178790374E+01  0.27833321510E+00  0.18740348880E+02  0.20975571300E+02  0.51100000000E-03 0. -1.
        -11    1    4    4    0    0  0.51965430805E+01 -0.17514706101E+02 -0.58714002911E+01  0.19189641254E+02  0.51100000000E-03 0.  1.
        -12    1    4    4    0    0  0.13627815608E+02 -0.36008161462E+01 -0.17348637750E+01  0.14201865634E+02  0.00000000000E+00 0.  1.
</event>
<event>
 8    1  0.2401501E-006  0.9118800E+02  0.7816164E-02  0.1184000E+00
        -11   -1    0    0    0    0  0.00000000000E+00  0.00000000000E+00  0.45593999997E+02  0.45594000000E+02  0.51100000000E-03 0.  1.
         11   -1    0    0    0    0 -0.00000000000E+00 -0.00000000000E+00 -0.45593999997E+02  0.45594000000E+02  0.51100000000E-03 0. -1.
         23    2    1    2    0    0 -0.17763568394E-14  0.00000000000E+00  0.17763568394E-14  0.91188000000E+02  0.91188000000E+02 0.  0.
    9900012    2    3    3    0    0  0.15806658549E+02  0.29422444440E+02  0.15499970591E+02  0.54367085024E+02  0.40000001930E+02 0.  0.
        -12    1    3    3    0    0 -0.15806658549E+02 -0.29422444440E+02 -0.15499970591E+02  0.36820914976E+02  0.00000000000E+00 0.  1.
         11    1    4    4    0    0 -0.40623400570E+01  0.19059447850E+02  0.12219697791E+02  0.23001873260E+02  0.51100000000E-03 0. -1.
        -11    1    4    4    0    0  0.19516599674E+02  0.10487117834E+02  0.10231383400E+02  0.24404067486E+02  0.51100000000E-03 0.  1.
         12    1    4    4    0    0  0.35239893135E+00 -0.12412124416E+00 -0.69511106004E+01  0.69611442787E+01  0.00000000000E+00 0. -1.
</event>
<event>
 8    1  0.2401501E-006  0.9118800E+02  0.7816164E-02  0.1184000E+00
        -11   -1    0    0    0    0  0.00000000000E+00  0.00000000000E+00  0.45593999997E+02  0.45594000000E+02  0.51100000000E-03 0.  1.
         11   -1    0    0    0    0 -0.00000000000E+00 -0.00000000000E+00 -0.45593999997E+02  0.45594000000E+02  0.51100000000E-03 0. -1.
         23    2    1    2    0    0  0.00000000000E+00 -0.35527136788E-14  0.00000000000E+00  0.91188000000E+02  0.91188000000E+02 0.  0.
    9900012    2    3    3    0    0  0.58415194291E+01  0.27486228053E+02 -0.23794296018E+02  0.54367019502E+02  0.39999852559E+02 0.  0.
        -12    1    3    3    0    0 -0.58415194291E+01 -0.27486228053E+02  0.23794296018E+02  0.36820980498E+02  0.00000000000E+00 0.  1.
         11    1    4    4    0    0  0.10916360119E+01  0.17785612571E+00 -0.20518573558E+02  0.20548361568E+02  0.51100000000E-03 0. -1.
        -11    1    4    4    0    0  0.11165538073E+02  0.17303436502E+02 -0.63358126186E+01  0.21545780957E+02  0.51100000000E-03 0.  1.
        -12    1    4    4    0    0 -0.64156546560E+01  0.10004935425E+02  0.30600901591E+01  0.12272876978E+02  0.00000000000E+00 0.  1.
</event>
<event>
 8    1  0.2401501E-006  0.9118800E+02  0.7816164E-02  0.1184000E+00
        -11   -1    0    0    0    0  0.00000000000E+00  0.00000000000E+00  0.45593999997E+02  0.45594000000E+02  0.51100000000E-03 0.  1.
         11   -1    0    0    0    0 -0.00000000000E+00 -0.00000000000E+00 -0.45593999997E+02  0.45594000000E+02  0.51100000000E-03 0. -1.
         23    2    1    2    0    0  0.00000000000E+00 -0.17763568394E-14  0.00000000000E+00  0.91188000000E+02  0.91188000000E+02 0.  0.
    9900012    2    3    3    0    0  0.17187682284E+02 -0.11067923910E+02 -0.30624582769E+02  0.54367076169E+02  0.39999981742E+02 0.  0.
        -12    1    3    3    0    0 -0.17187682284E+02  0.11067923910E+02  0.30624582769E+02  0.36820923831E+02  0.00000000000E+00 0.  1.
         11    1    4    4    0    0  0.56386213670E+01 -0.23215078976E+02 -0.12210356059E+02  0.26829586991E+02  0.51100000000E-03 0.  1.
        -11    1    4    4    0    0  0.21179380134E+01 -0.51406338047E+00  0.10961267249E+01  0.24395525504E+01  0.51100000000E-03 0. -1.
        -12    1    4    4    0    0  0.94311229040E+01  0.12661218446E+02 -0.19510353435E+02  0.25097936627E+02  0.00000000000E+00 0.  1.
</event>
<event>
 8    1  0.2401501E-006  0.9118800E+02  0.7816164E-02  0.1184000E+00
        -11   -1    0    0    0    0  0.00000000000E+00  0.00000000000E+00  0.45593999997E+02  0.45594000000E+02  0.51100000000E-03 0. -1.
         11   -1    0    0    0    0 -0.00000000000E+00 -0.00000000000E+00 -0.45593999997E+02  0.45594000000E+02  0.51100000000E-03 0.  1.
         23    2    1    2    0    0 -0.35527136788E-14  0.00000000000E+00  0.00000000000E+00  0.91188000000E+02  0.91188000000E+02 0.  0.
    9900012    2    3    3    0    0  0.20690102807E+02 -0.23160890166E+02 -0.19780630578E+02  0.54367074787E+02  0.39999978592E+02 0.  0.
        -12    1    3    3    0    0 -0.20690102807E+02  0.23160890166E+02  0.19780630578E+02  0.36820925213E+02  0.00000000000E+00 0.  1.
         11    1    4    4    0    0  0.60843280312E+01 -0.81588152645E+01  0.18400119731E+01  0.10342676560E+02  0.51100000000E-03 0. -1.
        -11    1    4    4    0    0  0.85284894886E+01 -0.73226792328E+01  0.73585277939E+01  0.13435203596E+02  0.51100000000E-03 0.  1.
        -12    1    4    4    0    0  0.60772852877E+01 -0.76793956687E+01 -0.28979170345E+02  0.30589194631E+02  0.00000000000E+00 0.  1.
</event>
<event>
 8    1  0.2401501E-006  0.9118800E+02  0.7816164E-02  0.1184000E+00
        -11   -1    0    0    0    0  0.00000000000E+00  0.00000000000E+00  0.45593999997E+02  0.45594000000E+02  0.51100000000E-03 0.  1.
         11   -1    0    0    0    0 -0.00000000000E+00 -0.00000000000E+00 -0.45593999997E+02  0.45594000000E+02  0.51100000000E-03 0. -1.
         23    2    1    2    0    0  0.00000000000E+00  0.35527136788E-14  0.00000000000E+00  0.91188000000E+02  0.91188000000E+02 0.  0.
    9900012    2    3    3    0    0  0.15744804852E+02  0.24532537890E+02  0.22495243055E+02  0.54367078566E+02  0.39999987207E+02 0.  0.
         12    1    3    3    0    0 -0.15744804852E+02 -0.24532537890E+02 -0.22495243055E+02  0.36820921434E+02  0.00000000000E+00 0. -1.
         11    1    4    4    0    0 -0.43968922443E+01 -0.80173999284E+00  0.13815343119E+02  0.14520301449E+02  0.51100000000E-03 0. -1.
        -11    1    4    4    0    0  0.15824963069E+02  0.15250935483E+02  0.15533587621E+02  0.26913060656E+02  0.51100000000E-03 0.  1.
         12    1    4    4    0    0  0.43167340267E+01  0.10083342400E+02 -0.68536876845E+01  0.12933716461E+02  0.00000000000E+00 0. -1.
</event>
<event>
 8    1  0.2401501E-006  0.9118800E+02  0.7816164E-02  0.1184000E+00
        -11   -1    0    0    0    0  0.00000000000E+00  0.00000000000E+00  0.45593999997E+02  0.45594000000E+02  0.51100000000E-03 0.  1.
         11   -1    0    0    0    0 -0.00000000000E+00 -0.00000000000E+00 -0.45593999997E+02  0.45594000000E+02  0.51100000000E-03 0. -1.
         23    2    1    2    0    0 -0.35527136788E-14  0.00000000000E+00  0.35527136788E-14  0.91188000000E+02  0.91188000000E+02 0.  0.
    9900012    2    3    3    0    0  0.24482516080E+02 -0.17633731656E+02 -0.21105397556E+02  0.54367083502E+02  0.39999998460E+02 0.  0.
        -12    1    3    3    0    0 -0.24482516080E+02  0.17633731656E+02  0.21105397556E+02  0.36820916498E+02  0.00000000000E+00 0.  1.
         11    1    4    4    0    0  0.54707473424E+01 -0.28763276394E+01 -0.44408334737E+01  0.76107384251E+01  0.51100000000E-03 0. -1.
        -11    1    4    4    0    0  0.28288463268E+01 -0.15141615950E+01 -0.24288021531E+02  0.24499041757E+02  0.51100000000E-03 0.  1.
         12    1    4    4    0    0  0.16182922411E+02 -0.13243242422E+02  0.76234574484E+01  0.22257303320E+02  0.00000000000E+00 0. -1.
</event>
<event>
 8    1  0.2401501E-006  0.9118800E+02  0.7816164E-02  0.1184000E+00
        -11   -1    0    0    0    0  0.00000000000E+00  0.00000000000E+00  0.45593999997E+02  0.45594000000E+02  0.51100000000E-03 0. -1.
         11   -1    0    0    0    0 -0.00000000000E+00 -0.00000000000E+00 -0.45593999997E+02  0.45594000000E+02  0.51100000000E-03 0.  1.
         23    2    1    2    0    0 -0.88817841970E-15  0.35527136788E-14  0.00000000000E+00  0.91188000000E+02  0.91188000000E+02 0.  0.
    9900012    2    3    3    0    0  0.79446570102E+01 -0.27493297139E+02  0.23168522758E+02  0.54367090052E+02  0.40000013392E+02 0.  0.
        -12    1    3    3    0    0 -0.79446570102E+01  0.27493297139E+02 -0.23168522758E+02  0.36820909948E+02  0.00000000000E+00 0.  1.
         11    1    4    4    0    0 -0.51874570171E+01 -0.42161360676E+01  0.19974452495E+02  0.21063339393E+02  0.51100000000E-03 0. -1.
        -11    1    4    4    0    0  0.25371970016E+01 -0.21285817143E+02  0.58111601535E+01  0.22210199519E+02  0.51100000000E-03 0.  1.
        -12    1    4    4    0    0  0.10594917026E+02 -0.19913439287E+01 -0.26170898906E+01  0.11093551141E+02  0.00000000000E+00 0.  1.
</event>
<event>
 8    1  0.2401501E-006  0.9118800E+02  0.7816164E-02  0.1184000E+00
        -11   -1    0    0    0    0  0.00000000000E+00  0.00000000000E+00  0.45593999997E+02  0.45594000000E+02  0.51100000000E-03 0.  1.
         11   -1    0    0    0    0 -0.00000000000E+00 -0.00000000000E+00 -0.45593999997E+02  0.45594000000E+02  0.51100000000E-03 0. -1.
         23    2    1    2    0    0  0.00000000000E+00  0.00000000000E+00  0.71054273576E-14  0.91188000000E+02  0.91188000000E+02 0.  0.
    9900012    2    3    3    0    0  0.10964000707E+02  0.41882537443E+01 -0.34900283954E+02  0.54367073871E+02  0.39999976504E+02 0.  0.
        -12    1    3    3    0    0 -0.10964000707E+02 -0.41882537443E+01  0.34900283954E+02  0.36820926129E+02  0.00000000000E+00 0.  1.
         11    1    4    4    0    0  0.95850607313E+01 -0.69733738705E+01 -0.26017352629E+02  0.28590277551E+02  0.51100000000E-03 0. -1.
        -11    1    4    4    0    0  0.92886999023E+01  0.44487844716E+01 -0.11127729082E+02  0.15162387145E+02  0.51100000000E-03 0.  1.
        -12    1    4    4    0    0 -0.79097599269E+01  0.67128431433E+01  0.22447977568E+01  0.10614409175E+02  0.00000000000E+00 0.  1.
</event>
<event>
 8    1  0.2401501E-006  0.9118800E+02  0.7816164E-02  0.1184000E+00
        -11   -1    0    0    0    0  0.00000000000E+00  0.00000000000E+00  0.45593999997E+02  0.45594000000E+02  0.51100000000E-03 0. -1.
         11   -1    0    0    0    0 -0.00000000000E+00 -0.00000000000E+00 -0.45593999997E+02  0.45594000000E+02  0.51100000000E-03 0.  1.
         23    2    1    2    0    0 -0.53290705182E-14  0.35527136788E-14  0.00000000000E+00  0.91188000000E+02  0.91188000000E+02 0.  0.
    9900012    2    3    3    0    0  0.13983101335E+02 -0.24301138372E+02  0.23868565103E+02  0.54367070501E+02  0.39999968821E+02 0.  0.
        -12    1    3    3    0    0 -0.13983101335E+02  0.24301138372E+02 -0.23868565103E+02  0.36820929499E+02  0.00000000000E+00 0.  1.
         11    1    4    4    0    0  0.22925191487E+02 -0.87699883174E+01  0.30808744908E+01  0.24738004925E+02  0.51100000000E-03 0.  1.
        -11    1    4    4    0    0 -0.50731164893E+01 -0.14233930426E+01  0.10491448075E+02  0.11740231755E+02  0.51100000000E-03 0. -1.
        -12    1    4    4    0    0 -0.38689736629E+01 -0.14107757012E+02  0.10296242536E+02  0.17888833821E+02  0.00000000000E+00 0.  1.
</event>
<event>
 8    1  0.2401501E-006  0.9118800E+02  0.7816164E-02  0.1184000E+00
        -11   -1    0    0    0    0  0.00000000000E+00  0.00000000000E+00  0.45593999997E+02  0.45594000000E+02  0.51100000000E-03 0.  1.
         11   -1    0    0    0    0 -0.00000000000E+00 -0.00000000000E+00 -0.45593999997E+02  0.45594000000E+02  0.51100000000E-03 0. -1.
         23    2    1    2    0    0  0.88817841970E-15  0.35527136788E-14 -0.35527136788E-14  0.91188000000E+02  0.91188000000E+02 0.  0.
    9900012    2    3    3    0    0  0.10327184966E+01 -0.20994836146E+02 -0.30231271006E+02  0.54367090194E+02  0.40000013715E+02 0.  0.
        -12    1    3    3    0    0 -0.10327184966E+01  0.20994836146E+02  0.30231271006E+02  0.36820909806E+02  0.00000000000E+00 0.  1.
         11    1    4    4    0    0  0.29321359155E+01 -0.26502439853E+02 -0.18603868041E+02  0.32512776651E+02  0.51100000000E-03 0. -1.
        -11    1    4    4    0    0  0.72424975763E+01  0.56757961584E+01 -0.72631280940E+01  0.11722690098E+02  0.51100000000E-03 0.  1.
        -12    1    4    4    0    0 -0.91419149952E+01 -0.16819245157E+00 -0.43642748709E+01  0.10131623445E+02  0.00000000000E+00 0.  1.
</event>
<event>
 8    1  0.2401501E-006  0.9118800E+02  0.7816164E-02  0.1184000E+00
        -11   -1    0    0    0    0  0.00000000000E+00  0.00000000000E+00  0.45593999997E+02  0.45594000000E+02  0.51100000000E-03 0. -1.
         11   -1    0    0    0    0 -0.00000000000E+00 -0.00000000000E+00 -0.45593999997E+02  0.45594000000E+02  0.51100000000E-03 0.  1.
         23    2    1    2    0    0 -0.22204460493E-15  0.00000000000E+00 -0.35527136788E-14  0.91188000000E+02  0.91188000000E+02 0.  0.
    9900012    2    3    3    0    0  0.19647064766E+01 -0.36485725625E+02 -0.45506951172E+01  0.54367121793E+02  0.40000085751E+02 0.  0.
         12    1    3    3    0    0 -0.19647064766E+01  0.36485725625E+02  0.45506951172E+01  0.36820878207E+02  0.00000000000E+00 0. -1.
         11    1    4    4    0    0  0.27944620286E+01 -0.22643272619E+02  0.16027867529E+02  0.27882240776E+02  0.51100000000E-03 0. -1.
        -11    1    4    4    0    0  0.41351764752E+01 -0.47336135879E+01 -0.82741133356E+01  0.10390752323E+02  0.51100000000E-03 0.  1.
         12    1    4    4    0    0 -0.49649320272E+01 -0.91088394178E+01 -0.12304449311E+02  0.16094128694E+02  0.00000000000E+00 0. -1.
</event>
<event>
 8    1  0.2401501E-006  0.9118800E+02  0.7816164E-02  0.1184000E+00
        -11   -1    0    0    0    0  0.00000000000E+00  0.00000000000E+00  0.45593999997E+02  0.45594000000E+02  0.51100000000E-03 0.  1.
         11   -1    0    0    0    0 -0.00000000000E+00 -0.00000000000E+00 -0.45593999997E+02  0.45594000000E+02  0.51100000000E-03 0. -1.
         23    2    1    2    0    0  0.35527136788E-14  0.00000000000E+00  0.35527136788E-14  0.91188000000E+02  0.91188000000E+02 0.  0.
    9900012    2    3    3    0    0 -0.21328455871E+02  0.69031813244E+01 -0.29209981265E+02  0.54367082741E+02  0.39999996725E+02 0.  0.
        -12    1    3    3    0    0  0.21328455871E+02 -0.69031813244E+01  0.29209981265E+02  0.36820917259E+02  0.00000000000E+00 0.  1.
         11    1    4    4    0    0 -0.31317446811E+01 -0.57641594293E+01  0.10092906952E+01  0.66371700778E+01  0.51100000000E-03 0. -1.
        -11    1    4    4    0    0 -0.25161422170E+02  0.34569446233E+01 -0.20818870530E+02  0.32840112699E+02  0.51100000000E-03 0.  1.
        -12    1    4    4    0    0  0.69647109795E+01  0.92103961304E+01 -0.94004014309E+01  0.14889799964E+02  0.00000000000E+00 0.  1.
</event>
<event>
 8    1  0.2401501E-006  0.9118800E+02  0.7816164E-02  0.1184000E+00
        -11   -1    0    0    0    0  0.00000000000E+00  0.00000000000E+00  0.45593999997E+02  0.45594000000E+02  0.51100000000E-03 0.  1.
         11   -1    0    0    0    0 -0.00000000000E+00 -0.00000000000E+00 -0.45593999997E+02  0.45594000000E+02  0.51100000000E-03 0. -1.
         23    2    1    2    0    0  0.00000000000E+00  0.00000000000E+00  0.00000000000E+00  0.91188000000E+02  0.91188000000E+02 0.  0.
    9900012    2    3    3    0    0 -0.16529094691E+02  0.16933060580E+02 -0.28210639973E+02  0.54367085840E+02  0.40000003789E+02 0.  0.
        -12    1    3    3    0    0  0.16529094691E+02 -0.16933060580E+02  0.28210639973E+02  0.36820914160E+02  0.00000000000E+00 0.  1.
         11    1    4    4    0    0 -0.20628073902E+02  0.38355489926E+01 -0.15992202873E+02  0.26381421910E+02  0.51100000000E-03 0. -1.
        -11    1    4    4    0    0  0.79080523183E-01  0.14135774613E+02  0.96013081235E+00  0.14168564821E+02  0.51100000000E-03 0.  1.
         12    1    4    4    0    0  0.40198986879E+01 -0.10382630256E+01 -0.13178567912E+02  0.13817099109E+02  0.00000000000E+00 0. -1.
</event>
<event>
 8    1  0.2401501E-006  0.9118800E+02  0.7816164E-02  0.1184000E+00
        -11   -1    0    0    0    0  0.00000000000E+00  0.00000000000E+00  0.45593999997E+02  0.45594000000E+02  0.51100000000E-03 0.  1.
         11   -1    0    0    0    0 -0.00000000000E+00 -0.00000000000E+00 -0.45593999997E+02  0.45594000000E+02  0.51100000000E-03 0. -1.
         23    2    1    2    0    0  0.71054273576E-14  0.00000000000E+00  0.88817841970E-15  0.91188000000E+02  0.91188000000E+02 0.  0.
    9900012    2    3    3    0    0 -0.32940961518E+02  0.14503094718E+02  0.77675443037E+01  0.54367062388E+02  0.39999950325E+02 0.  0.
        -12    1    3    3    0    0  0.32940961518E+02 -0.14503094718E+02 -0.77675443037E+01  0.36820937612E+02  0.00000000000E+00 0.  1.
         11    1    4    4    0    0 -0.41907725768E+01  0.17929655279E+02  0.12421506977E+02  0.22211009637E+02  0.51100000000E-03 0. -1.
        -11    1    4    4    0    0 -0.11992300955E+01 -0.29588639666E+00 -0.42489354979E+01  0.44248338622E+01  0.51100000000E-03 0.  1.
         12    1    4    4    0    0 -0.27550958846E+02 -0.31306741647E+01 -0.40502717586E+00  0.27731218889E+02  0.00000000000E+00 0. -1.
</event>
<event>
 8    1  0.2401501E-006  0.9118800E+02  0.7816164E-02  0.1184000E+00
        -11   -1    0    0    0    0  0.00000000000E+00  0.00000000000E+00  0.45593999997E+02  0.45594000000E+02  0.51100000000E-03 0. -1.
         11   -1    0    0    0    0 -0.00000000000E+00 -0.00000000000E+00 -0.45593999997E+02  0.45594000000E+02  0.51100000000E-03 0.  1.
         23    2    1    2    0    0  0.00000000000E+00  0.00000000000E+00  0.00000000000E+00  0.91188000000E+02  0.91188000000E+02 0.  0.
    9900012    2    3    3    0    0  0.19975410968E+02 -0.28211789129E+02  0.12682932337E+02  0.54367097487E+02  0.40000030341E+02 0.  0.
        -12    1    3    3    0    0 -0.19975410968E+02  0.28211789129E+02 -0.12682932337E+02  0.36820902513E+02  0.00000000000E+00 0.  1.
         11    1    4    4    0    0  0.26357218565E+01  0.46078461407E+01  0.97207297391E+01  0.11075733054E+02  0.51100000000E-03 0. -1.
        -11    1    4    4    0    0  0.11278829886E+02 -0.12064707908E+02 -0.87614010301E+01  0.18695756972E+02  0.51100000000E-03 0.  1.
         12    1    4    4    0    0  0.60608592256E+01 -0.20754927362E+02  0.11723603628E+02  0.24595607461E+02  0.00000000000E+00 0. -1.
</event>
<event>
 8    1  0.2401501E-006  0.9118800E+02  0.7816164E-02  0.1184000E+00
        -11   -1    0    0    0    0  0.00000000000E+00  0.00000000000E+00  0.45593999997E+02  0.45594000000E+02  0.51100000000E-03 0.  1.
         11   -1    0    0    0    0 -0.00000000000E+00 -0.00000000000E+00 -0.45593999997E+02  0.45594000000E+02  0.51100000000E-03 0. -1.
         23    2    1    2    0    0  0.00000000000E+00  0.00000000000E+00 -0.35527136788E-14  0.91188000000E+02  0.91188000000E+02 0.  0.
    9900012    2    3    3    0    0 -0.18555038026E+02 -0.11847469986E+02 -0.29514878892E+02  0.54367081255E+02  0.39999993338E+02 0.  0.
        -12    1    3    3    0    0  0.18555038026E+02  0.11847469986E+02  0.29514878892E+02  0.36820918745E+02  0.00000000000E+00 0.  1.
         11    1    4    4    0    0  0.26517975617E+00  0.40054992954E+01 -0.22278411419E+01  0.45910370640E+01  0.51100000000E-03 0. -1.
        -11    1    4    4    0    0 -0.18202565547E+02  0.60539128917E+01 -0.88028944518E+01  0.21106259848E+02  0.51100000000E-03 0.  1.
        -12    1    4    4    0    0 -0.61765223566E+00 -0.21906882173E+02 -0.18484143298E+02  0.28669784343E+02  0.00000000000E+00 0.  1.
</event>
<event>
 8    1  0.2401501E-006  0.9118800E+02  0.7816164E-02  0.1184000E+00
        -11   -1    0    0    0    0  0.00000000000E+00  0.00000000000E+00  0.45593999997E+02  0.45594000000E+02  0.51100000000E-03 0.  1.
         11   -1    0    0    0    0 -0.00000000000E+00 -0.00000000000E+00 -0.45593999997E+02  0.45594000000E+02  0.51100000000E-03 0. -1.
         23    2    1    2    0    0  0.00000000000E+00  0.00000000000E+00 -0.88817841970E-15  0.91188000000E+02  0.91188000000E+02 0.  0.
    9900012    2    3    3    0    0 -0.24009407523E+02  0.27718525579E+02 -0.33182693646E+01  0.54367092604E+02  0.40000019210E+02 0.  0.
        -12    1    3    3    0    0  0.24009407523E+02 -0.27718525579E+02  0.33182693646E+01  0.36820907396E+02  0.00000000000E+00 0.  1.
         11    1    4    4    0    0  0.49702179827E+01  0.10951291087E+02  0.74775179341E+01  0.14161465955E+02  0.51100000000E-03 0.  1.
        -11    1    4    4    0    0 -0.15993449907E+02  0.13949614193E+02 -0.15313518301E+02  0.26170327072E+02  0.51100000000E-03 0. -1.
        -12    1    4    4    0    0 -0.12986175598E+02  0.28176202988E+01  0.45177310022E+01  0.14035299577E+02  0.00000000000E+00 0.  1.
</event>
<event>
 8    1  0.2401501E-006  0.9118800E+02  0.7816164E-02  0.1184000E+00
        -11   -1    0    0    0    0  0.00000000000E+00  0.00000000000E+00  0.45593999997E+02  0.45594000000E+02  0.51100000000E-03 0.  1.
         11   -1    0    0    0    0 -0.00000000000E+00 -0.00000000000E+00 -0.45593999997E+02  0.45594000000E+02  0.51100000000E-03 0. -1.
         23    2    1    2    0    0  0.00000000000E+00  0.00000000000E+00  0.00000000000E+00  0.91188000000E+02  0.91188000000E+02 0.  0.
    9900012    2    3    3    0    0 -0.27844700893E+02  0.16525183613E+02  0.17531975764E+02  0.54367092414E+02  0.40000018776E+02 0.  0.
        -12    1    3    3    0    0  0.27844700893E+02 -0.16525183613E+02 -0.17531975764E+02  0.36820907586E+02  0.00000000000E+00 0.  1.
         11    1    4    4    0    0 -0.36354207913E+02  0.13110287684E+02  0.20812103311E+02  0.43893641004E+02  0.51100000000E-03 0. -1.
        -11    1    4    4    0    0  0.75388011043E+01  0.24533805761E+01 -0.12493028200E+01  0.80257931782E+01  0.51100000000E-03 0.  1.
         12    1    4    4    0    0  0.97070591531E+00  0.96151535279E+00 -0.20308247271E+01  0.24476582319E+01  0.00000000000E+00 0. -1.
</event>
<event>
 8    1  0.2401501E-006  0.9118800E+02  0.7816164E-02  0.1184000E+00
        -11   -1    0    0    0    0  0.00000000000E+00  0.00000000000E+00  0.45593999997E+02  0.45594000000E+02  0.51100000000E-03 0. -1.
         11   -1    0    0    0    0 -0.00000000000E+00 -0.00000000000E+00 -0.45593999997E+02  0.45594000000E+02  0.51100000000E-03 0.  1.
         23    2    1    2    0    0  0.00000000000E+00  0.00000000000E+00  0.17763568394E-14  0.91188000000E+02  0.91188000000E+02 0.  0.
    9900012    2    3    3    0    0  0.33130487329E+02  0.34539436422E+01  0.15691425403E+02  0.54367085448E+02  0.40000002895E+02 0.  0.
        -12    1    3    3    0    0 -0.33130487329E+02 -0.34539436422E+01 -0.15691425403E+02  0.36820914552E+02  0.00000000000E+00 0.  1.
         11    1    4    4    0    0  0.22641465336E+02  0.40646600889E+01  0.23291344936E+02  0.32735976591E+02  0.51100000000E-03 0. -1.
        -11    1    4    4    0    0  0.10985001152E+02 -0.70012408187E+01 -0.78636683491E+01  0.15215942411E+02  0.51100000000E-03 0.  1.
         12    1    4    4    0    0 -0.49597915932E+00  0.63905243720E+01  0.26374881589E+00  0.64151664447E+01  0.00000000000E+00 0. -1.
</event>
<event>
 8    1  0.2401501E-006  0.9118800E+02  0.7816164E-02  0.1184000E+00
        -11   -1    0    0    0    0  0.00000000000E+00  0.00000000000E+00  0.45593999997E+02  0.45594000000E+02  0.51100000000E-03 0.  1.
         11   -1    0    0    0    0 -0.00000000000E+00 -0.00000000000E+00 -0.45593999997E+02  0.45594000000E+02  0.51100000000E-03 0. -1.
         23    2    1    2    0    0  0.35527136788E-14  0.00000000000E+00 -0.35527136788E-14  0.91188000000E+02  0.91188000000E+02 0.  0.
    9900012    2    3    3    0    0  0.15841975240E+02 -0.16464810511E+02 -0.28874296165E+02  0.54367039343E+02  0.39999897790E+02 0.  0.
        -12    1    3    3    0    0 -0.15841975240E+02  0.16464810511E+02  0.28874296165E+02  0.36820960657E+02  0.00000000000E+00 0.  1.
         11    1    4    4    0    0 -0.51672846312E+01 -0.32473214028E+00 -0.11817836177E+02  0.12902229791E+02  0.51100000000E-03 0. -1.
        -11    1    4    4    0    0 -0.30736159978E+01 -0.12882111914E+02 -0.37804226780E+01  0.13772709194E+02  0.51100000000E-03 0.  1.
         12    1    4    4    0    0  0.24082875869E+02 -0.32579664572E+01 -0.13276037310E+02  0.27692100358E+02  0.00000000000E+00 0. -1.
</event>
<event>
 8    1  0.2401501E-006  0.9118800E+02  0.7816164E-02  0.1184000E+00
        -11   -1    0    0    0    0  0.00000000000E+00  0.00000000000E+00  0.45593999997E+02  0.45594000000E+02  0.51100000000E-03 0. -1.
         11   -1    0    0    0    0 -0.00000000000E+00 -0.00000000000E+00 -0.45593999997E+02  0.45594000000E+02  0.51100000000E-03 0.  1.
         23    2    1    2    0    0  0.88817841970E-15  0.00000000000E+00  0.00000000000E+00  0.91188000000E+02  0.91188000000E+02 0.  0.
    9900012    2    3    3    0    0  0.25619492175E+01 -0.18517956704E+02  0.31722281037E+02  0.54367062771E+02  0.39999951198E+02 0.  0.
        -12    1    3    3    0    0 -0.25619492175E+01  0.18517956704E+02 -0.31722281037E+02  0.36820937229E+02  0.00000000000E+00 0.  1.
         11    1    4    4    0    0  0.66670944541E+00 -0.88730030419E+01  0.79927825546E+00  0.89338418644E+01  0.51100000000E-03 0. -1.
        -11    1    4    4    0    0  0.15328076446E+02  0.15842378996E+01  0.17859074626E+02  0.23588265812E+02  0.51100000000E-03 0.  1.
         12    1    4    4    0    0 -0.13432836674E+02 -0.11229191561E+02  0.13063928155E+02  0.21844955094E+02  0.00000000000E+00 0. -1.
</event>
<event>
 8    1  0.2401501E-006  0.9118800E+02  0.7816164E-02  0.1184000E+00
        -11   -1    0    0    0    0  0.00000000000E+00  0.00000000000E+00  0.45593999997E+02  0.45594000000E+02  0.51100000000E-03 0. -1.
         11   -1    0    0    0    0 -0.00000000000E+00 -0.00000000000E+00 -0.45593999997E+02  0.45594000000E+02  0.51100000000E-03 0.  1.
         23    2    1    2    0    0  0.35527136788E-14  0.00000000000E+00 -0.35527136788E-14  0.91188000000E+02  0.91188000000E+02 0.  0.
    9900012    2    3    3    0    0  0.21149832061E+02 -0.20684393688E+02 -0.21923052353E+02  0.54367085251E+02  0.40000002448E+02 0.  0.
         12    1    3    3    0    0 -0.21149832061E+02  0.20684393688E+02  0.21923052353E+02  0.36820914749E+02  0.00000000000E+00 0. -1.
         11    1    4    4    0    0  0.86499609697E+00 -0.11273329432E+02 -0.10842215814E+02  0.15664923197E+02  0.51100000000E-03 0. -1.
        -11    1    4    4    0    0  0.63984415386E+01 -0.74120490044E+01 -0.19866661051E+02  0.22148651113E+02  0.51100000000E-03 0.  1.
         12    1    4    4    0    0  0.13886394426E+02 -0.19990152517E+01  0.87858245125E+01  0.16553510941E+02  0.00000000000E+00 0. -1.
</event>
<event>
 8    1  0.2401501E-006  0.9118800E+02  0.7816164E-02  0.1184000E+00
        -11   -1    0    0    0    0  0.00000000000E+00  0.00000000000E+00  0.45593999997E+02  0.45594000000E+02  0.51100000000E-03 0.  1.
         11   -1    0    0    0    0 -0.00000000000E+00 -0.00000000000E+00 -0.45593999997E+02  0.45594000000E+02  0.51100000000E-03 0. -1.
         23    2    1    2    0    0  0.00000000000E+00  0.35527136788E-14 -0.17763568394E-14  0.91188000000E+02  0.91188000000E+02 0.  0.
    9900012    2    3    3    0    0  0.32529473634E+02  0.98652037257E+01  0.14152292744E+02  0.54367132420E+02  0.40000109978E+02 0.  0.
         12    1    3    3    0    0 -0.32529473634E+02 -0.98652037257E+01 -0.14152292744E+02  0.36820867580E+02  0.00000000000E+00 0. -1.
         11    1    4    4    0    0  0.13591829474E+02 -0.80479116066E+01 -0.62317524240E+01  0.16980619783E+02  0.51100000000E-03 0. -1.
        -11    1    4    4    0    0  0.13355663767E+02  0.53570695385E+01  0.18620560940E+02  0.23532896946E+02  0.51100000000E-03 0.  1.
         12    1    4    4    0    0  0.55819803924E+01  0.12556045794E+02  0.17634842278E+01  0.13853615690E+02  0.00000000000E+00 0. -1.
</event>
<event>
 8    1  0.2401501E-006  0.9118800E+02  0.7816164E-02  0.1184000E+00
        -11   -1    0    0    0    0  0.00000000000E+00  0.00000000000E+00  0.45593999997E+02  0.45594000000E+02  0.51100000000E-03 0.  1.
         11   -1    0    0    0    0 -0.00000000000E+00 -0.00000000000E+00 -0.45593999997E+02  0.45594000000E+02  0.51100000000E-03 0. -1.
         23    2    1    2    0    0  0.00000000000E+00  0.00000000000E+00  0.00000000000E+00  0.91188000000E+02  0.91188000000E+02 0.  0.
    9900012    2    3    3    0    0  0.31915855237E+02  0.15664833407E+02 -0.95796343680E+01  0.54367106260E+02  0.40000050342E+02 0.  0.
         12    1    3    3    0    0 -0.31915855237E+02 -0.15664833407E+02  0.95796343680E+01  0.36820893740E+02  0.00000000000E+00 0. -1.
         11    1    4    4    0    0  0.19862335314E+02  0.17505018042E+02  0.12311669351E+02  0.29197863334E+02  0.51100000000E-03 0. -1.
        -11    1    4    4    0    0  0.75600342524E+00 -0.32330594864E-01 -0.48965005230E+00  0.90130121556E+00  0.51100000000E-03 0.  1.
         12    1    4    4    0    0  0.11297516498E+02 -0.18078540406E+01 -0.21401653666E+02  0.24267941711E+02  0.00000000000E+00 0. -1.
</event>
<event>
 8    1  0.2401501E-006  0.9118800E+02  0.7816164E-02  0.1184000E+00
        -11   -1    0    0    0    0  0.00000000000E+00  0.00000000000E+00  0.45593999997E+02  0.45594000000E+02  0.51100000000E-03 0.  1.
         11   -1    0    0    0    0 -0.00000000000E+00 -0.00000000000E+00 -0.45593999997E+02  0.45594000000E+02  0.51100000000E-03 0. -1.
         23    2    1    2    0    0  0.35527136788E-14  0.00000000000E+00 -0.35527136788E-14  0.91188000000E+02  0.91188000000E+02 0.  0.
    9900012    2    3    3    0    0 -0.22947455419E+02  0.22747630977E+02 -0.17656141573E+02  0.54367085284E+02  0.40000002522E+02 0.  0.
        -12    1    3    3    0    0  0.22947455419E+02 -0.22747630977E+02  0.17656141573E+02  0.36820914716E+02  0.00000000000E+00 0.  1.
         11    1    4    4    0    0 -0.17664713608E+02  0.14531688723E+01 -0.21873720459E+01  0.17858846642E+02  0.51100000000E-03 0.  1.
        -11    1    4    4    0    0 -0.39775552356E+01  0.24828578726E+02 -0.18865663126E+02  0.31435529464E+02  0.51100000000E-03 0. -1.
        -12    1    4    4    0    0 -0.13051865751E+01 -0.35341166213E+01  0.33968935988E+01  0.50727091786E+01  0.00000000000E+00 0.  1.
</event>
<event>
 8    1  0.2401501E-006  0.9118800E+02  0.7816164E-02  0.1184000E+00
        -11   -1    0    0    0    0  0.00000000000E+00  0.00000000000E+00  0.45593999997E+02  0.45594000000E+02  0.51100000000E-03 0. -1.
         11   -1    0    0    0    0 -0.00000000000E+00 -0.00000000000E+00 -0.45593999997E+02  0.45594000000E+02  0.51100000000E-03 0.  1.
         23    2    1    2    0    0  0.10658141036E-13  0.00000000000E+00  0.00000000000E+00  0.91188000000E+02  0.91188000000E+02 0.  0.
    9900012    2    3    3    0    0  0.26789378429E+02  0.19123565948E+02 -0.16504524393E+02  0.54367069857E+02  0.39999967353E+02 0.  0.
         12    1    3    3    0    0 -0.26789378429E+02 -0.19123565948E+02  0.16504524393E+02  0.36820930143E+02  0.00000000000E+00 0. -1.
         11    1    4    4    0    0 -0.57449973918E+01 -0.60153219302E+01 -0.57958962800E+01  0.10138121468E+02  0.51100000000E-03 0. -1.
        -11    1    4    4    0    0  0.12803246030E+02  0.14832256837E+02 -0.15815388305E+00  0.19594488120E+02  0.51100000000E-03 0.  1.
         12    1    4    4    0    0  0.19731129791E+02  0.10306631041E+02 -0.10550474230E+02  0.24634460268E+02  0.00000000000E+00 0. -1.
</event>
<event>
 8    1  0.2401501E-006  0.9118800E+02  0.7816164E-02  0.1184000E+00
        -11   -1    0    0    0    0  0.00000000000E+00  0.00000000000E+00  0.45593999997E+02  0.45594000000E+02  0.51100000000E-03 0.  1.
         11   -1    0    0    0    0 -0.00000000000E+00 -0.00000000000E+00 -0.45593999997E+02  0.45594000000E+02  0.51100000000E-03 0. -1.
         23    2    1    2    0    0  0.00000000000E+00 -0.35527136788E-14 -0.17763568394E-14  0.91188000000E+02  0.91188000000E+02 0.  0.
    9900012    2    3    3    0    0 -0.31239479542E+02 -0.13110094310E+02 -0.14422221486E+02  0.54367080301E+02  0.39999991162E+02 0.  0.
        -12    1    3    3    0    0  0.31239479542E+02  0.13110094310E+02  0.14422221486E+02  0.36820919699E+02  0.00000000000E+00 0.  1.
         11    1    4    4    0    0  0.52482548161E+01  0.45529590787E+01 -0.47931638597E+01  0.84408551127E+01  0.51100000000E-03 0. -1.
        -11    1    4    4    0    0 -0.25729410295E+01  0.38184507431E+01  0.14965600799E+00  0.46068415211E+01  0.51100000000E-03 0.  1.
         12    1    4    4    0    0 -0.33914793329E+02 -0.21481504132E+02 -0.97787136340E+01  0.41319383667E+02  0.00000000000E+00 0. -1.
</event>
<event>
 8    1  0.2401501E-006  0.9118800E+02  0.7816164E-02  0.1184000E+00
        -11   -1    0    0    0    0  0.00000000000E+00  0.00000000000E+00  0.45593999997E+02  0.45594000000E+02  0.51100000000E-03 0.  1.
         11   -1    0    0    0    0 -0.00000000000E+00 -0.00000000000E+00 -0.45593999997E+02  0.45594000000E+02  0.51100000000E-03 0. -1.
         23    2    1    2    0    0  0.00000000000E+00  0.00000000000E+00  0.35527136788E-14  0.91188000000E+02  0.91188000000E+02 0.  0.
    9900012    2    3    3    0    0 -0.23501502179E+02  0.19208113105E+02  0.20844842866E+02  0.54367086272E+02  0.40000004773E+02 0.  0.
         12    1    3    3    0    0  0.23501502179E+02 -0.19208113105E+02 -0.20844842866E+02  0.36820913728E+02  0.00000000000E+00 0. -1.
         11    1    4    4    0    0 -0.28902713199E+02  0.19268315374E+02  0.17012200399E+02  0.38678802597E+02  0.51100000000E-03 0. -1.
        -11    1    4    4    0    0  0.19919884560E+01  0.19721240548E+01  0.88543465235E+01  0.92874508837E+01  0.51100000000E-03 0.  1.
         12    1    4    4    0    0  0.34092225644E+01 -0.20323263239E+01 -0.50217040573E+01  0.64008327911E+01  0.00000000000E+00 0. -1.
</event>
<event>
 8    1  0.2401501E-006  0.9118800E+02  0.7816164E-02  0.1184000E+00
        -11   -1    0    0    0    0  0.00000000000E+00  0.00000000000E+00  0.45593999997E+02  0.45594000000E+02  0.51100000000E-03 0.  1.
         11   -1    0    0    0    0 -0.00000000000E+00 -0.00000000000E+00 -0.45593999997E+02  0.45594000000E+02  0.51100000000E-03 0. -1.
         23    2    1    2    0    0  0.00000000000E+00  0.00000000000E+00  0.00000000000E+00  0.91188000000E+02  0.91188000000E+02 0.  0.
    9900012    2    3    3    0    0  0.54501925129E+01 -0.49034194998E+01  0.36083670768E+02  0.54367089944E+02  0.40000013145E+02 0.  0.
         12    1    3    3    0    0 -0.54501925129E+01  0.49034194998E+01 -0.36083670768E+02  0.36820910056E+02  0.00000000000E+00 0. -1.
         11    1    4    4    0    0 -0.67502220878E+01  0.43678498196E+01 -0.29781684013E+01  0.85739779314E+01  0.51100000000E-03 0. -1.
        -11    1    4    4    0    0  0.11965053445E+02 -0.77712515358E+01  0.11871387552E+02  0.18560298949E+02  0.51100000000E-03 0.  1.
        -12    1    4    4    0    0  0.23536115545E+00 -0.15000177836E+01  0.27190451617E+02  0.27232813064E+02  0.00000000000E+00 0.  1.
</event>
<event>
 8    1  0.2401501E-006  0.9118800E+02  0.7816164E-02  0.1184000E+00
        -11   -1    0    0    0    0  0.00000000000E+00  0.00000000000E+00  0.45593999997E+02  0.45594000000E+02  0.51100000000E-03 0. -1.
         11   -1    0    0    0    0 -0.00000000000E+00 -0.00000000000E+00 -0.45593999997E+02  0.45594000000E+02  0.51100000000E-03 0.  1.
         23    2    1    2    0    0  0.00000000000E+00  0.35527136788E-14  0.35527136788E-14  0.91188000000E+02  0.91188000000E+02 0.  0.
    9900012    2    3    3    0    0  0.21712560731E+02  0.29047848162E+02  0.63691048652E+01  0.54367105482E+02  0.40000048567E+02 0.  0.
        -12    1    3    3    0    0 -0.21712560731E+02 -0.29047848162E+02 -0.63691048652E+01  0.36820894518E+02  0.00000000000E+00 0.  1.
         11    1    4    4    0    0 -0.22987002723E+01  0.25935729544E+01  0.24604509012E+01  0.42502308772E+01  0.51100000000E-03 0. -1.
        -11    1    4    4    0    0  0.21046256581E+01  0.23234399830E+01 -0.13019355841E+02  0.13391469273E+02  0.51100000000E-03 0.  1.
        -12    1    4    4    0    0  0.21906635346E+02  0.24130835224E+02  0.16928009805E+02  0.36725405331E+02  0.00000000000E+00 0.  1.
</event>
<event>
 8    1  0.2401501E-006  0.9118800E+02  0.7816164E-02  0.1184000E+00
        -11   -1    0    0    0    0  0.00000000000E+00  0.00000000000E+00  0.45593999997E+02  0.45594000000E+02  0.51100000000E-03 0.  1.
         11   -1    0    0    0    0 -0.00000000000E+00 -0.00000000000E+00 -0.45593999997E+02  0.45594000000E+02  0.51100000000E-03 0. -1.
         23    2    1    2    0    0 -0.71054273576E-14  0.00000000000E+00  0.17763568394E-14  0.91188000000E+02  0.91188000000E+02 0.  0.
    9900012    2    3    3    0    0 -0.34664199265E+02 -0.63202537921E+01  0.10687906642E+02  0.54367032236E+02  0.39999881588E+02 0.  0.
         12    1    3    3    0    0  0.34664199265E+02  0.63202537921E+01 -0.10687906642E+02  0.36820967764E+02  0.00000000000E+00 0. -1.
         11    1    4    4    0    0  0.24727501493E+01  0.35482343333E+01  0.24274144198E+01  0.49595162276E+01  0.51100000000E-03 0. -1.
        -11    1    4    4    0    0  0.52709240755E+01 -0.86641710964E+00  0.13240503820E+01  0.55033107211E+01  0.51100000000E-03 0.  1.
        -12    1    4    4    0    0 -0.42407873490E+02 -0.90020710157E+01  0.69364418400E+01  0.43904205287E+02  0.00000000000E+00 0.  1.
</event>
<event>
 8    1  0.2401501E-006  0.9118800E+02  0.7816164E-02  0.1184000E+00
        -11   -1    0    0    0    0  0.00000000000E+00  0.00000000000E+00  0.45593999997E+02  0.45594000000E+02  0.51100000000E-03 0. -1.
         11   -1    0    0    0    0 -0.00000000000E+00 -0.00000000000E+00 -0.45593999997E+02  0.45594000000E+02  0.51100000000E-03 0.  1.
         23    2    1    2    0    0  0.88817841970E-15  0.00000000000E+00  0.71054273576E-14  0.91188000000E+02  0.91188000000E+02 0.  0.
    9900012    2    3    3    0    0 -0.60669672772E+01 -0.11129714971E+02  0.34570261010E+02  0.54367060392E+02  0.39999945776E+02 0.  0.
        -12    1    3    3    0    0  0.60669672772E+01  0.11129714971E+02 -0.34570261010E+02  0.36820939608E+02  0.00000000000E+00 0.  1.
         11    1    4    4    0    0  0.45800928182E+01 -0.92572902511E+01  0.19437919315E+02  0.22011528356E+02  0.51100000000E-03 0. -1.
        -11    1    4    4    0    0  0.45632590301E+01 -0.99387133966E+01  0.87062118636E+01  0.13978536484E+02  0.51100000000E-03 0.  1.
        -12    1    4    4    0    0 -0.15210319125E+02  0.80662886764E+01  0.64261298314E+01  0.18376995552E+02  0.00000000000E+00 0.  1.
</event>
<event>
 8    1  0.2401501E-006  0.9118800E+02  0.7816164E-02  0.1184000E+00
        -11   -1    0    0    0    0  0.00000000000E+00  0.00000000000E+00  0.45593999997E+02  0.45594000000E+02  0.51100000000E-03 0.  1.
         11   -1    0    0    0    0 -0.00000000000E+00 -0.00000000000E+00 -0.45593999997E+02  0.45594000000E+02  0.51100000000E-03 0. -1.
         23    2    1    2    0    0  0.00000000000E+00  0.00000000000E+00  0.00000000000E+00  0.91188000000E+02  0.91188000000E+02 0.  0.
    9900012    2    3    3    0    0  0.23534053697E+02 -0.19930950794E+02 -0.20116789832E+02  0.54367085887E+02  0.40000003898E+02 0.  0.
        -12    1    3    3    0    0 -0.23534053697E+02  0.19930950794E+02  0.20116789832E+02  0.36820914113E+02  0.00000000000E+00 0.  1.
         11    1    4    4    0    0  0.14070512837E+02  0.58626477269E+01  0.40473143887E+01  0.15771199189E+02  0.51100000000E-03 0. -1.
        -11    1    4    4    0    0  0.18065011590E+01 -0.10920399462E+02 -0.27190972288E+01  0.11397897212E+02  0.51100000000E-03 0.  1.
         12    1    4    4    0    0  0.76570397011E+01 -0.14873199059E+02 -0.21445006991E+02  0.27197989486E+02  0.00000000000E+00 0. -1.
</event>
<event>
 8    1  0.2401501E-006  0.9118800E+02  0.7816164E-02  0.1184000E+00
        -11   -1    0    0    0    0  0.00000000000E+00  0.00000000000E+00  0.45593999997E+02  0.45594000000E+02  0.51100000000E-03 0.  1.
         11   -1    0    0    0    0 -0.00000000000E+00 -0.00000000000E+00 -0.45593999997E+02  0.45594000000E+02  0.51100000000E-03 0. -1.
         23    2    1    2    0    0  0.00000000000E+00 -0.28865798640E-14  0.00000000000E+00  0.91188000000E+02  0.91188000000E+02 0.  0.
    9900012    2    3    3    0    0  0.28688330201E+02  0.92069713078E+00 -0.23063212257E+02  0.54367085664E+02  0.40000003387E+02 0.  0.
        -12    1    3    3    0    0 -0.28688330201E+02 -0.92069713078E+00  0.23063212257E+02  0.36820914336E+02  0.00000000000E+00 0.  1.
         11    1    4    4    0    0 -0.16476446970E+01 -0.10022315167E+02 -0.96888450891E+01  0.14036924655E+02  0.51100000000E-03 0.  1.
        -11    1    4    4    0    0 -0.82376168708E+00 -0.30533214050E+01  0.93117064300E+00  0.32967307969E+01  0.51100000000E-03 0. -1.
         12    1    4    4    0    0  0.31159736585E+02  0.13996333703E+02 -0.14305537811E+02  0.37033430212E+02  0.00000000000E+00 0. -1.
</event>
<event>
 8    1  0.2401501E-006  0.9118800E+02  0.7816164E-02  0.1184000E+00
        -11   -1    0    0    0    0  0.00000000000E+00  0.00000000000E+00  0.45593999997E+02  0.45594000000E+02  0.51100000000E-03 0. -1.
         11   -1    0    0    0    0 -0.00000000000E+00 -0.00000000000E+00 -0.45593999997E+02  0.45594000000E+02  0.51100000000E-03 0.  1.
         23    2    1    2    0    0  0.00000000000E+00  0.00000000000E+00  0.35527136788E-14  0.91188000000E+02  0.91188000000E+02 0.  0.
    9900012    2    3    3    0    0 -0.11841112320E+02  0.20738393059E+02 -0.28026540169E+02  0.54367084184E+02  0.40000000014E+02 0.  0.
         12    1    3    3    0    0  0.11841112320E+02 -0.20738393059E+02  0.28026540169E+02  0.36820915816E+02  0.00000000000E+00 0. -1.
         11    1    4    4    0    0 -0.11953553344E+02  0.11433536824E+02 -0.12499233541E+01  0.16588414949E+02  0.51100000000E-03 0. -1.
        -11    1    4    4    0    0  0.72417184376E+01 -0.60739599500E+01 -0.12121276718E+02  0.15370778280E+02  0.51100000000E-03 0.  1.
        -12    1    4    4    0    0 -0.71292774137E+01  0.15378816185E+02 -0.14655340097E+02  0.22407890955E+02  0.00000000000E+00 0.  1.
</event>
<event>
 8    1  0.2401501E-006  0.9118800E+02  0.7816164E-02  0.1184000E+00
        -11   -1    0    0    0    0  0.00000000000E+00  0.00000000000E+00  0.45593999997E+02  0.45594000000E+02  0.51100000000E-03 0. -1.
         11   -1    0    0    0    0 -0.00000000000E+00 -0.00000000000E+00 -0.45593999997E+02  0.45594000000E+02  0.51100000000E-03 0.  1.
         23    2    1    2    0    0  0.00000000000E+00 -0.17763568394E-14  0.00000000000E+00  0.91188000000E+02  0.91188000000E+02 0.  0.
    9900012    2    3    3    0    0 -0.27195711570E+02  0.12510006935E+02  0.21439904602E+02  0.54367129415E+02  0.40000103127E+02 0.  0.
         12    1    3    3    0    0  0.27195711570E+02 -0.12510006935E+02 -0.21439904602E+02  0.36820870585E+02  0.00000000000E+00 0. -1.
         11    1    4    4    0    0 -0.14861476586E+02  0.48796189316E+01  0.13939140078E+02  0.20951701449E+02  0.51100000000E-03 0. -1.
        -11    1    4    4    0    0 -0.19241549526E+02  0.17556500959E+01 -0.29872199291E+01  0.19551036253E+02  0.51100000000E-03 0.  1.
         12    1    4    4    0    0  0.69073145424E+01  0.58747379080E+01  0.10487984453E+02  0.13864391713E+02  0.00000000000E+00 0. -1.
</event>
<event>
 8    1  0.2401501E-006  0.9118800E+02  0.7816164E-02  0.1184000E+00
        -11   -1    0    0    0    0  0.00000000000E+00  0.00000000000E+00  0.45593999997E+02  0.45594000000E+02  0.51100000000E-03 0.  1.
         11   -1    0    0    0    0 -0.00000000000E+00 -0.00000000000E+00 -0.45593999997E+02  0.45594000000E+02  0.51100000000E-03 0. -1.
         23    2    1    2    0    0  0.00000000000E+00  0.17763568394E-14  0.00000000000E+00  0.91188000000E+02  0.91188000000E+02 0.  0.
    9900012    2    3    3    0    0 -0.22326643090E+02  0.15564420311E+02  0.24800184947E+02  0.54367090931E+02  0.40000015395E+02 0.  0.
        -12    1    3    3    0    0  0.22326643090E+02 -0.15564420311E+02 -0.24800184947E+02  0.36820909069E+02  0.00000000000E+00 0.  1.
         11    1    4    4    0    0 -0.79731168928E+01  0.88231796885E+01  0.46458574121E+01  0.12767266119E+02  0.51100000000E-03 0. -1.
        -11    1    4    4    0    0 -0.13230227639E+02  0.14973894016E+02  0.24982200139E+02  0.31990103930E+02  0.51100000000E-03 0.  1.
        -12    1    4    4    0    0 -0.11232985584E+01 -0.82326533936E+01 -0.48278726043E+01  0.96097208822E+01  0.00000000000E+00 0.  1.
</event>
<event>
 8    1  0.2401501E-006  0.9118800E+02  0.7816164E-02  0.1184000E+00
        -11   -1    0    0    0    0  0.00000000000E+00  0.00000000000E+00  0.45593999997E+02  0.45594000000E+02  0.51100000000E-03 0. -1.
         11   -1    0    0    0    0 -0.00000000000E+00 -0.00000000000E+00 -0.45593999997E+02  0.45594000000E+02  0.51100000000E-03 0.  1.
         23    2    1    2    0    0  0.00000000000E+00  0.00000000000E+00  0.00000000000E+00  0.91188000000E+02  0.91188000000E+02 0.  0.
    9900012    2    3    3    0    0 -0.33013697410E+02  0.31568055881E+01  0.15997170723E+02  0.54367094126E+02  0.40000022680E+02 0.  0.
        -12    1    3    3    0    0  0.33013697410E+02 -0.31568055881E+01 -0.15997170723E+02  0.36820905874E+02  0.00000000000E+00 0.  1.
         11    1    4    4    0    0  0.16582470928E+01  0.85214496791E+00  0.57886795092E+01  0.60815084632E+01  0.51100000000E-03 0. -1.
        -11    1    4    4    0    0 -0.38126099564E+02 -0.48078572975E+01  0.11842845629E+02  0.40211540043E+02  0.51100000000E-03 0.  1.
        -12    1    4    4    0    0  0.34541550616E+01  0.71125179176E+01 -0.16343544148E+01  0.80740456199E+01  0.00000000000E+00 0.  1.
</event>
<event>
 8    1  0.2401501E-006  0.9118800E+02  0.7816164E-02  0.1184000E+00
        -11   -1    0    0    0    0  0.00000000000E+00  0.00000000000E+00  0.45593999997E+02  0.45594000000E+02  0.51100000000E-03 0. -1.
         11   -1    0    0    0    0 -0.00000000000E+00 -0.00000000000E+00 -0.45593999997E+02  0.45594000000E+02  0.51100000000E-03 0.  1.
         23    2    1    2    0    0 -0.17763568394E-14 -0.88817841970E-15  0.00000000000E+00  0.91188000000E+02  0.91188000000E+02 0.  0.
    9900012    2    3    3    0    0 -0.95709872875E+01  0.63673291522E+01  0.34980555428E+02  0.54367001423E+02  0.39999811343E+02 0.  0.
        -12    1    3    3    0    0  0.95709872875E+01 -0.63673291522E+01 -0.34980555428E+02  0.36820998577E+02  0.00000000000E+00 0.  1.
         11    1    4    4    0    0  0.21214492196E+00  0.18754846812E+02  0.24253460999E+02  0.30659739971E+02  0.51100000000E-03 0. -1.
        -11    1    4    4    0    0 -0.10467562706E+02 -0.21835007776E+01  0.71922272076E+01  0.12886647241E+02  0.51100000000E-03 0.  1.
        -12    1    4    4    0    0  0.68443049638E+00 -0.10204016882E+02  0.35348672215E+01  0.10820614211E+02  0.00000000000E+00 0.  1.
</event>
<event>
 8    1  0.2401501E-006  0.9118800E+02  0.7816164E-02  0.1184000E+00
        -11   -1    0    0    0    0  0.00000000000E+00  0.00000000000E+00  0.45593999997E+02  0.45594000000E+02  0.51100000000E-03 0. -1.
         11   -1    0    0    0    0 -0.00000000000E+00 -0.00000000000E+00 -0.45593999997E+02  0.45594000000E+02  0.51100000000E-03 0.  1.
         23    2    1    2    0    0  0.00000000000E+00  0.00000000000E+00 -0.35527136788E-14  0.91188000000E+02  0.91188000000E+02 0.  0.
    9900012    2    3    3    0    0  0.19992692317E+02  0.26165223827E+02 -0.16475822880E+02  0.54367089859E+02  0.40000012952E+02 0.  0.
         12    1    3    3    0    0 -0.19992692317E+02 -0.26165223827E+02  0.16475822880E+02  0.36820910141E+02  0.00000000000E+00 0. -1.
         11    1    4    4    0    0  0.22069182388E+02  0.52594677216E+01  0.15855480123E+01  0.22742576256E+02  0.51100000000E-03 0. -1.
        -11    1    4    4    0    0  0.84276869467E+00  0.22387953597E+02 -0.14042783191E+02  0.26441075723E+02  0.51100000000E-03 0.  1.
         12    1    4    4    0    0 -0.29192587663E+01 -0.14821974917E+01 -0.40185877013E+01  0.51834378806E+01  0.00000000000E+00 0. -1.
</event>
<event>
 8    1  0.2401501E-006  0.9118800E+02  0.7816164E-02  0.1184000E+00
        -11   -1    0    0    0    0  0.00000000000E+00  0.00000000000E+00  0.45593999997E+02  0.45594000000E+02  0.51100000000E-03 0. -1.
         11   -1    0    0    0    0 -0.00000000000E+00 -0.00000000000E+00 -0.45593999997E+02  0.45594000000E+02  0.51100000000E-03 0.  1.
         23    2    1    2    0    0 -0.35527136788E-14  0.35527136788E-14  0.00000000000E+00  0.91188000000E+02  0.91188000000E+02 0.  0.
    9900012    2    3    3    0    0 -0.18522118556E+02  0.31184885540E+02  0.63415934271E+01  0.54367058008E+02  0.39999940341E+02 0.  0.
         12    1    3    3    0    0  0.18522118556E+02 -0.31184885540E+02 -0.63415934271E+01  0.36820941992E+02  0.00000000000E+00 0. -1.
         11    1    4    4    0    0 -0.11846816998E+02  0.52302805364E+01 -0.10665281119E+02  0.16776505270E+02  0.51100000000E-03 0. -1.
        -11    1    4    4    0    0  0.15660070297E+01  0.24488368090E+02  0.15666782718E+02  0.29113238066E+02  0.51100000000E-03 0.  1.
        -12    1    4    4    0    0 -0.82413085883E+01  0.14662369143E+01  0.13400918281E+01  0.84773146717E+01  0.00000000000E+00 0.  1.
</event>
<event>
 8    1  0.2401501E-006  0.9118800E+02  0.7816164E-02  0.1184000E+00
        -11   -1    0    0    0    0  0.00000000000E+00  0.00000000000E+00  0.45593999997E+02  0.45594000000E+02  0.51100000000E-03 0. -1.
         11   -1    0    0    0    0 -0.00000000000E+00 -0.00000000000E+00 -0.45593999997E+02  0.45594000000E+02  0.51100000000E-03 0.  1.
         23    2    1    2    0    0  0.00000000000E+00  0.00000000000E+00  0.00000000000E+00  0.91188000000E+02  0.91188000000E+02 0.  0.
    9900012    2    3    3    0    0  0.16115821787E+02 -0.28119330255E+02  0.17474607743E+02  0.54367104280E+02  0.40000045826E+02 0.  0.
         12    1    3    3    0    0 -0.16115821787E+02  0.28119330255E+02 -0.17474607743E+02  0.36820895720E+02  0.00000000000E+00 0. -1.
         11    1    4    4    0    0 -0.54195925238E+01 -0.17766481411E+02  0.16366128629E+02  0.24756211572E+02  0.51100000000E-03 0. -1.
        -11    1    4    4    0    0  0.18919625852E+02 -0.11013677451E+02  0.71209076702E+01  0.23020874433E+02  0.51100000000E-03 0.  1.
         12    1    4    4    0    0  0.26157884594E+01  0.66082860674E+00 -0.60124285561E+01  0.65900182742E+01  0.00000000000E+00 0. -1.
</event>
<event>
 8    1  0.2401501E-006  0.9118800E+02  0.7816164E-02  0.1184000E+00
        -11   -1    0    0    0    0  0.00000000000E+00  0.00000000000E+00  0.45593999997E+02  0.45594000000E+02  0.51100000000E-03 0.  1.
         11   -1    0    0    0    0 -0.00000000000E+00 -0.00000000000E+00 -0.45593999997E+02  0.45594000000E+02  0.51100000000E-03 0. -1.
         23    2    1    2    0    0  0.00000000000E+00  0.00000000000E+00  0.00000000000E+00  0.91188000000E+02  0.91188000000E+02 0.  0.
    9900012    2    3    3    0    0  0.32165730181E+02 -0.86486432058E+01 -0.15695431412E+02  0.54367084822E+02  0.40000001468E+02 0.  0.
        -12    1    3    3    0    0 -0.32165730181E+02  0.86486432058E+01  0.15695431412E+02  0.36820915178E+02  0.00000000000E+00 0.  1.
         11    1    4    4    0    0  0.65923390801E+01  0.68330300143E+01 -0.89524114502E+01  0.13049708991E+02  0.51100000000E-03 0. -1.
        -11    1    4    4    0    0  0.84664648796E+01 -0.18294526309E+02 -0.11671690593E+02  0.23293756287E+02  0.51100000000E-03 0.  1.
         12    1    4    4    0    0  0.17106926221E+02  0.28128530885E+01  0.49286706317E+01  0.18023619543E+02  0.00000000000E+00 0. -1.
</event>
<event>
 8    1  0.2401501E-006  0.9118800E+02  0.7816164E-02  0.1184000E+00
        -11   -1    0    0    0    0  0.00000000000E+00  0.00000000000E+00  0.45593999997E+02  0.45594000000E+02  0.51100000000E-03 0.  1.
         11   -1    0    0    0    0 -0.00000000000E+00 -0.00000000000E+00 -0.45593999997E+02  0.45594000000E+02  0.51100000000E-03 0. -1.
         23    2    1    2    0    0  0.00000000000E+00  0.35527136788E-14  0.00000000000E+00  0.91188000000E+02  0.91188000000E+02 0.  0.
    9900012    2    3    3    0    0  0.23045850988E+02  0.27234327628E+02 -0.91082439291E+01  0.54367082622E+02  0.39999996452E+02 0.  0.
        -12    1    3    3    0    0 -0.23045850988E+02 -0.27234327628E+02  0.91082439291E+01  0.36820917378E+02  0.00000000000E+00 0.  1.
         11    1    4    4    0    0  0.17805767822E+02  0.57802337387E+00 -0.82478553556E+01  0.19631775187E+02  0.51100000000E-03 0. -1.
        -11    1    4    4    0    0 -0.32761054036E+01 -0.17802268125E+01  0.30202810276E+01  0.47983509528E+01  0.51100000000E-03 0.  1.
         12    1    4    4    0    0  0.85161885697E+01  0.28436531067E+02 -0.38806696010E+01  0.29936956482E+02  0.00000000000E+00 0. -1.
</event>
<event>
 8    1  0.2401501E-006  0.9118800E+02  0.7816164E-02  0.1184000E+00
        -11   -1    0    0    0    0  0.00000000000E+00  0.00000000000E+00  0.45593999997E+02  0.45594000000E+02  0.51100000000E-03 0.  1.
         11   -1    0    0    0    0 -0.00000000000E+00 -0.00000000000E+00 -0.45593999997E+02  0.45594000000E+02  0.51100000000E-03 0. -1.
         23    2    1    2    0    0 -0.71054273576E-14 -0.35527136788E-14 -0.35527136788E-14  0.91188000000E+02  0.91188000000E+02 0.  0.
    9900012    2    3    3    0    0 -0.25271626716E+02 -0.20740629697E+02 -0.16939601510E+02  0.54367096475E+02  0.40000028034E+02 0.  0.
        -12    1    3    3    0    0  0.25271626716E+02  0.20740629697E+02  0.16939601510E+02  0.36820903525E+02  0.00000000000E+00 0.  1.
         11    1    4    4    0    0 -0.13430173784E+01 -0.12718840927E+02 -0.14818475192E+02  0.19574468511E+02  0.51100000000E-03 0. -1.
        -11    1    4    4    0    0 -0.52457983743E+00 -0.10086138028E+02 -0.47315539902E+01  0.11153159541E+02  0.51100000000E-03 0.  1.
        -12    1    4    4    0    0 -0.23404029500E+02  0.20643492582E+01  0.26104276726E+01  0.23639468423E+02  0.00000000000E+00 0.  1.
</event>
<event>
 8    1  0.2401501E-006  0.9118800E+02  0.7816164E-02  0.1184000E+00
        -11   -1    0    0    0    0  0.00000000000E+00  0.00000000000E+00  0.45593999997E+02  0.45594000000E+02  0.51100000000E-03 0.  1.
         11   -1    0    0    0    0 -0.00000000000E+00 -0.00000000000E+00 -0.45593999997E+02  0.45594000000E+02  0.51100000000E-03 0. -1.
         23    2    1    2    0    0  0.71054273576E-14 -0.13322676296E-14  0.00000000000E+00  0.91188000000E+02  0.91188000000E+02 0.  0.
    9900012    2    3    3    0    0  0.34404192516E+02  0.21759115604E+01 -0.12938118848E+02  0.54367109555E+02  0.40000057853E+02 0.  0.
        -12    1    3    3    0    0 -0.34404192516E+02 -0.21759115604E+01  0.12938118848E+02  0.36820890445E+02  0.00000000000E+00 0.  1.
         11    1    4    4    0    0  0.13250057295E+02 -0.63847428445E+01  0.36838679844E+01  0.15162448454E+02  0.51100000000E-03 0. -1.
        -11    1    4    4    0    0  0.82722386986E+01 -0.99151260126E+01 -0.72545701091E+01  0.14811091947E+02  0.51100000000E-03 0.  1.
        -12    1    4    4    0    0  0.12881896522E+02  0.18475780417E+02 -0.93674167236E+01  0.24393569155E+02  0.00000000000E+00 0.  1.
</event>
<event>
 8    1  0.2401501E-006  0.9118800E+02  0.7816164E-02  0.1184000E+00
        -11   -1    0    0    0    0  0.00000000000E+00  0.00000000000E+00  0.45593999997E+02  0.45594000000E+02  0.51100000000E-03 0. -1.
         11   -1    0    0    0    0 -0.00000000000E+00 -0.00000000000E+00 -0.45593999997E+02  0.45594000000E+02  0.51100000000E-03 0.  1.
         23    2    1    2    0    0 -0.17763568394E-14 -0.71054273576E-14 -0.88817841970E-15  0.91188000000E+02  0.91188000000E+02 0.  0.
    9900012    2    3    3    0    0 -0.81852187234E+01 -0.35594811933E+02  0.46677287074E+01  0.54367134537E+02  0.40000114805E+02 0.  0.
        -12    1    3    3    0    0  0.81852187234E+01  0.35594811933E+02 -0.46677287074E+01  0.36820865463E+02  0.00000000000E+00 0.  1.
         11    1    4    4    0    0 -0.88005870684E+01 -0.18740241883E+02  0.10638624860E+02  0.23277184919E+02  0.51100000000E-03 0. -1.
        -11    1    4    4    0    0  0.47362096782E+01  0.50382245860E+01  0.23591475221E+01  0.73062279178E+01  0.51100000000E-03 0.  1.
         12    1    4    4    0    0 -0.41208413332E+01 -0.21892794637E+02 -0.83300436751E+01  0.23783721700E+02  0.00000000000E+00 0. -1.
</event>
<event>
 8    1  0.2401501E-006  0.9118800E+02  0.7816164E-02  0.1184000E+00
        -11   -1    0    0    0    0  0.00000000000E+00  0.00000000000E+00  0.45593999997E+02  0.45594000000E+02  0.51100000000E-03 0.  1.
         11   -1    0    0    0    0 -0.00000000000E+00 -0.00000000000E+00 -0.45593999997E+02  0.45594000000E+02  0.51100000000E-03 0. -1.
         23    2    1    2    0    0 -0.35527136788E-14 -0.11657341759E-14  0.00000000000E+00  0.91188000000E+02  0.91188000000E+02 0.  0.
    9900012    2    3    3    0    0 -0.26819541056E+02 -0.14931003275E+00 -0.25228280541E+02  0.54367133430E+02  0.40000112280E+02 0.  0.
        -12    1    3    3    0    0  0.26819541056E+02  0.14931003275E+00  0.25228280541E+02  0.36820866570E+02  0.00000000000E+00 0.  1.
         11    1    4    4    0    0 -0.12896520329E+02 -0.89626645750E+00 -0.23208706778E+01  0.13134305125E+02  0.51100000000E-03 0. -1.
        -11    1    4    4    0    0 -0.13025326174E+02  0.14611331037E+02 -0.88957916709E+01  0.21500819201E+02  0.51100000000E-03 0.  1.
        -12    1    4    4    0    0 -0.89769455300E+00 -0.13864374612E+02 -0.14011618192E+02  0.19732009103E+02  0.00000000000E+00 0.  1.
</event>
<event>
 8    1  0.2401501E-006  0.9118800E+02  0.7816164E-02  0.1184000E+00
        -11   -1    0    0    0    0  0.00000000000E+00  0.00000000000E+00  0.45593999997E+02  0.45594000000E+02  0.51100000000E-03 0. -1.
         11   -1    0    0    0    0 -0.00000000000E+00 -0.00000000000E+00 -0.45593999997E+02  0.45594000000E+02  0.51100000000E-03 0.  1.
         23    2    1    2    0    0  0.00000000000E+00 -0.35527136788E-14  0.15543122345E-14  0.91188000000E+02  0.91188000000E+02 0.  0.
    9900012    2    3    3    0    0  0.27087840824E+02  0.24899338393E+02  0.14317016333E+01  0.54367109971E+02  0.40000058802E+02 0.  0.
        -12    1    3    3    0    0 -0.27087840824E+02 -0.24899338393E+02 -0.14317016333E+01  0.36820890029E+02  0.00000000000E+00 0.  1.
         11    1    4    4    0    0  0.26360565234E+01 -0.87339556137E+00  0.91148683054E+01  0.95285066137E+01  0.51100000000E-03 0. -1.
        -11    1    4    4    0    0  0.65528196515E+01  0.17108151261E+02  0.75234819992E+01  0.19804824326E+02  0.51100000000E-03 0.  1.
        -12    1    4    4    0    0  0.17898964649E+02  0.86645826937E+01 -0.15206648671E+02  0.25033779031E+02  0.00000000000E+00 0.  1.
</event>
<event>
 8    1  0.2401501E-006  0.9118800E+02  0.7816164E-02  0.1184000E+00
        -11   -1    0    0    0    0  0.00000000000E+00  0.00000000000E+00  0.45593999997E+02  0.45594000000E+02  0.51100000000E-03 0.  1.
         11   -1    0    0    0    0 -0.00000000000E+00 -0.00000000000E+00 -0.45593999997E+02  0.45594000000E+02  0.51100000000E-03 0. -1.
         23    2    1    2    0    0  0.00000000000E+00  0.17763568394E-14 -0.35527136788E-14  0.91188000000E+02  0.91188000000E+02 0.  0.
    9900012    2    3    3    0    0  0.22562964498E+02 -0.14187035483E+02  0.25405127480E+02  0.54367084136E+02  0.39999999906E+02 0.  0.
         12    1    3    3    0    0 -0.22562964498E+02  0.14187035483E+02 -0.25405127480E+02  0.36820915864E+02  0.00000000000E+00 0. -1.
         11    1    4    4    0    0  0.53945869878E+01  0.65130683230E-01 -0.40249921756E+01  0.67310008951E+01  0.51100000000E-03 0. -1.
        -11    1    4    4    0    0  0.10812837980E+02 -0.21482871955E+02  0.10186636779E+02  0.26118936076E+02  0.51100000000E-03 0.  1.
        -12    1    4    4    0    0  0.63555395306E+01  0.72307057881E+01  0.19243482877E+02  0.21517147166E+02  0.00000000000E+00 0.  1.
</event>
<event>
 8    1  0.2401501E-006  0.9118800E+02  0.7816164E-02  0.1184000E+00
        -11   -1    0    0    0    0  0.00000000000E+00  0.00000000000E+00  0.45593999997E+02  0.45594000000E+02  0.51100000000E-03 0.  1.
         11   -1    0    0    0    0 -0.00000000000E+00 -0.00000000000E+00 -0.45593999997E+02  0.45594000000E+02  0.51100000000E-03 0. -1.
         23    2    1    2    0    0 -0.88817841970E-15  0.00000000000E+00 -0.88817841970E-15  0.91188000000E+02  0.91188000000E+02 0.  0.
    9900012    2    3    3    0    0 -0.60469716641E+01  0.35629975386E+02 -0.70513113069E+01  0.54367054827E+02  0.39999933088E+02 0.  0.
         12    1    3    3    0    0  0.60469716641E+01 -0.35629975386E+02  0.70513113069E+01  0.36820945173E+02  0.00000000000E+00 0. -1.
         11    1    4    4    0    0  0.64705327976E+01  0.29347771605E+02  0.27764028251E+01  0.30180588228E+02  0.51100000000E-03 0. -1.
        -11    1    4    4    0    0 -0.55873061696E+01  0.10893302290E+02 -0.13691009917E+01  0.12318947309E+02  0.51100000000E-03 0.  1.
         12    1    4    4    0    0 -0.69301982921E+01 -0.46110985093E+01 -0.84586131403E+01  0.11867519290E+02  0.00000000000E+00 0. -1.
</event>
<event>
 8    1  0.2401501E-006  0.9118800E+02  0.7816164E-02  0.1184000E+00
        -11   -1    0    0    0    0  0.00000000000E+00  0.00000000000E+00  0.45593999997E+02  0.45594000000E+02  0.51100000000E-03 0.  1.
         11   -1    0    0    0    0 -0.00000000000E+00 -0.00000000000E+00 -0.45593999997E+02  0.45594000000E+02  0.51100000000E-03 0. -1.
         23    2    1    2    0    0  0.00000000000E+00  0.71054273576E-14  0.00000000000E+00  0.91188000000E+02  0.91188000000E+02 0.  0.
    9900012    2    3    3    0    0 -0.21434305668E+02  0.29922401612E+02 -0.99905350306E+00  0.54367113460E+02  0.40000066754E+02 0.  0.
         12    1    3    3    0    0  0.21434305668E+02 -0.29922401612E+02  0.99905350306E+00  0.36820886540E+02  0.00000000000E+00 0. -1.
         11    1    4    4    0    0  0.48455665331E+01  0.48677390676E+01  0.21876308442E+00  0.68718451820E+01  0.51100000000E-03 0. -1.
        -11    1    4    4    0    0 -0.10507479835E+02 -0.63589538722E+01 -0.12411895338E+01  0.12344390570E+02  0.51100000000E-03 0.  1.
        -12    1    4    4    0    0 -0.15772392366E+02  0.31413616417E+02  0.23372946351E-01  0.35150877708E+02  0.00000000000E+00 0.  1.
</event>
<event>
 8    1  0.2401501E-006  0.9118800E+02  0.7816164E-02  0.1184000E+00
        -11   -1    0    0    0    0  0.00000000000E+00  0.00000000000E+00  0.45593999997E+02  0.45594000000E+02  0.51100000000E-03 0.  1.
         11   -1    0    0    0    0 -0.00000000000E+00 -0.00000000000E+00 -0.45593999997E+02  0.45594000000E+02  0.51100000000E-03 0. -1.
         23    2    1    2    0    0  0.00000000000E+00  0.00000000000E+00  0.71054273576E-14  0.91188000000E+02  0.91188000000E+02 0.  0.
    9900012    2    3    3    0    0  0.39732304166E+01 -0.14560882482E+01 -0.36576946411E+02  0.54367085268E+02  0.40000002486E+02 0.  0.
        -12    1    3    3    0    0 -0.39732304166E+01  0.14560882482E+01  0.36576946411E+02  0.36820914732E+02  0.00000000000E+00 0.  1.
         11    1    4    4    0    0 -0.59021161020E+00  0.62455330747E+01 -0.41892868022E+02  0.42359974322E+02  0.51100000000E-03 0. -1.
        -11    1    4    4    0    0  0.28072618490E+01 -0.47903770460E+01 -0.16786070962E+00  0.55548725287E+01  0.51100000000E-03 0.  1.
        -12    1    4    4    0    0  0.17561801778E+01 -0.29112442770E+01  0.54837823209E+01  0.64522384178E+01  0.00000000000E+00 0.  1.
</event>
<event>
 8    1  0.2401501E-006  0.9118800E+02  0.7816164E-02  0.1184000E+00
        -11   -1    0    0    0    0  0.00000000000E+00  0.00000000000E+00  0.45593999997E+02  0.45594000000E+02  0.51100000000E-03 0. -1.
         11   -1    0    0    0    0 -0.00000000000E+00 -0.00000000000E+00 -0.45593999997E+02  0.45594000000E+02  0.51100000000E-03 0.  1.
         23    2    1    2    0    0  0.35527136788E-14 -0.26645352591E-14  0.00000000000E+00  0.91188000000E+02  0.91188000000E+02 0.  0.
    9900012    2    3    3    0    0 -0.31019964242E+02  0.56579875469E+01 -0.19013916581E+02  0.54367081647E+02  0.39999994230E+02 0.  0.
         12    1    3    3    0    0  0.31019964242E+02 -0.56579875469E+01  0.19013916581E+02  0.36820918353E+02  0.00000000000E+00 0. -1.
         11    1    4    4    0    0 -0.24756701660E+02  0.17423293247E+02 -0.10874186051E+02  0.32166960490E+02  0.51100000000E-03 0. -1.
        -11    1    4    4    0    0  0.43798998710E+00 -0.99809641471E+01 -0.10855033977E+02  0.14752736812E+02  0.51100000000E-03 0.  1.
        -12    1    4    4    0    0 -0.67012525685E+01 -0.17843415528E+01  0.27153034473E+01  0.74473843445E+01  0.00000000000E+00 0.  1.
</event>
<event>
 8    1  0.2401501E-006  0.9118800E+02  0.7816164E-02  0.1184000E+00
        -11   -1    0    0    0    0  0.00000000000E+00  0.00000000000E+00  0.45593999997E+02  0.45594000000E+02  0.51100000000E-03 0.  1.
         11   -1    0    0    0    0 -0.00000000000E+00 -0.00000000000E+00 -0.45593999997E+02  0.45594000000E+02  0.51100000000E-03 0. -1.
         23    2    1    2    0    0  0.00000000000E+00  0.00000000000E+00  0.17763568394E-14  0.91188000000E+02  0.91188000000E+02 0.  0.
    9900012    2    3    3    0    0 -0.29783650316E+02  0.16762397571E+02  0.13701753930E+02  0.54367056785E+02  0.39999937553E+02 0.  0.
         12    1    3    3    0    0  0.29783650316E+02 -0.16762397571E+02 -0.13701753930E+02  0.36820943215E+02  0.00000000000E+00 0. -1.
         11    1    4    4    0    0 -0.32821067661E+01  0.14298069449E+01 -0.27285438254E+01  0.45012803058E+01  0.51100000000E-03 0. -1.
        -11    1    4    4    0    0 -0.27826237132E+02 -0.14878468585E+01  0.24856597640E+01  0.27976627136E+02  0.51100000000E-03 0.  1.
         12    1    4    4    0    0  0.13246935817E+01  0.16820437485E+02  0.13944637991E+02  0.21889149343E+02  0.00000000000E+00 0. -1.
</event>
<event>
 8    1  0.2401501E-006  0.9118800E+02  0.7816164E-02  0.1184000E+00
        -11   -1    0    0    0    0  0.00000000000E+00  0.00000000000E+00  0.45593999997E+02  0.45594000000E+02  0.51100000000E-03 0.  1.
         11   -1    0    0    0    0 -0.00000000000E+00 -0.00000000000E+00 -0.45593999997E+02  0.45594000000E+02  0.51100000000E-03 0. -1.
         23    2    1    2    0    0  0.00000000000E+00  0.88817841970E-15  0.00000000000E+00  0.91188000000E+02  0.91188000000E+02 0.  0.
    9900012    2    3    3    0    0 -0.11546607477E+02  0.64744095194E+01  0.34358960908E+02  0.54367077720E+02  0.39999985279E+02 0.  0.
         12    1    3    3    0    0  0.11546607477E+02 -0.64744095194E+01 -0.34358960908E+02  0.36820922280E+02  0.00000000000E+00 0. -1.
         11    1    4    4    0    0 -0.68099647282E+01  0.22451723788E+01 -0.69524564104E+01  0.99876458192E+01  0.51100000000E-03 0. -1.
        -11    1    4    4    0    0 -0.39612856266E+01  0.94484791001E+01  0.20608538909E+02  0.23014721753E+02  0.51100000000E-03 0.  1.
        -12    1    4    4    0    0 -0.77535712229E+00 -0.52192419594E+01  0.20702878409E+02  0.21364710148E+02  0.00000000000E+00 0.  1.
</event>
<event>
 8    1  0.2401501E-006  0.9118800E+02  0.7816164E-02  0.1184000E+00
        -11   -1    0    0    0    0  0.00000000000E+00  0.00000000000E+00  0.45593999997E+02  0.45594000000E+02  0.51100000000E-03 0.  1.
         11   -1    0    0    0    0 -0.00000000000E+00 -0.00000000000E+00 -0.45593999997E+02  0.45594000000E+02  0.51100000000E-03 0. -1.
         23    2    1    2    0    0  0.00000000000E+00  0.00000000000E+00 -0.17763568394E-14  0.91188000000E+02  0.91188000000E+02 0.  0.
    9900012    2    3    3    0    0  0.47260287420E+01  0.34800813159E+02 -0.11061120635E+02  0.54367077498E+02  0.39999984771E+02 0.  0.
         12    1    3    3    0    0 -0.47260287420E+01 -0.34800813159E+02  0.11061120635E+02  0.36820922502E+02  0.00000000000E+00 0. -1.
         11    1    4    4    0    0  0.11771424086E+02  0.92768300856E-01  0.47631370350E+01  0.12698917499E+02  0.51100000000E-03 0. -1.
        -11    1    4    4    0    0  0.38610719766E+00  0.29343176395E+02 -0.12807739356E+02  0.32018889227E+02  0.51100000000E-03 0.  1.
        -12    1    4    4    0    0 -0.74315025420E+01  0.53648684640E+01 -0.30165183146E+01  0.96492707709E+01  0.00000000000E+00 0.  1.
</event>
<event>
 8    1  0.2401501E-006  0.9118800E+02  0.7816164E-02  0.1184000E+00
        -11   -1    0    0    0    0  0.00000000000E+00  0.00000000000E+00  0.45593999997E+02  0.45594000000E+02  0.51100000000E-03 0. -1.
         11   -1    0    0    0    0 -0.00000000000E+00 -0.00000000000E+00 -0.45593999997E+02  0.45594000000E+02  0.51100000000E-03 0.  1.
         23    2    1    2    0    0  0.00000000000E+00  0.00000000000E+00  0.00000000000E+00  0.91188000000E+02  0.91188000000E+02 0.  0.
    9900012    2    3    3    0    0  0.68147385936E+01 -0.60307702301E+01  0.35678664271E+02  0.54367110062E+02  0.40000059007E+02 0.  0.
        -12    1    3    3    0    0 -0.68147385936E+01  0.60307702301E+01 -0.35678664271E+02  0.36820889938E+02  0.00000000000E+00 0.  1.
         11    1    4    4    0    0  0.54639368743E+01  0.97929777666E+01  0.34138198008E+02  0.35932903908E+02  0.51100000000E-03 0. -1.
        -11    1    4    4    0    0 -0.73082750195E+00 -0.42887266753E+01 -0.35887570209E+01  0.56397218503E+01  0.51100000000E-03 0.  1.
         12    1    4    4    0    0  0.20816292212E+01 -0.11535021321E+02  0.51292232839E+01  0.12794484304E+02  0.00000000000E+00 0. -1.
</event>
<event>
 8    1  0.2401501E-006  0.9118800E+02  0.7816164E-02  0.1184000E+00
        -11   -1    0    0    0    0  0.00000000000E+00  0.00000000000E+00  0.45593999997E+02  0.45594000000E+02  0.51100000000E-03 0.  1.
         11   -1    0    0    0    0 -0.00000000000E+00 -0.00000000000E+00 -0.45593999997E+02  0.45594000000E+02  0.51100000000E-03 0. -1.
         23    2    1    2    0    0  0.00000000000E+00  0.35527136788E-14 -0.88817841970E-15  0.91188000000E+02  0.91188000000E+02 0.  0.
    9900012    2    3    3    0    0 -0.30995372050E+02  0.19567755608E+02 -0.34886672284E+01  0.54367069171E+02  0.39999965790E+02 0.  0.
         12    1    3    3    0    0  0.30995372050E+02 -0.19567755608E+02  0.34886672284E+01  0.36820930829E+02  0.00000000000E+00 0. -1.
         11    1    4    4    0    0  0.52914740928E+01  0.14326352085E+00 -0.41012593054E+01  0.66963087341E+01  0.51100000000E-03 0. -1.
        -11    1    4    4    0    0 -0.18309224203E+01 -0.50587838562E+01  0.48667606210E+00  0.54018908600E+01  0.51100000000E-03 0.  1.
        -12    1    4    4    0    0 -0.34455923723E+02  0.24483275943E+02  0.12591601490E+00  0.42268869577E+02  0.00000000000E+00 0.  1.
</event>
<event>
 8    1  0.2401501E-006  0.9118800E+02  0.7816164E-02  0.1184000E+00
        -11   -1    0    0    0    0  0.00000000000E+00  0.00000000000E+00  0.45593999997E+02  0.45594000000E+02  0.51100000000E-03 0.  1.
         11   -1    0    0    0    0 -0.00000000000E+00 -0.00000000000E+00 -0.45593999997E+02  0.45594000000E+02  0.51100000000E-03 0. -1.
         23    2    1    2    0    0  0.35527136788E-14 -0.17763568394E-14 -0.35527136788E-14  0.91188000000E+02  0.91188000000E+02 0.  0.
    9900012    2    3    3    0    0  0.17064617037E+02 -0.14242292677E+02 -0.29355333962E+02  0.54367086278E+02  0.40000004788E+02 0.  0.
        -12    1    3    3    0    0 -0.17064617037E+02  0.14242292677E+02  0.29355333962E+02  0.36820913722E+02  0.00000000000E+00 0.  1.
         11    1    4    4    0    0 -0.16667318575E+01  0.92266348224E+01 -0.10859493595E+01  0.94386477582E+01  0.51100000000E-03 0. -1.
        -11    1    4    4    0    0  0.13241884238E+02 -0.16068732362E+02 -0.28982805237E+02  0.35686897562E+02  0.51100000000E-03 0.  1.
        -12    1    4    4    0    0  0.54894646565E+01 -0.74001951373E+01  0.71342063499E+00  0.92415409585E+01  0.00000000000E+00 0.  1.
</event>
<event>
 8    1  0.2401501E-006  0.9118800E+02  0.7816164E-02  0.1184000E+00
        -11   -1    0    0    0    0  0.00000000000E+00  0.00000000000E+00  0.45593999997E+02  0.45594000000E+02  0.51100000000E-03 0.  1.
         11   -1    0    0    0    0 -0.00000000000E+00 -0.00000000000E+00 -0.45593999997E+02  0.45594000000E+02  0.51100000000E-03 0. -1.
         23    2    1    2    0    0  0.88817841970E-15 -0.44408920985E-15  0.71054273576E-14  0.91188000000E+02  0.91188000000E+02 0.  0.
    9900012    2    3    3    0    0  0.32706993907E+01 -0.31909416523E+01  0.36536284925E+02  0.54367086116E+02  0.40000004419E+02 0.  0.
         12    1    3    3    0    0 -0.32706993907E+01  0.31909416523E+01 -0.36536284925E+02  0.36820913884E+02  0.00000000000E+00 0. -1.
         11    1    4    4    0    0 -0.80475460469E+01 -0.47731613297E+01  0.23046984578E+02  0.24873873138E+02  0.51100000000E-03 0.  1.
        -11    1    4    4    0    0 -0.37021225966E+01 -0.88366750770E+00  0.13752531942E+02  0.14269502972E+02  0.51100000000E-03 0. -1.
        -12    1    4    4    0    0  0.15020368034E+02  0.24658871851E+01 -0.26323159536E+00  0.15223710007E+02  0.00000000000E+00 0.  1.
</event>
<event>
 8    1  0.2401501E-006  0.9118800E+02  0.7816164E-02  0.1184000E+00
        -11   -1    0    0    0    0  0.00000000000E+00  0.00000000000E+00  0.45593999997E+02  0.45594000000E+02  0.51100000000E-03 0.  1.
         11   -1    0    0    0    0 -0.00000000000E+00 -0.00000000000E+00 -0.45593999997E+02  0.45594000000E+02  0.51100000000E-03 0. -1.
         23    2    1    2    0    0  0.22204460493E-15  0.00000000000E+00  0.35527136788E-14  0.91188000000E+02  0.91188000000E+02 0.  0.
    9900012    2    3    3    0    0 -0.16352335837E+01 -0.32756003363E+02  0.16737709371E+02  0.54367073067E+02  0.39999974671E+02 0.  0.
         12    1    3    3    0    0  0.16352335837E+01  0.32756003363E+02 -0.16737709371E+02  0.36820926933E+02  0.00000000000E+00 0. -1.
         11    1    4    4    0    0  0.33555477802E+01  0.73723542574E+00 -0.96664845985E+01  0.10258856746E+02  0.51100000000E-03 0. -1.
        -11    1    4    4    0    0  0.49595366738E+00 -0.20114697738E+02  0.19737736288E+02  0.28185550716E+02  0.51100000000E-03 0.  1.
         12    1    4    4    0    0 -0.54867350312E+01 -0.13378541051E+02  0.66664576816E+01  0.15922665605E+02  0.00000000000E+00 0. -1.
</event>
<event>
 8    1  0.2401501E-006  0.9118800E+02  0.7816164E-02  0.1184000E+00
        -11   -1    0    0    0    0  0.00000000000E+00  0.00000000000E+00  0.45593999997E+02  0.45594000000E+02  0.51100000000E-03 0. -1.
         11   -1    0    0    0    0 -0.00000000000E+00 -0.00000000000E+00 -0.45593999997E+02  0.45594000000E+02  0.51100000000E-03 0.  1.
         23    2    1    2    0    0  0.00000000000E+00  0.00000000000E+00  0.71054273576E-14  0.91188000000E+02  0.91188000000E+02 0.  0.
    9900012    2    3    3    0    0 -0.25744517543E+02 -0.13603327404E+02 -0.22537725787E+02  0.54367084971E+02  0.40000001807E+02 0.  0.
        -12    1    3    3    0    0  0.25744517543E+02  0.13603327404E+02  0.22537725787E+02  0.36820915029E+02  0.00000000000E+00 0.  1.
         11    1    4    4    0    0 -0.10335697572E+02 -0.71142695124E+01 -0.32439875604E+02  0.34781963781E+02  0.51100000000E-03 0.  1.
        -11    1    4    4    0    0 -0.17650938711E+01 -0.13236204017E+01  0.61235922113E+00  0.22896531219E+01  0.51100000000E-03 0. -1.
        -12    1    4    4    0    0 -0.13643726100E+02 -0.51654374900E+01  0.92897905965E+01  0.17295468068E+02  0.00000000000E+00 0.  1.
</event>
<event>
 8    1  0.2401501E-006  0.9118800E+02  0.7816164E-02  0.1184000E+00
        -11   -1    0    0    0    0  0.00000000000E+00  0.00000000000E+00  0.45593999997E+02  0.45594000000E+02  0.51100000000E-03 0. -1.
         11   -1    0    0    0    0 -0.00000000000E+00 -0.00000000000E+00 -0.45593999997E+02  0.45594000000E+02  0.51100000000E-03 0.  1.
         23    2    1    2    0    0  0.35527136788E-14 -0.35527136788E-14  0.00000000000E+00  0.91188000000E+02  0.91188000000E+02 0.  0.
    9900012    2    3    3    0    0 -0.30828923545E+02 -0.17882758661E+02 -0.92500493925E+01  0.54367095638E+02  0.40000026125E+02 0.  0.
         12    1    3    3    0    0  0.30828923545E+02  0.17882758661E+02  0.92500493925E+01  0.36820904362E+02  0.00000000000E+00 0. -1.
         11    1    4    4    0    0  0.59847284239E+01  0.15502565745E+01  0.40985754879E+01  0.74174517892E+01  0.51100000000E-03 0. -1.
        -11    1    4    4    0    0 -0.61308557727E+01  0.19729288331E+01 -0.60419985235E+01  0.88309448591E+01  0.51100000000E-03 0.  1.
        -12    1    4    4    0    0 -0.30682796197E+02 -0.21405944069E+02 -0.73066263568E+01  0.38118698989E+02  0.00000000000E+00 0.  1.
</event>
<event>
 8    1  0.2401501E-006  0.9118800E+02  0.7816164E-02  0.1184000E+00
        -11   -1    0    0    0    0  0.00000000000E+00  0.00000000000E+00  0.45593999997E+02  0.45594000000E+02  0.51100000000E-03 0.  1.
         11   -1    0    0    0    0 -0.00000000000E+00 -0.00000000000E+00 -0.45593999997E+02  0.45594000000E+02  0.51100000000E-03 0. -1.
         23    2    1    2    0    0  0.00000000000E+00 -0.35527136788E-14  0.00000000000E+00  0.91188000000E+02  0.91188000000E+02 0.  0.
    9900012    2    3    3    0    0 -0.13832929247E+02  0.31966756862E+02  0.11939669228E+02  0.54367093207E+02  0.40000020583E+02 0.  0.
         12    1    3    3    0    0  0.13832929247E+02 -0.31966756862E+02 -0.11939669228E+02  0.36820906793E+02  0.00000000000E+00 0. -1.
         11    1    4    4    0    0 -0.13847874393E+02  0.20343455359E+02  0.49829396978E+01  0.25108753244E+02  0.51100000000E-03 0. -1.
        -11    1    4    4    0    0 -0.35411238334E+01  0.82422109623E+01  0.16356444453E+02  0.18654942373E+02  0.51100000000E-03 0.  1.
         12    1    4    4    0    0  0.35560689790E+01  0.33810905399E+01 -0.93997149224E+01  0.10603397590E+02  0.00000000000E+00 0. -1.
</event>
<event>
 8    1  0.2401501E-006  0.9118800E+02  0.7816164E-02  0.1184000E+00
        -11   -1    0    0    0    0  0.00000000000E+00  0.00000000000E+00  0.45593999997E+02  0.45594000000E+02  0.51100000000E-03 0. -1.
         11   -1    0    0    0    0 -0.00000000000E+00 -0.00000000000E+00 -0.45593999997E+02  0.45594000000E+02  0.51100000000E-03 0.  1.
         23    2    1    2    0    0  0.17763568394E-14  0.00000000000E+00 -0.22204460493E-15  0.91188000000E+02  0.91188000000E+02 0.  0.
    9900012    2    3    3    0    0  0.12794243681E+02 -0.34522132646E+02  0.55600593253E+00  0.54367089414E+02  0.40000011937E+02 0.  0.
         12    1    3    3    0    0 -0.12794243681E+02  0.34522132646E+02 -0.55600593253E+00  0.36820910586E+02  0.00000000000E+00 0. -1.
         11    1    4    4    0    0 -0.23908062009E+00  0.34163534463E+01  0.46724616725E+01  0.57931449796E+01  0.51100000000E-03 0. -1.
        -11    1    4    4    0    0  0.21254900624E+02 -0.28313156736E+02 -0.49295666834E+00  0.35406901184E+02  0.51100000000E-03 0.  1.
         12    1    4    4    0    0 -0.82215763229E+01 -0.96253293562E+01 -0.36234990717E+01  0.13167043251E+02  0.00000000000E+00 0. -1.
</event>
<event>
 8    1  0.2401501E-006  0.9118800E+02  0.7816164E-02  0.1184000E+00
        -11   -1    0    0    0    0  0.00000000000E+00  0.00000000000E+00  0.45593999997E+02  0.45594000000E+02  0.51100000000E-03 0. -1.
         11   -1    0    0    0    0 -0.00000000000E+00 -0.00000000000E+00 -0.45593999997E+02  0.45594000000E+02  0.51100000000E-03 0.  1.
         23    2    1    2    0    0 -0.88817841970E-15  0.88817841970E-15 -0.71054273576E-14  0.91188000000E+02  0.91188000000E+02 0.  0.
    9900012    2    3    3    0    0 -0.52072379862E+01  0.65074422648E+01 -0.35865220881E+02  0.54367133618E+02  0.40000112710E+02 0.  0.
         12    1    3    3    0    0  0.52072379862E+01 -0.65074422648E+01  0.35865220881E+02  0.36820866382E+02  0.00000000000E+00 0. -1.
         11    1    4    4    0    0  0.19753486392E+01  0.18593099160E+01 -0.13390101069E+02  0.13662131697E+02  0.51100000000E-03 0. -1.
        -11    1    4    4    0    0 -0.17623631161E+02  0.13407946901E+01 -0.24002343459E+01  0.17836794299E+02  0.51100000000E-03 0.  1.
        -12    1    4    4    0    0  0.10441044535E+02  0.33073376586E+01 -0.20074885466E+02  0.22868207622E+02  0.00000000000E+00 0.  1.
</event>
<event>
 8    1  0.2401501E-006  0.9118800E+02  0.7816164E-02  0.1184000E+00
        -11   -1    0    0    0    0  0.00000000000E+00  0.00000000000E+00  0.45593999997E+02  0.45594000000E+02  0.51100000000E-03 0.  1.
         11   -1    0    0    0    0 -0.00000000000E+00 -0.00000000000E+00 -0.45593999997E+02  0.45594000000E+02  0.51100000000E-03 0. -1.
         23    2    1    2    0    0  0.00000000000E+00  0.00000000000E+00  0.00000000000E+00  0.91188000000E+02  0.91188000000E+02 0.  0.
    9900012    2    3    3    0    0  0.64733820392E+01 -0.31669239696E+02 -0.17633399333E+02  0.54367052294E+02  0.39999927314E+02 0.  0.
        -12    1    3    3    0    0 -0.64733820392E+01  0.31669239696E+02  0.17633399333E+02  0.36820947706E+02  0.00000000000E+00 0.  1.
         11    1    4    4    0    0 -0.41830444938E+01 -0.23838255209E+02 -0.13586133888E+02  0.27755059123E+02  0.51100000000E-03 0. -1.
        -11    1    4    4    0    0  0.82120817524E+01 -0.14371163721E+02 -0.82172466184E+01  0.18479496088E+02  0.51100000000E-03 0.  1.
         12    1    4    4    0    0  0.24443447806E+01  0.65401792337E+01  0.41699811739E+01  0.81324970831E+01  0.00000000000E+00 0. -1.
</event>
<event>
 8    1  0.2401501E-006  0.9118800E+02  0.7816164E-02  0.1184000E+00
        -11   -1    0    0    0    0  0.00000000000E+00  0.00000000000E+00  0.45593999997E+02  0.45594000000E+02  0.51100000000E-03 0.  1.
         11   -1    0    0    0    0 -0.00000000000E+00 -0.00000000000E+00 -0.45593999997E+02  0.45594000000E+02  0.51100000000E-03 0. -1.
         23    2    1    2    0    0 -0.35527136788E-14  0.00000000000E+00 -0.17763568394E-14  0.91188000000E+02  0.91188000000E+02 0.  0.
    9900012    2    3    3    0    0 -0.28482711624E+02 -0.21948028069E+02 -0.79245700439E+01  0.54367087356E+02  0.40000007245E+02 0.  0.
        -12    1    3    3    0    0  0.28482711624E+02  0.21948028069E+02  0.79245700439E+01  0.36820912644E+02  0.00000000000E+00 0.  1.
         11    1    4    4    0    0 -0.16264385747E+02  0.18647953933E+01 -0.18422084399E+02  0.24645098893E+02  0.51100000000E-03 0. -1.
        -11    1    4    4    0    0 -0.11078472157E+02 -0.14637638774E+02  0.86510916998E+01  0.20293703509E+02  0.51100000000E-03 0.  1.
         12    1    4    4    0    0 -0.11398537196E+01 -0.91751846876E+01  0.18464226549E+01  0.94282849540E+01  0.00000000000E+00 0. -1.
</event>
<event>
 8    1  0.2401501E-006  0.9118800E+02  0.7816164E-02  0.1184000E+00
        -11   -1    0    0    0    0  0.00000000000E+00  0.00000000000E+00  0.45593999997E+02  0.45594000000E+02  0.51100000000E-03 0. -1.
         11   -1    0    0    0    0 -0.00000000000E+00 -0.00000000000E+00 -0.45593999997E+02  0.45594000000E+02  0.51100000000E-03 0.  1.
         23    2    1    2    0    0  0.77715611724E-15  0.00000000000E+00  0.17763568394E-14  0.91188000000E+02  0.91188000000E+02 0.  0.
    9900012    2    3    3    0    0 -0.90658564256E+00  0.34519709960E+02  0.12780758330E+02  0.54367081262E+02  0.39999993353E+02 0.  0.
        -12    1    3    3    0    0  0.90658564256E+00 -0.34519709960E+02 -0.12780758330E+02  0.36820918738E+02  0.00000000000E+00 0.  1.
         11    1    4    4    0    0 -0.61129167159E+01  0.29148641043E+01  0.57808505293E+01  0.89040674203E+01  0.51100000000E-03 0.  1.
        -11    1    4    4    0    0 -0.55168522668E+01  0.32112129203E+02  0.10400239888E+02  0.34202185469E+02  0.51100000000E-03 0. -1.
         12    1    4    4    0    0  0.10723183340E+02 -0.50728334741E+00 -0.34003320873E+01  0.11260828373E+02  0.00000000000E+00 0. -1.
</event>
<event>
 8    1  0.2401501E-006  0.9118800E+02  0.7816164E-02  0.1184000E+00
        -11   -1    0    0    0    0  0.00000000000E+00  0.00000000000E+00  0.45593999997E+02  0.45594000000E+02  0.51100000000E-03 0.  1.
         11   -1    0    0    0    0 -0.00000000000E+00 -0.00000000000E+00 -0.45593999997E+02  0.45594000000E+02  0.51100000000E-03 0. -1.
         23    2    1    2    0    0  0.00000000000E+00  0.00000000000E+00  0.00000000000E+00  0.91188000000E+02  0.91188000000E+02 0.  0.
    9900012    2    3    3    0    0 -0.18579395823E+02  0.30250505063E+02  0.97720154261E+01  0.54367091657E+02  0.40000017051E+02 0.  0.
        -12    1    3    3    0    0  0.18579395823E+02 -0.30250505063E+02 -0.97720154261E+01  0.36820908343E+02  0.00000000000E+00 0.  1.
         11    1    4    4    0    0 -0.50801417067E+01  0.23461574809E+02 -0.85970336625E+01  0.25498280733E+02  0.51100000000E-03 0. -1.
        -11    1    4    4    0    0 -0.17081707527E+02  0.40784784804E+01  0.12895881511E+02  0.21788127018E+02  0.51100000000E-03 0.  1.
         12    1    4    4    0    0  0.35824534105E+01  0.27104517734E+01  0.54731675772E+01  0.70806839064E+01  0.00000000000E+00 0. -1.
</event>
<event>
 8    1  0.2401501E-006  0.9118800E+02  0.7816164E-02  0.1184000E+00
        -11   -1    0    0    0    0  0.00000000000E+00  0.00000000000E+00  0.45593999997E+02  0.45594000000E+02  0.51100000000E-03 0.  1.
         11   -1    0    0    0    0 -0.00000000000E+00 -0.00000000000E+00 -0.45593999997E+02  0.45594000000E+02  0.51100000000E-03 0. -1.
         23    2    1    2    0    0  0.00000000000E+00  0.17763568394E-14  0.44408920985E-15  0.91188000000E+02  0.91188000000E+02 0.  0.
    9900012    2    3    3    0    0 -0.35258127597E+02 -0.10065371483E+02 -0.33663018893E+01  0.54367092173E+02  0.40000018228E+02 0.  0.
         12    1    3    3    0    0  0.35258127597E+02  0.10065371483E+02  0.33663018893E+01  0.36820907827E+02  0.00000000000E+00 0. -1.
         11    1    4    4    0    0 -0.14046422340E+02 -0.16929293717E+01 -0.15088197264E+00  0.14148878261E+02  0.51100000000E-03 0. -1.
        -11    1    4    4    0    0 -0.17072278481E+02  0.37854677076E+01  0.11312659426E+02  0.20827115063E+02  0.51100000000E-03 0.  1.
         12    1    4    4    0    0 -0.41394267762E+01 -0.12157909819E+02 -0.14528079342E+02  0.19391098849E+02  0.00000000000E+00 0. -1.
</event>
<event>
 8    1  0.2401501E-006  0.9118800E+02  0.7816164E-02  0.1184000E+00
        -11   -1    0    0    0    0  0.00000000000E+00  0.00000000000E+00  0.45593999997E+02  0.45594000000E+02  0.51100000000E-03 0. -1.
         11   -1    0    0    0    0 -0.00000000000E+00 -0.00000000000E+00 -0.45593999997E+02  0.45594000000E+02  0.51100000000E-03 0.  1.
         23    2    1    2    0    0  0.00000000000E+00 -0.17763568394E-14 -0.35527136788E-14  0.91188000000E+02  0.91188000000E+02 0.  0.
    9900012    2    3    3    0    0 -0.26427487977E+02  0.15237055943E+02  0.20620406869E+02  0.54367066090E+02  0.39999958765E+02 0.  0.
        -12    1    3    3    0    0  0.26427487977E+02 -0.15237055943E+02 -0.20620406869E+02  0.36820933910E+02  0.00000000000E+00 0.  1.
         11    1    4    4    0    0 -0.19740762179E+01 -0.10715323007E+02  0.69640507947E+01  0.12931091515E+02  0.51100000000E-03 0. -1.
        -11    1    4    4    0    0  0.21295787428E+01  0.17862856241E+01  0.27041619060E+01  0.38779393791E+01  0.51100000000E-03 0.  1.
         12    1    4    4    0    0 -0.26582990502E+02  0.24166093325E+02  0.10952194168E+02  0.37558035195E+02  0.00000000000E+00 0. -1.
</event>
<event>
 8    1  0.2401501E-006  0.9118800E+02  0.7816164E-02  0.1184000E+00
        -11   -1    0    0    0    0  0.00000000000E+00  0.00000000000E+00  0.45593999997E+02  0.45594000000E+02  0.51100000000E-03 0. -1.
         11   -1    0    0    0    0 -0.00000000000E+00 -0.00000000000E+00 -0.45593999997E+02  0.45594000000E+02  0.51100000000E-03 0.  1.
         23    2    1    2    0    0  0.00000000000E+00  0.71054273576E-14  0.88817841970E-15  0.91188000000E+02  0.91188000000E+02 0.  0.
    9900012    2    3    3    0    0  0.14775432077E+02 -0.33294317239E+02  0.53808845451E+01  0.54367097350E+02  0.40000030029E+02 0.  0.
         12    1    3    3    0    0 -0.14775432077E+02  0.33294317239E+02 -0.53808845451E+01  0.36820902650E+02  0.00000000000E+00 0. -1.
         11    1    4    4    0    0 -0.10458454734E+01  0.32084183459E+01  0.86970706527E+01  0.93288144604E+01  0.51100000000E-03 0. -1.
        -11    1    4    4    0    0  0.13612085907E+02 -0.70115595918E+01 -0.34597123991E+00  0.15315696099E+02  0.51100000000E-03 0.  1.
         12    1    4    4    0    0  0.22091916437E+01 -0.29491175993E+02 -0.29702148677E+01  0.29722586790E+02  0.00000000000E+00 0. -1.
</event>
<event>
 8    1  0.2401501E-006  0.9118800E+02  0.7816164E-02  0.1184000E+00
        -11   -1    0    0    0    0  0.00000000000E+00  0.00000000000E+00  0.45593999997E+02  0.45594000000E+02  0.51100000000E-03 0.  1.
         11   -1    0    0    0    0 -0.00000000000E+00 -0.00000000000E+00 -0.45593999997E+02  0.45594000000E+02  0.51100000000E-03 0. -1.
         23    2    1    2    0    0  0.00000000000E+00  0.88817841970E-15  0.00000000000E+00  0.91188000000E+02  0.91188000000E+02 0.  0.
    9900012    2    3    3    0    0  0.22292887236E+02 -0.34506955466E+01  0.29101544296E+02  0.54367082011E+02  0.39999995061E+02 0.  0.
         12    1    3    3    0    0 -0.22292887236E+02  0.34506955466E+01 -0.29101544296E+02  0.36820917989E+02  0.00000000000E+00 0. -1.
         11    1    4    4    0    0  0.18730233302E+02 -0.11764291723E+02  0.66630955604E+00  0.22128356649E+02  0.51100000000E-03 0. -1.
        -11    1    4    4    0    0  0.66535170500E+01  0.95430756561E+01  0.19528239228E+02  0.22730853695E+02  0.51100000000E-03 0.  1.
         12    1    4    4    0    0 -0.30908631153E+01 -0.12294794795E+01  0.89069955123E+01  0.95078716675E+01  0.00000000000E+00 0. -1.
</event>
<event>
 8    1  0.2401501E-006  0.9118800E+02  0.7816164E-02  0.1184000E+00
        -11   -1    0    0    0    0  0.00000000000E+00  0.00000000000E+00  0.45593999997E+02  0.45594000000E+02  0.51100000000E-03 0. -1.
         11   -1    0    0    0    0 -0.00000000000E+00 -0.00000000000E+00 -0.45593999997E+02  0.45594000000E+02  0.51100000000E-03 0.  1.
         23    2    1    2    0    0 -0.88817841970E-15 -0.88817841970E-15  0.71054273576E-14  0.91188000000E+02  0.91188000000E+02 0.  0.
    9900012    2    3    3    0    0 -0.74802760201E+01 -0.40580129647E+01  0.35823984711E+02  0.54367083673E+02  0.39999998850E+02 0.  0.
        -12    1    3    3    0    0  0.74802760201E+01  0.40580129647E+01 -0.35823984711E+02  0.36820916327E+02  0.00000000000E+00 0.  1.
         11    1    4    4    0    0  0.83342990355E+00 -0.77506327036E+01  0.24814497673E+02  0.26010117411E+02  0.51100000000E-03 0. -1.
        -11    1    4    4    0    0 -0.69555683774E+01 -0.93263838176E+01  0.63006897580E+00  0.11651538686E+02  0.51100000000E-03 0.  1.
        -12    1    4    4    0    0 -0.13581375463E+01  0.13019003556E+02  0.10379418062E+02  0.16705427576E+02  0.00000000000E+00 0.  1.
</event>
<event>
 8    1  0.2401501E-006  0.9118800E+02  0.7816164E-02  0.1184000E+00
        -11   -1    0    0    0    0  0.00000000000E+00  0.00000000000E+00  0.45593999997E+02  0.45594000000E+02  0.51100000000E-03 0. -1.
         11   -1    0    0    0    0 -0.00000000000E+00 -0.00000000000E+00 -0.45593999997E+02  0.45594000000E+02  0.51100000000E-03 0.  1.
         23    2    1    2    0    0  0.00000000000E+00  0.00000000000E+00  0.00000000000E+00  0.91188000000E+02  0.91188000000E+02 0.  0.
    9900012    2    3    3    0    0  0.27479588261E+02 -0.21553386912E+02 -0.11666338408E+02  0.54367085968E+02  0.40000004080E+02 0.  0.
         12    1    3    3    0    0 -0.27479588261E+02  0.21553386912E+02  0.11666338408E+02  0.36820914032E+02  0.00000000000E+00 0. -1.
         11    1    4    4    0    0 -0.39342227802E+01  0.23219225311E+01 -0.28042752571E+01  0.53603538226E+01  0.51100000000E-03 0. -1.
        -11    1    4    4    0    0  0.42400329326E+01  0.62745805693E+01 -0.69519061624E+00  0.76047045205E+01  0.51100000000E-03 0.  1.
        -12    1    4    4    0    0  0.27173778108E+02 -0.30149890012E+02 -0.81668725345E+01  0.41402027624E+02  0.00000000000E+00 0.  1.
</event>
<event>
 8    1  0.2401501E-006  0.9118800E+02  0.7816164E-02  0.1184000E+00
        -11   -1    0    0    0    0  0.00000000000E+00  0.00000000000E+00  0.45593999997E+02  0.45594000000E+02  0.51100000000E-03 0. -1.
         11   -1    0    0    0    0 -0.00000000000E+00 -0.00000000000E+00 -0.45593999997E+02  0.45594000000E+02  0.51100000000E-03 0.  1.
         23    2    1    2    0    0  0.00000000000E+00  0.00000000000E+00  0.00000000000E+00  0.91188000000E+02  0.91188000000E+02 0.  0.
    9900012    2    3    3    0    0  0.13253822924E+02 -0.31431702249E+02  0.13862356982E+02  0.54367072941E+02  0.39999974384E+02 0.  0.
         12    1    3    3    0    0 -0.13253822924E+02  0.31431702249E+02 -0.13862356982E+02  0.36820927059E+02  0.00000000000E+00 0. -1.
         11    1    4    4    0    0  0.12681887526E+01 -0.41000194197E+01  0.13729183608E+02  0.14384329833E+02  0.51100000000E-03 0. -1.
        -11    1    4    4    0    0  0.83001924169E+01  0.33817708620E+01 -0.10652423486E+01  0.90257581312E+01  0.51100000000E-03 0.  1.
        -12    1    4    4    0    0  0.36854417545E+01 -0.30713453692E+02  0.11984157227E+01  0.30956984977E+02  0.00000000000E+00 0.  1.
</event>
<event>
 8    1  0.2401501E-006  0.9118800E+02  0.7816164E-02  0.1184000E+00
        -11   -1    0    0    0    0  0.00000000000E+00  0.00000000000E+00  0.45593999997E+02  0.45594000000E+02  0.51100000000E-03 0.  1.
         11   -1    0    0    0    0 -0.00000000000E+00 -0.00000000000E+00 -0.45593999997E+02  0.45594000000E+02  0.51100000000E-03 0. -1.
         23    2    1    2    0    0  0.35527136788E-14 -0.35527136788E-14  0.44408920985E-15  0.91188000000E+02  0.91188000000E+02 0.  0.
    9900012    2    3    3    0    0 -0.30279298330E+02  0.20697954105E+02 -0.32463827236E+01  0.54367079149E+02  0.39999988537E+02 0.  0.
        -12    1    3    3    0    0  0.30279298330E+02 -0.20697954105E+02  0.32463827236E+01  0.36820920851E+02  0.00000000000E+00 0.  1.
         11    1    4    4    0    0 -0.14858138204E+02 -0.69180286406E+01 -0.37086153249E+01  0.16804083404E+02  0.51100000000E-03 0. -1.
        -11    1    4    4    0    0  0.74229961469E+00  0.15323682451E+02 -0.56617985793E+01  0.16353049135E+02  0.51100000000E-03 0.  1.
        -12    1    4    4    0    0 -0.16163459741E+02  0.12292300295E+02  0.61240311806E+01  0.21209946611E+02  0.00000000000E+00 0.  1.
</event>
<event>
 8    1  0.2401501E-006  0.9118800E+02  0.7816164E-02  0.1184000E+00
        -11   -1    0    0    0    0  0.00000000000E+00  0.00000000000E+00  0.45593999997E+02  0.45594000000E+02  0.51100000000E-03 0.  1.
         11   -1    0    0    0    0 -0.00000000000E+00 -0.00000000000E+00 -0.45593999997E+02  0.45594000000E+02  0.51100000000E-03 0. -1.
         23    2    1    2    0    0  0.00000000000E+00  0.00000000000E+00  0.00000000000E+00  0.91188000000E+02  0.91188000000E+02 0.  0.
    9900012    2    3    3    0    0 -0.22053299505E+02  0.21116473121E+02 -0.20579783919E+02  0.54367068965E+02  0.39999965319E+02 0.  0.
        -12    1    3    3    0    0  0.22053299505E+02 -0.21116473121E+02  0.20579783919E+02  0.36820931035E+02  0.00000000000E+00 0.  1.
         11    1    4    4    0    0  0.10634985265E+02  0.51084143196E+01 -0.72827896849E+01  0.13864985911E+02  0.51100000000E-03 0. -1.
        -11    1    4    4    0    0 -0.12728089708E+02  0.12894160016E+01 -0.10319463002E+01  0.12834787675E+02  0.51100000000E-03 0.  1.
         12    1    4    4    0    0 -0.19960195062E+02  0.14718642800E+02 -0.12265047934E+02  0.27667295379E+02  0.00000000000E+00 0. -1.
</event>
<event>
 8    1  0.2401501E-006  0.9118800E+02  0.7816164E-02  0.1184000E+00
        -11   -1    0    0    0    0  0.00000000000E+00  0.00000000000E+00  0.45593999997E+02  0.45594000000E+02  0.51100000000E-03 0.  1.
         11   -1    0    0    0    0 -0.00000000000E+00 -0.00000000000E+00 -0.45593999997E+02  0.45594000000E+02  0.51100000000E-03 0. -1.
         23    2    1    2    0    0 -0.35527136788E-14  0.00000000000E+00  0.35527136788E-14  0.91188000000E+02  0.91188000000E+02 0.  0.
    9900012    2    3    3    0    0  0.26690885694E+02 -0.19004817079E+02 -0.16798509368E+02  0.54367131348E+02  0.40000107534E+02 0.  0.
        -12    1    3    3    0    0 -0.26690885694E+02  0.19004817079E+02  0.16798509368E+02  0.36820868652E+02  0.00000000000E+00 0.  1.
         11    1    4    4    0    0  0.15304328636E+01 -0.45491678876E+00 -0.11983130246E+02  0.12089027454E+02  0.51100000000E-03 0. -1.
        -11    1    4    4    0    0 -0.57850461115E+01 -0.15373525378E+01 -0.35128520587E+01  0.69404856592E+01  0.51100000000E-03 0.  1.
        -12    1    4    4    0    0  0.30945498942E+02 -0.17012547752E+02 -0.13025270632E+01  0.35337618235E+02  0.00000000000E+00 0.  1.
</event>
<event>
 8    1  0.2401501E-006  0.9118800E+02  0.7816164E-02  0.1184000E+00
        -11   -1    0    0    0    0  0.00000000000E+00  0.00000000000E+00  0.45593999997E+02  0.45594000000E+02  0.51100000000E-03 0.  1.
         11   -1    0    0    0    0 -0.00000000000E+00 -0.00000000000E+00 -0.45593999997E+02  0.45594000000E+02  0.51100000000E-03 0. -1.
         23    2    1    2    0    0  0.88817841970E-15 -0.35527136788E-14  0.00000000000E+00  0.91188000000E+02  0.91188000000E+02 0.  0.
    9900012    2    3    3    0    0 -0.44695278643E+01 -0.23260374865E+02  0.28191450288E+02  0.54367087633E+02  0.40000007877E+02 0.  0.
         12    1    3    3    0    0  0.44695278643E+01  0.23260374865E+02 -0.28191450288E+02  0.36820912367E+02  0.00000000000E+00 0. -1.
         11    1    4    4    0    0  0.12689751072E+02 -0.77712900849E-01  0.91029975946E+01  0.15617310493E+02  0.51100000000E-03 0.  1.
        -11    1    4    4    0    0 -0.11873441326E+02 -0.18378370201E+02  0.42606186154E+01  0.22291163528E+02  0.51100000000E-03 0. -1.
         12    1    4    4    0    0 -0.52858376099E+01 -0.48042917627E+01  0.14827834079E+02  0.16458613612E+02  0.00000000000E+00 0. -1.
</event>
<event>
 8    1  0.2401501E-006  0.9118800E+02  0.7816164E-02  0.1184000E+00
        -11   -1    0    0    0    0  0.00000000000E+00  0.00000000000E+00  0.45593999997E+02  0.45594000000E+02  0.51100000000E-03 0. -1.
         11   -1    0    0    0    0 -0.00000000000E+00 -0.00000000000E+00 -0.45593999997E+02  0.45594000000E+02  0.51100000000E-03 0.  1.
         23    2    1    2    0    0 -0.44408920985E-15  0.00000000000E+00  0.00000000000E+00  0.91188000000E+02  0.91188000000E+02 0.  0.
    9900012    2    3    3    0    0  0.34227945034E+01  0.10909165406E+02 -0.35000777299E+02  0.54367084427E+02  0.40000000568E+02 0.  0.
         12    1    3    3    0    0 -0.34227945034E+01 -0.10909165406E+02  0.35000777299E+02  0.36820915573E+02  0.00000000000E+00 0. -1.
         11    1    4    4    0    0  0.82485699679E+00  0.40061183183E+01  0.64514786093E+01  0.76387793234E+01  0.51100000000E-03 0. -1.
        -11    1    4    4    0    0 -0.79837315600E+01 -0.14675560744E+00 -0.22771198286E+02  0.24130664692E+02  0.51100000000E-03 0.  1.
        -12    1    4    4    0    0  0.10581669067E+02  0.70498026955E+01 -0.18681057622E+02  0.22597640412E+02  0.00000000000E+00 0.  1.
</event>
<event>
 8    1  0.2401501E-006  0.9118800E+02  0.7816164E-02  0.1184000E+00
        -11   -1    0    0    0    0  0.00000000000E+00  0.00000000000E+00  0.45593999997E+02  0.45594000000E+02  0.51100000000E-03 0.  1.
         11   -1    0    0    0    0 -0.00000000000E+00 -0.00000000000E+00 -0.45593999997E+02  0.45594000000E+02  0.51100000000E-03 0. -1.
         23    2    1    2    0    0 -0.35527136788E-14  0.00000000000E+00  0.00000000000E+00  0.91188000000E+02  0.91188000000E+02 0.  0.
    9900012    2    3    3    0    0  0.15371370429E+02  0.51010276557E+01 -0.33067812916E+02  0.54367085250E+02  0.40000002444E+02 0.  0.
        -12    1    3    3    0    0 -0.15371370429E+02 -0.51010276557E+01  0.33067812916E+02  0.36820914750E+02  0.00000000000E+00 0.  1.
         11    1    4    4    0    0  0.82183411044E+01  0.27420031229E+01 -0.29690472392E+02  0.30928689962E+02  0.51100000000E-03 0. -1.
        -11    1    4    4    0    0 -0.45404954153E+01 -0.68141333534E+01  0.39769182134E-01  0.81884121674E+01  0.51100000000E-03 0.  1.
        -12    1    4    4    0    0  0.11693524740E+02  0.91731578862E+01 -0.34171097061E+01  0.15249983121E+02  0.00000000000E+00 0.  1.
</event>
<event>
 8    1  0.2401501E-006  0.9118800E+02  0.7816164E-02  0.1184000E+00
        -11   -1    0    0    0    0  0.00000000000E+00  0.00000000000E+00  0.45593999997E+02  0.45594000000E+02  0.51100000000E-03 0.  1.
         11   -1    0    0    0    0 -0.00000000000E+00 -0.00000000000E+00 -0.45593999997E+02  0.45594000000E+02  0.51100000000E-03 0. -1.
         23    2    1    2    0    0  0.35527136788E-14  0.00000000000E+00  0.00000000000E+00  0.91188000000E+02  0.91188000000E+02 0.  0.
    9900012    2    3    3    0    0  0.16295814924E+02 -0.14092888736E+02  0.29859918252E+02  0.54367111702E+02  0.40000062748E+02 0.  0.
         12    1    3    3    0    0 -0.16295814924E+02  0.14092888736E+02 -0.29859918252E+02  0.36820888298E+02  0.00000000000E+00 0. -1.
         11    1    4    4    0    0  0.23031233452E+02 -0.33574159784E+01  0.21709276724E+02  0.31827702596E+02  0.51100000000E-03 0. -1.
        -11    1    4    4    0    0 -0.39805471255E+01 -0.31256064065E+01  0.12403899741E+02  0.13396674956E+02  0.51100000000E-03 0.  1.
         12    1    4    4    0    0 -0.27548714025E+01 -0.76098663514E+01 -0.42532582125E+01  0.91427341508E+01  0.00000000000E+00 0. -1.
</event>
<event>
 8    1  0.2401501E-006  0.9118800E+02  0.7816164E-02  0.1184000E+00
        -11   -1    0    0    0    0  0.00000000000E+00  0.00000000000E+00  0.45593999997E+02  0.45594000000E+02  0.51100000000E-03 0.  1.
         11   -1    0    0    0    0 -0.00000000000E+00 -0.00000000000E+00 -0.45593999997E+02  0.45594000000E+02  0.51100000000E-03 0. -1.
         23    2    1    2    0    0  0.00000000000E+00  0.00000000000E+00  0.00000000000E+00  0.91188000000E+02  0.91188000000E+02 0.  0.
    9900012    2    3    3    0    0  0.10639920005E+02  0.26745085985E+02  0.22962401374E+02  0.54367090194E+02  0.40000013716E+02 0.  0.
         12    1    3    3    0    0 -0.10639920005E+02 -0.26745085985E+02 -0.22962401374E+02  0.36820909806E+02  0.00000000000E+00 0. -1.
         11    1    4    4    0    0  0.34913204709E+01 -0.55121019741E+01  0.90714083840E+01  0.11174213043E+02  0.51100000000E-03 0. -1.
        -11    1    4    4    0    0 -0.22890792661E+01  0.12351380395E+02  0.16794440613E+02  0.20972594434E+02  0.51100000000E-03 0.  1.
         12    1    4    4    0    0  0.94376788003E+01  0.19905807564E+02 -0.29034476226E+01  0.22220282717E+02  0.00000000000E+00 0. -1.
</event>
<event>
 8    1  0.2401501E-006  0.9118800E+02  0.7816164E-02  0.1184000E+00
        -11   -1    0    0    0    0  0.00000000000E+00  0.00000000000E+00  0.45593999997E+02  0.45594000000E+02  0.51100000000E-03 0.  1.
         11   -1    0    0    0    0 -0.00000000000E+00 -0.00000000000E+00 -0.45593999997E+02  0.45594000000E+02  0.51100000000E-03 0. -1.
         23    2    1    2    0    0 -0.35527136788E-14 -0.17763568394E-14  0.35527136788E-14  0.91188000000E+02  0.91188000000E+02 0.  0.
    9900012    2    3    3    0    0 -0.29523981472E+02 -0.42479169934E+01  0.21588682622E+02  0.54367061689E+02  0.39999948733E+02 0.  0.
         12    1    3    3    0    0  0.29523981472E+02  0.42479169934E+01 -0.21588682622E+02  0.36820938311E+02  0.00000000000E+00 0. -1.
         11    1    4    4    0    0 -0.14852470339E+01 -0.13166658646E+02  0.16750870731E+02  0.21357868085E+02  0.51100000000E-03 0. -1.
        -11    1    4    4    0    0 -0.16596364448E+02 -0.12379068353E+01 -0.90501792394E+00  0.16667056847E+02  0.51100000000E-03 0.  1.
        -12    1    4    4    0    0 -0.11442369990E+02  0.10156648488E+02  0.57428298149E+01  0.16342136757E+02  0.00000000000E+00 0.  1.
</event>
<event>
 8    1  0.2401501E-006  0.9118800E+02  0.7816164E-02  0.1184000E+00
        -11   -1    0    0    0    0  0.00000000000E+00  0.00000000000E+00  0.45593999997E+02  0.45594000000E+02  0.51100000000E-03 0.  1.
         11   -1    0    0    0    0 -0.00000000000E+00 -0.00000000000E+00 -0.45593999997E+02  0.45594000000E+02  0.51100000000E-03 0. -1.
         23    2    1    2    0    0  0.71054273576E-14 -0.17763568394E-14  0.17763568394E-14  0.91188000000E+02  0.91188000000E+02 0.  0.
    9900012    2    3    3    0    0 -0.35600241342E+02  0.35875006132E+01 -0.86909062055E+01  0.54367092965E+02  0.40000020031E+02 0.  0.
         12    1    3    3    0    0  0.35600241342E+02 -0.35875006132E+01  0.86909062055E+01  0.36820907035E+02  0.00000000000E+00 0. -1.
         11    1    4    4    0    0 -0.32827955685E+01 -0.10236204076E+02 -0.12061712364E+01  0.10817184012E+02  0.51100000000E-03 0. -1.
        -11    1    4    4    0    0 -0.83279090682E+01 -0.68503747878E+01 -0.46862469328E+01  0.11757661960E+02  0.51100000000E-03 0.  1.
         12    1    4    4    0    0 -0.23989536705E+02  0.20674079477E+02 -0.27984880363E+01  0.31792246993E+02  0.00000000000E+00 0. -1.
</event>
<event>
 8    1  0.2401501E-006  0.9118800E+02  0.7816164E-02  0.1184000E+00
        -11   -1    0    0    0    0  0.00000000000E+00  0.00000000000E+00  0.45593999997E+02  0.45594000000E+02  0.51100000000E-03 0. -1.
         11   -1    0    0    0    0 -0.00000000000E+00 -0.00000000000E+00 -0.45593999997E+02  0.45594000000E+02  0.51100000000E-03 0.  1.
         23    2    1    2    0    0  0.00000000000E+00 -0.35527136788E-14 -0.88817841970E-15  0.91188000000E+02  0.91188000000E+02 0.  0.
    9900012    2    3    3    0    0  0.30071153534E+02 -0.20233211690E+02  0.64901537717E+01  0.54367092540E+02  0.40000019064E+02 0.  0.
        -12    1    3    3    0    0 -0.30071153534E+02  0.20233211690E+02 -0.64901537717E+01  0.36820907460E+02  0.00000000000E+00 0.  1.
         11    1    4    4    0    0  0.16813318107E+02 -0.19543968373E+02  0.12851755011E+02  0.28806630706E+02  0.51100000000E-03 0. -1.
        -11    1    4    4    0    0  0.74003154776E+01 -0.76413615759E+01 -0.11044727879E+02  0.15334310878E+02  0.51100000000E-03 0.  1.
         12    1    4    4    0    0  0.58575199502E+01  0.69521182595E+01  0.46831266399E+01  0.10226150957E+02  0.00000000000E+00 0. -1.
</event>
<event>
 8    1  0.2401501E-006  0.9118800E+02  0.7816164E-02  0.1184000E+00
        -11   -1    0    0    0    0  0.00000000000E+00  0.00000000000E+00  0.45593999997E+02  0.45594000000E+02  0.51100000000E-03 0. -1.
         11   -1    0    0    0    0 -0.00000000000E+00 -0.00000000000E+00 -0.45593999997E+02  0.45594000000E+02  0.51100000000E-03 0.  1.
         23    2    1    2    0    0 -0.44408920985E-15  0.00000000000E+00 -0.99920072216E-15  0.91188000000E+02  0.91188000000E+02 0.  0.
    9900012    2    3    3    0    0 -0.36307942935E+01  0.36629813175E+02 -0.92425085884E+00  0.54367080401E+02  0.39999991391E+02 0.  0.
         12    1    3    3    0    0  0.36307942935E+01 -0.36629813175E+02  0.92425085884E+00  0.36820919599E+02  0.00000000000E+00 0. -1.
         11    1    4    4    0    0 -0.46164953046E+00  0.25415756805E+02 -0.10301096383E+02  0.27427839893E+02  0.51100000000E-03 0. -1.
        -11    1    4    4    0    0  0.42373577373E+01  0.37252698962E+00 -0.55932401229E+01  0.70269703490E+01  0.51100000000E-03 0.  1.
         12    1    4    4    0    0 -0.74065025003E+01  0.10841529381E+02  0.14970085647E+02  0.19912270159E+02  0.00000000000E+00 0. -1.
</event>
<event>
 8    1  0.2401501E-006  0.9118800E+02  0.7816164E-02  0.1184000E+00
        -11   -1    0    0    0    0  0.00000000000E+00  0.00000000000E+00  0.45593999997E+02  0.45594000000E+02  0.51100000000E-03 0.  1.
         11   -1    0    0    0    0 -0.00000000000E+00 -0.00000000000E+00 -0.45593999997E+02  0.45594000000E+02  0.51100000000E-03 0. -1.
         23    2    1    2    0    0  0.00000000000E+00  0.00000000000E+00  0.00000000000E+00  0.91188000000E+02  0.91188000000E+02 0.  0.
    9900012    2    3    3    0    0  0.28383315965E+02  0.21073146468E+02 -0.10300016251E+02  0.54367075759E+02  0.39999980808E+02 0.  0.
         12    1    3    3    0    0 -0.28383315965E+02 -0.21073146468E+02  0.10300016251E+02  0.36820924241E+02  0.00000000000E+00 0. -1.
         11    1    4    4    0    0  0.10173547191E+02 -0.11158600867E+01 -0.13792495520E+02  0.17174956742E+02  0.51100000000E-03 0. -1.
        -11    1    4    4    0    0  0.18869220145E+02  0.95733193378E+01  0.95117490506E+01  0.23198475861E+02  0.51100000000E-03 0.  1.
        -12    1    4    4    0    0 -0.65945137123E+00  0.12615687216E+02 -0.60192697816E+01  0.13993643155E+02  0.00000000000E+00 0.  1.
</event>
<event>
 8    1  0.2401501E-006  0.9118800E+02  0.7816164E-02  0.1184000E+00
        -11   -1    0    0    0    0  0.00000000000E+00  0.00000000000E+00  0.45593999997E+02  0.45594000000E+02  0.51100000000E-03 0. -1.
         11   -1    0    0    0    0 -0.00000000000E+00 -0.00000000000E+00 -0.45593999997E+02  0.45594000000E+02  0.51100000000E-03 0.  1.
         23    2    1    2    0    0  0.00000000000E+00  0.00000000000E+00 -0.35527136788E-14  0.91188000000E+02  0.91188000000E+02 0.  0.
    9900012    2    3    3    0    0 -0.22074808486E+02  0.40227103524E+01 -0.29194184144E+02  0.54367085344E+02  0.40000002659E+02 0.  0.
         12    1    3    3    0    0  0.22074808486E+02 -0.40227103524E+01  0.29194184144E+02  0.36820914656E+02  0.00000000000E+00 0. -1.
         11    1    4    4    0    0 -0.37668672830E+01  0.11025434311E+02 -0.90946756207E+01  0.14780480905E+02  0.51100000000E-03 0.  1.
        -11    1    4    4    0    0 -0.78998060054E+01  0.10781636969E+02 -0.62229711051E+01  0.14743676621E+02  0.51100000000E-03 0. -1.
         12    1    4    4    0    0 -0.10408135197E+02 -0.17784360928E+02 -0.13876537418E+02  0.24842927819E+02  0.00000000000E+00 0. -1.
</event>
<event>
 8    1  0.2401501E-006  0.9118800E+02  0.7816164E-02  0.1184000E+00
        -11   -1    0    0    0    0  0.00000000000E+00  0.00000000000E+00  0.45593999997E+02  0.45594000000E+02  0.51100000000E-03 0. -1.
         11   -1    0    0    0    0 -0.00000000000E+00 -0.00000000000E+00 -0.45593999997E+02  0.45594000000E+02  0.51100000000E-03 0.  1.
         23    2    1    2    0    0  0.00000000000E+00 -0.17763568394E-14 -0.35527136788E-14  0.91188000000E+02  0.91188000000E+02 0.  0.
    9900012    2    3    3    0    0 -0.33697644329E+02 -0.13701956959E+02  0.57013264826E+01  0.54367082283E+02  0.39999995681E+02 0.  0.
        -12    1    3    3    0    0  0.33697644329E+02  0.13701956959E+02 -0.57013264826E+01  0.36820917717E+02  0.00000000000E+00 0.  1.
         11    1    4    4    0    0 -0.16806233884E+02  0.42627583006E+01  0.16112876171E+02  0.23669503257E+02  0.51100000000E-03 0. -1.
        -11    1    4    4    0    0  0.73639860432E+00 -0.73017581832E+01  0.55305672599E+00  0.73596078343E+01  0.51100000000E-03 0.  1.
         12    1    4    4    0    0 -0.17627809050E+02 -0.10662957076E+02 -0.10964606414E+02  0.23337971191E+02  0.00000000000E+00 0. -1.
</event>
<event>
 8    1  0.2401501E-006  0.9118800E+02  0.7816164E-02  0.1184000E+00
        -11   -1    0    0    0    0  0.00000000000E+00  0.00000000000E+00  0.45593999997E+02  0.45594000000E+02  0.51100000000E-03 0.  1.
         11   -1    0    0    0    0 -0.00000000000E+00 -0.00000000000E+00 -0.45593999997E+02  0.45594000000E+02  0.51100000000E-03 0. -1.
         23    2    1    2    0    0  0.35527136788E-14  0.00000000000E+00  0.35527136788E-14  0.91188000000E+02  0.91188000000E+02 0.  0.
    9900012    2    3    3    0    0 -0.27529506777E+02 -0.34999673225E+01 -0.24200334369E+02  0.54367086130E+02  0.40000004451E+02 0.  0.
        -12    1    3    3    0    0  0.27529506777E+02  0.34999673225E+01  0.24200334369E+02  0.36820913870E+02  0.00000000000E+00 0.  1.
         11    1    4    4    0    0 -0.41877408589E+01 -0.79861236391E+01  0.21015033102E+01  0.92591393069E+01  0.51100000000E-03 0. -1.
        -11    1    4    4    0    0  0.28864306175E+00  0.11169457299E+02 -0.13131929055E+02  0.17242031555E+02  0.51100000000E-03 0.  1.
         12    1    4    4    0    0 -0.23630408979E+02 -0.66833009825E+01 -0.13169908625E+02  0.27865915268E+02  0.00000000000E+00 0. -1.
</event>
<event>
 8    1  0.2401501E-006  0.9118800E+02  0.7816164E-02  0.1184000E+00
        -11   -1    0    0    0    0  0.00000000000E+00  0.00000000000E+00  0.45593999997E+02  0.45594000000E+02  0.51100000000E-03 0.  1.
         11   -1    0    0    0    0 -0.00000000000E+00 -0.00000000000E+00 -0.45593999997E+02  0.45594000000E+02  0.51100000000E-03 0. -1.
         23    2    1    2    0    0  0.00000000000E+00  0.00000000000E+00 -0.88817841970E-15  0.91188000000E+02  0.91188000000E+02 0.  0.
    9900012    2    3    3    0    0 -0.11942452376E+02  0.34707295864E+02 -0.29259574725E+01  0.54367084991E+02  0.40000001854E+02 0.  0.
         12    1    3    3    0    0  0.11942452376E+02 -0.34707295864E+02  0.29259574725E+01  0.36820915009E+02  0.00000000000E+00 0. -1.
         11    1    4    4    0    0 -0.27275500735E+01  0.39742107260E+01  0.46523155561E+01  0.66990984911E+01  0.51100000000E-03 0. -1.
        -11    1    4    4    0    0 -0.16917147351E+02  0.10079018062E+02  0.73788209771E+01  0.21029110272E+02  0.51100000000E-03 0.  1.
         12    1    4    4    0    0  0.77022450480E+01  0.20654067076E+02 -0.14957094006E+02  0.26638876228E+02  0.00000000000E+00 0. -1.
</event>
<event>
 8    1  0.2401501E-006  0.9118800E+02  0.7816164E-02  0.1184000E+00
        -11   -1    0    0    0    0  0.00000000000E+00  0.00000000000E+00  0.45593999997E+02  0.45594000000E+02  0.51100000000E-03 0.  1.
         11   -1    0    0    0    0 -0.00000000000E+00 -0.00000000000E+00 -0.45593999997E+02  0.45594000000E+02  0.51100000000E-03 0. -1.
         23    2    1    2    0    0 -0.44408920985E-15  0.00000000000E+00  0.17763568394E-14  0.91188000000E+02  0.91188000000E+02 0.  0.
    9900012    2    3    3    0    0  0.37492919154E+01 -0.35893304081E+02  0.73070855911E+01  0.54367082473E+02  0.39999996113E+02 0.  0.
        -12    1    3    3    0    0 -0.37492919154E+01  0.35893304081E+02 -0.73070855911E+01  0.36820917527E+02  0.00000000000E+00 0.  1.
         11    1    4    4    0    0  0.12928102845E+02 -0.33448801034E+02  0.61101114534E+01  0.36377075144E+02  0.51100000000E-03 0. -1.
        -11    1    4    4    0    0 -0.94221208109E+01  0.40052562616E+01 -0.25175927841E+01  0.10543088351E+02  0.51100000000E-03 0.  1.
        -12    1    4    4    0    0  0.24330988128E+00 -0.64497593089E+01  0.37145669218E+01  0.74469189775E+01  0.00000000000E+00 0.  1.
</event>
<event>
 8    1  0.2401501E-006  0.9118800E+02  0.7816164E-02  0.1184000E+00
        -11   -1    0    0    0    0  0.00000000000E+00  0.00000000000E+00  0.45593999997E+02  0.45594000000E+02  0.51100000000E-03 0.  1.
         11   -1    0    0    0    0 -0.00000000000E+00 -0.00000000000E+00 -0.45593999997E+02  0.45594000000E+02  0.51100000000E-03 0. -1.
         23    2    1    2    0    0  0.00000000000E+00  0.35527136788E-14 -0.35527136788E-14  0.91188000000E+02  0.91188000000E+02 0.  0.
    9900012    2    3    3    0    0  0.21879065103E+01 -0.19793783089E+02  0.30970935565E+02  0.54367087007E+02  0.40000006449E+02 0.  0.
         12    1    3    3    0    0 -0.21879065103E+01  0.19793783089E+02 -0.30970935565E+02  0.36820912993E+02  0.00000000000E+00 0. -1.
         11    1    4    4    0    0 -0.25511625122E+01 -0.79816110474E+00 -0.61728778360E+01  0.67268055087E+01  0.51100000000E-03 0. -1.
        -11    1    4    4    0    0  0.11012106230E+02 -0.10122406309E+02  0.32588890386E+02  0.35857570609E+02  0.51100000000E-03 0.  1.
        -12    1    4    4    0    0 -0.62730372072E+01 -0.88732156757E+01  0.45549230145E+01  0.11782710889E+02  0.00000000000E+00 0.  1.
</event>
<event>
 8    1  0.2401501E-006  0.9118800E+02  0.7816164E-02  0.1184000E+00
        -11   -1    0    0    0    0  0.00000000000E+00  0.00000000000E+00  0.45593999997E+02  0.45594000000E+02  0.51100000000E-03 0. -1.
         11   -1    0    0    0    0 -0.00000000000E+00 -0.00000000000E+00 -0.45593999997E+02  0.45594000000E+02  0.51100000000E-03 0.  1.
         23    2    1    2    0    0  0.00000000000E+00  0.17763568394E-14  0.00000000000E+00  0.91188000000E+02  0.91188000000E+02 0.  0.
    9900012    2    3    3    0    0 -0.26000214243E+01  0.74525452692E+01  0.35964973538E+02  0.54367083879E+02  0.39999999320E+02 0.  0.
        -12    1    3    3    0    0  0.26000214243E+01 -0.74525452692E+01 -0.35964973538E+02  0.36820916121E+02  0.00000000000E+00 0.  1.
         11    1    4    4    0    0 -0.14518254757E+01 -0.69228781136E+01  0.30308805412E+02  0.31123266608E+02  0.51100000000E-03 0. -1.
        -11    1    4    4    0    0 -0.14628727639E+01  0.10430312040E+02  0.11874766459E+02  0.15872664700E+02  0.51100000000E-03 0.  1.
        -12    1    4    4    0    0  0.31467681534E+00  0.39451113430E+01 -0.62185983329E+01  0.73711525715E+01  0.00000000000E+00 0.  1.
</event>
<event>
 8    1  0.2401501E-006  0.9118800E+02  0.7816164E-02  0.1184000E+00
        -11   -1    0    0    0    0  0.00000000000E+00  0.00000000000E+00  0.45593999997E+02  0.45594000000E+02  0.51100000000E-03 0. -1.
         11   -1    0    0    0    0 -0.00000000000E+00 -0.00000000000E+00 -0.45593999997E+02  0.45594000000E+02  0.51100000000E-03 0.  1.
         23    2    1    2    0    0  0.00000000000E+00  0.00000000000E+00  0.35527136788E-14  0.91188000000E+02  0.91188000000E+02 0.  0.
    9900012    2    3    3    0    0  0.12957333801E+02 -0.14842449610E+02 -0.31106091102E+02  0.54367085925E+02  0.40000003984E+02 0.  0.
         12    1    3    3    0    0 -0.12957333801E+02  0.14842449610E+02  0.31106091102E+02  0.36820914075E+02  0.00000000000E+00 0. -1.
         11    1    4    4    0    0  0.45011757384E+01  0.62949580883E+01 -0.23574776826E+02  0.24812440086E+02  0.51100000000E-03 0. -1.
        -11    1    4    4    0    0  0.96284965435E+01 -0.57797230083E+01 -0.85563279442E+01  0.14118211356E+02  0.51100000000E-03 0.  1.
         12    1    4    4    0    0 -0.11723384811E+01 -0.15357684690E+02  0.10250136680E+01  0.15436434483E+02  0.00000000000E+00 0. -1.
</event>
<event>
 8    1  0.2401501E-006  0.9118800E+02  0.7816164E-02  0.1184000E+00
        -11   -1    0    0    0    0  0.00000000000E+00  0.00000000000E+00  0.45593999997E+02  0.45594000000E+02  0.51100000000E-03 0. -1.
         11   -1    0    0    0    0 -0.00000000000E+00 -0.00000000000E+00 -0.45593999997E+02  0.45594000000E+02  0.51100000000E-03 0.  1.
         23    2    1    2    0    0  0.00000000000E+00  0.00000000000E+00  0.35527136788E-14  0.91188000000E+02  0.91188000000E+02 0.  0.
    9900012    2    3    3    0    0  0.25821441978E+02  0.11776524467E+02 -0.23459488648E+02  0.54367068426E+02  0.39999964091E+02 0.  0.
         12    1    3    3    0    0 -0.25821441978E+02 -0.11776524467E+02  0.23459488648E+02  0.36820931574E+02  0.00000000000E+00 0. -1.
         11    1    4    4    0    0  0.62937772833E+00  0.18545862330E+02 -0.10421066596E+02  0.21282475306E+02  0.51100000000E-03 0. -1.
        -11    1    4    4    0    0  0.15850252448E+02 -0.90832032858E+01 -0.14534430069E+02  0.23344908273E+02  0.51100000000E-03 0.  1.
        -12    1    4    4    0    0  0.93418118014E+01  0.23138654221E+01  0.14960080167E+01  0.97396848465E+01  0.00000000000E+00 0.  1.
</event>
<event>
 8    1  0.2401501E-006  0.9118800E+02  0.7816164E-02  0.1184000E+00
        -11   -1    0    0    0    0  0.00000000000E+00  0.00000000000E+00  0.45593999997E+02  0.45594000000E+02  0.51100000000E-03 0.  1.
         11   -1    0    0    0    0 -0.00000000000E+00 -0.00000000000E+00 -0.45593999997E+02  0.45594000000E+02  0.51100000000E-03 0. -1.
         23    2    1    2    0    0 -0.35527136788E-14 -0.88817841970E-15  0.00000000000E+00  0.91188000000E+02  0.91188000000E+02 0.  0.
    9900012    2    3    3    0    0  0.25198515331E+02 -0.46205217824E+01 -0.26447382502E+02  0.54367103248E+02  0.40000043474E+02 0.  0.
        -12    1    3    3    0    0 -0.25198515331E+02  0.46205217824E+01  0.26447382502E+02  0.36820896752E+02  0.00000000000E+00 0.  1.
         11    1    4    4    0    0  0.99625835162E+00 -0.62823618605E+01 -0.76872582831E+01  0.99777022115E+01  0.51100000000E-03 0. -1.
        -11    1    4    4    0    0 -0.67252402353E+01  0.59614252721E+01 -0.47551133409E+01  0.10167524312E+02  0.51100000000E-03 0.  1.
         12    1    4    4    0    0  0.30927497215E+02 -0.42995851941E+01 -0.14005010878E+02  0.34221876724E+02  0.00000000000E+00 0. -1.
</event>
<event>
 8    1  0.2401501E-006  0.9118800E+02  0.7816164E-02  0.1184000E+00
        -11   -1    0    0    0    0  0.00000000000E+00  0.00000000000E+00  0.45593999997E+02  0.45594000000E+02  0.51100000000E-03 0. -1.
         11   -1    0    0    0    0 -0.00000000000E+00 -0.00000000000E+00 -0.45593999997E+02  0.45594000000E+02  0.51100000000E-03 0.  1.
         23    2    1    2    0    0  0.00000000000E+00  0.00000000000E+00  0.00000000000E+00  0.91188000000E+02  0.91188000000E+02 0.  0.
    9900012    2    3    3    0    0 -0.16360141345E+02  0.26040940897E+02  0.20248361694E+02  0.54367068739E+02  0.39999964803E+02 0.  0.
        -12    1    3    3    0    0  0.16360141345E+02 -0.26040940897E+02 -0.20248361694E+02  0.36820931261E+02  0.00000000000E+00 0.  1.
         11    1    4    4    0    0 -0.61370888808E+01  0.12027707913E+01  0.38899853802E+01  0.73649510539E+01  0.51100000000E-03 0. -1.
        -11    1    4    4    0    0  0.37383216823E+00 -0.35200583350E+01 -0.76074297569E+01  0.83906822690E+01  0.51100000000E-03 0.  1.
        -12    1    4    4    0    0 -0.10596884633E+02  0.28358228441E+02  0.23965806071E+02  0.38611435416E+02  0.00000000000E+00 0.  1.
</event>
<event>
 8    1  0.2401501E-006  0.9118800E+02  0.7816164E-02  0.1184000E+00
        -11   -1    0    0    0    0  0.00000000000E+00  0.00000000000E+00  0.45593999997E+02  0.45594000000E+02  0.51100000000E-03 0.  1.
         11   -1    0    0    0    0 -0.00000000000E+00 -0.00000000000E+00 -0.45593999997E+02  0.45594000000E+02  0.51100000000E-03 0. -1.
         23    2    1    2    0    0 -0.88817841970E-15  0.00000000000E+00 -0.35527136788E-14  0.91188000000E+02  0.91188000000E+02 0.  0.
    9900012    2    3    3    0    0 -0.53438296635E+01 -0.26891999724E+02  0.24577320561E+02  0.54367070482E+02  0.39999968777E+02 0.  0.
         12    1    3    3    0    0  0.53438296635E+01  0.26891999724E+02 -0.24577320561E+02  0.36820929518E+02  0.00000000000E+00 0. -1.
         11    1    4    4    0    0 -0.26292415606E+01  0.26469633887E+01  0.32211531922E+00  0.37447409663E+01  0.51100000000E-03 0.  1.
        -11    1    4    4    0    0  0.14205059901E+02 -0.10844852885E+02  0.40830929285E+01  0.18332108690E+02  0.51100000000E-03 0. -1.
         12    1    4    4    0    0 -0.16919648004E+02 -0.18694110227E+02  0.20172112314E+02  0.32290220826E+02  0.00000000000E+00 0. -1.
</event>
<event>
 8    1  0.2401501E-006  0.9118800E+02  0.7816164E-02  0.1184000E+00
        -11   -1    0    0    0    0  0.00000000000E+00  0.00000000000E+00  0.45593999997E+02  0.45594000000E+02  0.51100000000E-03 0.  1.
         11   -1    0    0    0    0 -0.00000000000E+00 -0.00000000000E+00 -0.45593999997E+02  0.45594000000E+02  0.51100000000E-03 0. -1.
         23    2    1    2    0    0 -0.53290705182E-14  0.44408920985E-15  0.14210854715E-13  0.91188000000E+02  0.91188000000E+02 0.  0.
    9900012    2    3    3    0    0 -0.15622473525E+02  0.20625745904E+01  0.33278577821E+02  0.54367086991E+02  0.40000006414E+02 0.  0.
         12    1    3    3    0    0  0.15622473525E+02 -0.20625745904E+01 -0.33278577821E+02  0.36820913009E+02  0.00000000000E+00 0. -1.
         11    1    4    4    0    0  0.40917715136E+01  0.73775673266E+00  0.13294341480E+01  0.43651202195E+01  0.51100000000E-03 0. -1.
        -11    1    4    4    0    0 -0.14830192841E+02  0.63548003465E+01  0.37652727977E+02  0.40963960154E+02  0.51100000000E-03 0.  1.
         12    1    4    4    0    0 -0.48840521979E+01 -0.50299824888E+01 -0.57035843039E+01  0.90380066177E+01  0.00000000000E+00 0. -1.
</event>
<event>
 8    1  0.2401501E-006  0.9118800E+02  0.7816164E-02  0.1184000E+00
        -11   -1    0    0    0    0  0.00000000000E+00  0.00000000000E+00  0.45593999997E+02  0.45594000000E+02  0.51100000000E-03 0.  1.
         11   -1    0    0    0    0 -0.00000000000E+00 -0.00000000000E+00 -0.45593999997E+02  0.45594000000E+02  0.51100000000E-03 0. -1.
         23    2    1    2    0    0 -0.88817841970E-15  0.35527136788E-14  0.00000000000E+00  0.91188000000E+02  0.91188000000E+02 0.  0.
    9900012    2    3    3    0    0 -0.72323845116E+01 -0.28850915512E+02  0.21704880644E+02  0.54367020174E+02  0.39999854089E+02 0.  0.
        -12    1    3    3    0    0  0.72323845116E+01  0.28850915512E+02 -0.21704880644E+02  0.36820979826E+02  0.00000000000E+00 0.  1.
         11    1    4    4    0    0  0.29345515971E+01 -0.11280145373E+02 -0.82445759688E+00  0.11684733772E+02  0.51100000000E-03 0. -1.
        -11    1    4    4    0    0  0.35120467926E+01  0.28644451899E+01  0.16843560775E+02  0.17442621901E+02  0.51100000000E-03 0.  1.
         12    1    4    4    0    0 -0.13678982901E+02 -0.20435215329E+02  0.56857774651E+01  0.25239664501E+02  0.00000000000E+00 0. -1.
</event>
<event>
 8    1  0.2401501E-006  0.9118800E+02  0.7816164E-02  0.1184000E+00
        -11   -1    0    0    0    0  0.00000000000E+00  0.00000000000E+00  0.45593999997E+02  0.45594000000E+02  0.51100000000E-03 0.  1.
         11   -1    0    0    0    0 -0.00000000000E+00 -0.00000000000E+00 -0.45593999997E+02  0.45594000000E+02  0.51100000000E-03 0. -1.
         23    2    1    2    0    0  0.00000000000E+00  0.71054273576E-14  0.00000000000E+00  0.91188000000E+02  0.91188000000E+02 0.  0.
    9900012    2    3    3    0    0  0.20932157975E+02 -0.29369938161E+02 -0.74182636426E+01  0.54367093703E+02  0.40000021715E+02 0.  0.
        -12    1    3    3    0    0 -0.20932157975E+02  0.29369938161E+02  0.74182636426E+01  0.36820906297E+02  0.00000000000E+00 0.  1.
         11    1    4    4    0    0  0.10311569113E+02 -0.10090172330E+02 -0.46425202736E+01  0.15155627008E+02  0.51100000000E-03 0. -1.
        -11    1    4    4    0    0 -0.59211280160E+01 -0.18351871683E+02 -0.92956543803E+01  0.21407011512E+02  0.51100000000E-03 0.  1.
         12    1    4    4    0    0  0.16541716877E+02 -0.92789414751E+00  0.65199110112E+01  0.17804455184E+02  0.00000000000E+00 0. -1.
</event>
<event>
 8    1  0.2401501E-006  0.9118800E+02  0.7816164E-02  0.1184000E+00
        -11   -1    0    0    0    0  0.00000000000E+00  0.00000000000E+00  0.45593999997E+02  0.45594000000E+02  0.51100000000E-03 0.  1.
         11   -1    0    0    0    0 -0.00000000000E+00 -0.00000000000E+00 -0.45593999997E+02  0.45594000000E+02  0.51100000000E-03 0. -1.
         23    2    1    2    0    0  0.00000000000E+00 -0.71054273576E-14  0.00000000000E+00  0.91188000000E+02  0.91188000000E+02 0.  0.
    9900012    2    3    3    0    0 -0.13888473640E+02  0.33358705342E+02 -0.70772418763E+01  0.54367078302E+02  0.39999986605E+02 0.  0.
        -12    1    3    3    0    0  0.13888473640E+02 -0.33358705342E+02  0.70772418763E+01  0.36820921698E+02  0.00000000000E+00 0.  1.
         11    1    4    4    0    0 -0.17621784930E+01  0.30305046842E+02 -0.15772227952E+02  0.34209126150E+02  0.51100000000E-03 0. -1.
        -11    1    4    4    0    0 -0.56430074953E+01 -0.17717839697E+01  0.10338292297E+02  0.11910627183E+02  0.51100000000E-03 0.  1.
        -12    1    4    4    0    0 -0.64832876517E+01  0.48254424694E+01 -0.16433062209E+01  0.82473249685E+01  0.00000000000E+00 0.  1.
</event>
<event>
 8    1  0.2401501E-006  0.9118800E+02  0.7816164E-02  0.1184000E+00
        -11   -1    0    0    0    0  0.00000000000E+00  0.00000000000E+00  0.45593999997E+02  0.45594000000E+02  0.51100000000E-03 0.  1.
         11   -1    0    0    0    0 -0.00000000000E+00 -0.00000000000E+00 -0.45593999997E+02  0.45594000000E+02  0.51100000000E-03 0. -1.
         23    2    1    2    0    0 -0.88817841970E-15  0.00000000000E+00  0.00000000000E+00  0.91188000000E+02  0.91188000000E+02 0.  0.
    9900012    2    3    3    0    0  0.20312977251E+01 -0.20106162172E+02  0.30779808477E+02  0.54367074732E+02  0.39999978466E+02 0.  0.
         12    1    3    3    0    0 -0.20312977251E+01  0.20106162172E+02 -0.30779808477E+02  0.36820925268E+02  0.00000000000E+00 0. -1.
         11    1    4    4    0    0  0.11294018048E+02 -0.72675220617E+01  0.16046000740E+02  0.20924766680E+02  0.51100000000E-03 0. -1.
        -11    1    4    4    0    0  0.64031908173E+01 -0.12777811799E+02  0.81142994587E+01  0.16435181258E+02  0.51100000000E-03 0.  1.
         12    1    4    4    0    0 -0.15665911140E+02 -0.60828310617E-01  0.66195082785E+01  0.17007126794E+02  0.00000000000E+00 0. -1.
</event>
<event>
 8    1  0.2401501E-006  0.9118800E+02  0.7816164E-02  0.1184000E+00
        -11   -1    0    0    0    0  0.00000000000E+00  0.00000000000E+00  0.45593999997E+02  0.45594000000E+02  0.51100000000E-03 0. -1.
         11   -1    0    0    0    0 -0.00000000000E+00 -0.00000000000E+00 -0.45593999997E+02  0.45594000000E+02  0.51100000000E-03 0.  1.
         23    2    1    2    0    0  0.00000000000E+00  0.00000000000E+00  0.00000000000E+00  0.91188000000E+02  0.91188000000E+02 0.  0.
    9900012    2    3    3    0    0  0.20309800594E+02  0.22024416584E+02  0.21405998114E+02  0.54367086360E+02  0.40000004974E+02 0.  0.
        -12    1    3    3    0    0 -0.20309800594E+02 -0.22024416584E+02 -0.21405998114E+02  0.36820913640E+02  0.00000000000E+00 0.  1.
         11    1    4    4    0    0  0.16441262745E+02  0.78813619013E+01  0.18951772825E+02  0.26298301838E+02  0.51100000000E-03 0. -1.
        -11    1    4    4    0    0 -0.36533422072E+01 -0.24204428122E+01 -0.64635045722E+01  0.78091193042E+01  0.51100000000E-03 0.  1.
        -12    1    4    4    0    0  0.75218800563E+01  0.16563497495E+02  0.89177298610E+01  0.20259665218E+02  0.00000000000E+00 0.  1.
</event>
<event>
 8    1  0.2401501E-006  0.9118800E+02  0.7816164E-02  0.1184000E+00
        -11   -1    0    0    0    0  0.00000000000E+00  0.00000000000E+00  0.45593999997E+02  0.45594000000E+02  0.51100000000E-03 0. -1.
         11   -1    0    0    0    0 -0.00000000000E+00 -0.00000000000E+00 -0.45593999997E+02  0.45594000000E+02  0.51100000000E-03 0.  1.
         23    2    1    2    0    0 -0.35527136788E-14  0.35527136788E-14  0.00000000000E+00  0.91188000000E+02  0.91188000000E+02 0.  0.
    9900012    2    3    3    0    0 -0.27738630740E+02  0.20228489971E+02 -0.13309976662E+02  0.54367096689E+02  0.40000028523E+02 0.  0.
         12    1    3    3    0    0  0.27738630740E+02 -0.20228489971E+02  0.13309976662E+02  0.36820903311E+02  0.00000000000E+00 0. -1.
         11    1    4    4    0    0  0.41149510383E+01  0.10022814826E+02 -0.18412053046E+01  0.10989980724E+02  0.51100000000E-03 0. -1.
        -11    1    4    4    0    0  0.42606767158E+01  0.77146142186E-01 -0.19144701364E+01  0.46716714106E+01  0.51100000000E-03 0.  1.
         12    1    4    4    0    0 -0.36114258495E+02  0.10128529003E+02 -0.95543012207E+01  0.38705444555E+02  0.00000000000E+00 0. -1.
</event>
<event>
 8    1  0.2401501E-006  0.9118800E+02  0.7816164E-02  0.1184000E+00
        -11   -1    0    0    0    0  0.00000000000E+00  0.00000000000E+00  0.45593999997E+02  0.45594000000E+02  0.51100000000E-03 0.  1.
         11   -1    0    0    0    0 -0.00000000000E+00 -0.00000000000E+00 -0.45593999997E+02  0.45594000000E+02  0.51100000000E-03 0. -1.
         23    2    1    2    0    0  0.13322676296E-14  0.00000000000E+00 -0.17763568394E-14  0.91188000000E+02  0.91188000000E+02 0.  0.
    9900012    2    3    3    0    0  0.37382739802E+01  0.35107996517E+02 -0.10451751476E+02  0.54367011139E+02  0.39999833492E+02 0.  0.
        -12    1    3    3    0    0 -0.37382739802E+01 -0.35107996517E+02  0.10451751476E+02  0.36820988861E+02  0.00000000000E+00 0.  1.
         11    1    4    4    0    0 -0.10920201657E+02  0.59631769943E+01 -0.92309641588E+00  0.12476473514E+02  0.51100000000E-03 0. -1.
        -11    1    4    4    0    0 -0.54474772203E+01  0.12198002855E+01  0.14569308219E+01  0.57693646516E+01  0.51100000000E-03 0.  1.
         12    1    4    4    0    0  0.20105952858E+02  0.27925019238E+02 -0.10985585882E+02  0.36121172973E+02  0.00000000000E+00 0. -1.
</event>
<event>
 8    1  0.2401501E-006  0.9118800E+02  0.7816164E-02  0.1184000E+00
        -11   -1    0    0    0    0  0.00000000000E+00  0.00000000000E+00  0.45593999997E+02  0.45594000000E+02  0.51100000000E-03 0.  1.
         11   -1    0    0    0    0 -0.00000000000E+00 -0.00000000000E+00 -0.45593999997E+02  0.45594000000E+02  0.51100000000E-03 0. -1.
         23    2    1    2    0    0 -0.17763568394E-14  0.00000000000E+00 -0.17763568394E-14  0.91188000000E+02  0.91188000000E+02 0.  0.
    9900012    2    3    3    0    0 -0.15092670557E+02  0.30556301039E+02  0.13939274441E+02  0.54367087332E+02  0.40000007192E+02 0.  0.
         12    1    3    3    0    0  0.15092670557E+02 -0.30556301039E+02 -0.13939274441E+02  0.36820912668E+02  0.00000000000E+00 0. -1.
         11    1    4    4    0    0  0.77396252606E+01 -0.23872979341E+00 -0.15219085724E+01  0.78914508839E+01  0.51100000000E-03 0. -1.
        -11    1    4    4    0    0 -0.16007221506E+02  0.31864927340E+02  0.84798445472E+01  0.36653956110E+02  0.51100000000E-03 0.  1.
         12    1    4    4    0    0 -0.68250743118E+01 -0.10698965070E+01  0.69813384660E+01  0.98216803386E+01  0.00000000000E+00 0. -1.
</event>
<event>
 8    1  0.2401501E-006  0.9118800E+02  0.7816164E-02  0.1184000E+00
        -11   -1    0    0    0    0  0.00000000000E+00  0.00000000000E+00  0.45593999997E+02  0.45594000000E+02  0.51100000000E-03 0. -1.
         11   -1    0    0    0    0 -0.00000000000E+00 -0.00000000000E+00 -0.45593999997E+02  0.45594000000E+02  0.51100000000E-03 0.  1.
         23    2    1    2    0    0 -0.35527136788E-14  0.00000000000E+00  0.00000000000E+00  0.91188000000E+02  0.91188000000E+02 0.  0.
    9900012    2    3    3    0    0 -0.31115493185E+02 -0.14528873263E+02 -0.13286085116E+02  0.54367053079E+02  0.39999929105E+02 0.  0.
         12    1    3    3    0    0  0.31115493185E+02  0.14528873263E+02  0.13286085116E+02  0.36820946921E+02  0.00000000000E+00 0. -1.
         11    1    4    4    0    0 -0.12547388510E+02 -0.22822872910E+01 -0.25261952922E+02  0.28298622924E+02  0.51100000000E-03 0.  1.
        -11    1    4    4    0    0 -0.92186405793E+01 -0.98744892792E+01  0.70402467468E+01  0.15233317011E+02  0.51100000000E-03 0. -1.
        -12    1    4    4    0    0 -0.93494640961E+01 -0.23720966923E+01  0.49356210596E+01  0.10835113144E+02  0.00000000000E+00 0.  1.
</event>
<event>
 8    1  0.2401501E-006  0.9118800E+02  0.7816164E-02  0.1184000E+00
        -11   -1    0    0    0    0  0.00000000000E+00  0.00000000000E+00  0.45593999997E+02  0.45594000000E+02  0.51100000000E-03 0.  1.
         11   -1    0    0    0    0 -0.00000000000E+00 -0.00000000000E+00 -0.45593999997E+02  0.45594000000E+02  0.51100000000E-03 0. -1.
         23    2    1    2    0    0  0.35527136788E-14 -0.35527136788E-14  0.35527136788E-14  0.91188000000E+02  0.91188000000E+02 0.  0.
    9900012    2    3    3    0    0 -0.22615501073E+02  0.22545771317E+02 -0.18330522123E+02  0.54367072060E+02  0.39999972375E+02 0.  0.
        -12    1    3    3    0    0  0.22615501073E+02 -0.22545771317E+02  0.18330522123E+02  0.36820927940E+02  0.00000000000E+00 0.  1.
         11    1    4    4    0    0  0.81035850209E+01  0.81023674870E+01  0.20971656682E+01  0.11649658930E+02  0.51100000000E-03 0. -1.
        -11    1    4    4    0    0 -0.13709314193E+01  0.70844128793E+01 -0.31328347621E+01  0.78665756660E+01  0.51100000000E-03 0.  1.
         12    1    4    4    0    0 -0.29348154675E+02  0.73589909505E+01 -0.17294853029E+02  0.34850837464E+02  0.00000000000E+00 0. -1.
</event>
<event>
 8    1  0.2401501E-006  0.9118800E+02  0.7816164E-02  0.1184000E+00
        -11   -1    0    0    0    0  0.00000000000E+00  0.00000000000E+00  0.45593999997E+02  0.45594000000E+02  0.51100000000E-03 0. -1.
         11   -1    0    0    0    0 -0.00000000000E+00 -0.00000000000E+00 -0.45593999997E+02  0.45594000000E+02  0.51100000000E-03 0.  1.
         23    2    1    2    0    0 -0.17763568394E-14 -0.17763568394E-14  0.00000000000E+00  0.91188000000E+02  0.91188000000E+02 0.  0.
    9900012    2    3    3    0    0 -0.15262591486E+02  0.96539687821E+01  0.32087913431E+02  0.54367082026E+02  0.39999995095E+02 0.  0.
        -12    1    3    3    0    0  0.15262591486E+02 -0.96539687821E+01 -0.32087913431E+02  0.36820917974E+02  0.00000000000E+00 0.  1.
         11    1    4    4    0    0  0.54829706549E+01  0.45642665239E+01  0.12298445891E+02  0.14217850320E+02  0.51100000000E-03 0. -1.
        -11    1    4    4    0    0 -0.93936657088E+00 -0.83764575276E+01  0.12569796080E+02  0.15134306196E+02  0.51100000000E-03 0.  1.
        -12    1    4    4    0    0 -0.19806195570E+02  0.13466159786E+02  0.72196714590E+01  0.25014925510E+02  0.00000000000E+00 0.  1.
</event>
<event>
 8    1  0.2401501E-006  0.9118800E+02  0.7816164E-02  0.1184000E+00
        -11   -1    0    0    0    0  0.00000000000E+00  0.00000000000E+00  0.45593999997E+02  0.45594000000E+02  0.51100000000E-03 0. -1.
         11   -1    0    0    0    0 -0.00000000000E+00 -0.00000000000E+00 -0.45593999997E+02  0.45594000000E+02  0.51100000000E-03 0.  1.
         23    2    1    2    0    0  0.00000000000E+00  0.88817841970E-15 -0.88817841970E-15  0.91188000000E+02  0.91188000000E+02 0.  0.
    9900012    2    3    3    0    0 -0.35317618202E+02  0.70544532745E+01 -0.76603175203E+01  0.54367082969E+02  0.39999997246E+02 0.  0.
         12    1    3    3    0    0  0.35317618202E+02 -0.70544532745E+01  0.76603175203E+01  0.36820917031E+02  0.00000000000E+00 0. -1.
         11    1    4    4    0    0  0.31777397086E+01 -0.21660464784E+01 -0.10218254889E+01  0.39791851670E+01  0.51100000000E-03 0. -1.
        -11    1    4    4    0    0 -0.18007742642E+02 -0.13912725759E+01 -0.17264774255E+02  0.24985733225E+02  0.51100000000E-03 0.  1.
         12    1    4    4    0    0 -0.20487615268E+02  0.10611772329E+02  0.10626282223E+02  0.25402164578E+02  0.00000000000E+00 0. -1.
</event>
<event>
 8    1  0.2401501E-006  0.9118800E+02  0.7816164E-02  0.1184000E+00
        -11   -1    0    0    0    0  0.00000000000E+00  0.00000000000E+00  0.45593999997E+02  0.45594000000E+02  0.51100000000E-03 0.  1.
         11   -1    0    0    0    0 -0.00000000000E+00 -0.00000000000E+00 -0.45593999997E+02  0.45594000000E+02  0.51100000000E-03 0. -1.
         23    2    1    2    0    0  0.00000000000E+00 -0.13322676296E-14 -0.35527136788E-14  0.91188000000E+02  0.91188000000E+02 0.  0.
    9900012    2    3    3    0    0  0.22833306047E+02  0.16949971978E+01 -0.28836554035E+02  0.54367085710E+02  0.40000003493E+02 0.  0.
        -12    1    3    3    0    0 -0.22833306047E+02 -0.16949971978E+01  0.28836554035E+02  0.36820914290E+02  0.00000000000E+00 0.  1.
         11    1    4    4    0    0  0.35421188536E+01  0.41315880800E+01 -0.21468050938E+02  0.22147095462E+02  0.51100000000E-03 0. -1.
        -11    1    4    4    0    0  0.62152458266E+00 -0.50757050658E+01 -0.11791789579E+02  0.12852835347E+02  0.51100000000E-03 0.  1.
        -12    1    4    4    0    0  0.18669662611E+02  0.26391141835E+01  0.44232864824E+01  0.19367154901E+02  0.00000000000E+00 0.  1.
</event>
<event>
 8    1  0.2401501E-006  0.9118800E+02  0.7816164E-02  0.1184000E+00
        -11   -1    0    0    0    0  0.00000000000E+00  0.00000000000E+00  0.45593999997E+02  0.45594000000E+02  0.51100000000E-03 0.  1.
         11   -1    0    0    0    0 -0.00000000000E+00 -0.00000000000E+00 -0.45593999997E+02  0.45594000000E+02  0.51100000000E-03 0. -1.
         23    2    1    2    0    0  0.00000000000E+00  0.35527136788E-14  0.00000000000E+00  0.91188000000E+02  0.91188000000E+02 0.  0.
    9900012    2    3    3    0    0  0.22918935890E+02  0.19716553658E+02  0.21018074905E+02  0.54367087692E+02  0.40000008011E+02 0.  0.
         12    1    3    3    0    0 -0.22918935890E+02 -0.19716553658E+02 -0.21018074905E+02  0.36820912308E+02  0.00000000000E+00 0. -1.
         11    1    4    4    0    0 -0.13855319335E+01  0.64834657247E+01  0.45058728216E+01  0.80161035851E+01  0.51100000000E-03 0. -1.
        -11    1    4    4    0    0  0.12677017700E+02  0.23626254037E+02  0.58045392041E+01  0.27433543942E+02  0.51100000000E-03 0.  1.
         12    1    4    4    0    0  0.11627450123E+02 -0.10393166104E+02  0.10707662879E+02  0.18917440164E+02  0.00000000000E+00 0. -1.
</event>
<event>
 8    1  0.2401501E-006  0.9118800E+02  0.7816164E-02  0.1184000E+00
        -11   -1    0    0    0    0  0.00000000000E+00  0.00000000000E+00  0.45593999997E+02  0.45594000000E+02  0.51100000000E-03 0.  1.
         11   -1    0    0    0    0 -0.00000000000E+00 -0.00000000000E+00 -0.45593999997E+02  0.45594000000E+02  0.51100000000E-03 0. -1.
         23    2    1    2    0    0  0.00000000000E+00 -0.17763568394E-14 -0.35527136788E-14  0.91188000000E+02  0.91188000000E+02 0.  0.
    9900012    2    3    3    0    0  0.24955775229E+02  0.62528621237E+01  0.26341792477E+02  0.54367095164E+02  0.40000025046E+02 0.  0.
         12    1    3    3    0    0 -0.24955775229E+02 -0.62528621237E+01 -0.26341792477E+02  0.36820904836E+02  0.00000000000E+00 0. -1.
         11    1    4    4    0    0 -0.16697414123E+01 -0.92524094727E+01  0.56963477376E+01  0.10992883846E+02  0.51100000000E-03 0.  1.
        -11    1    4    4    0    0  0.17999334957E+02  0.17406890740E+02  0.51886761551E+01  0.25571434544E+02  0.51100000000E-03 0. -1.
         12    1    4    4    0    0  0.86261816843E+01 -0.19016191438E+01  0.15456768585E+02  0.17802776775E+02  0.00000000000E+00 0. -1.
</event>
<event>
 8    1  0.2401501E-006  0.9118800E+02  0.7816164E-02  0.1184000E+00
        -11   -1    0    0    0    0  0.00000000000E+00  0.00000000000E+00  0.45593999997E+02  0.45594000000E+02  0.51100000000E-03 0. -1.
         11   -1    0    0    0    0 -0.00000000000E+00 -0.00000000000E+00 -0.45593999997E+02  0.45594000000E+02  0.51100000000E-03 0.  1.
         23    2    1    2    0    0 -0.35527136788E-14  0.00000000000E+00  0.88817841970E-15  0.91188000000E+02  0.91188000000E+02 0.  0.
    9900012    2    3    3    0    0 -0.26556304384E+02 -0.25130921956E+02  0.43565489740E+01  0.54367081219E+02  0.39999993256E+02 0.  0.
        -12    1    3    3    0    0  0.26556304384E+02  0.25130921956E+02 -0.43565489740E+01  0.36820918781E+02  0.00000000000E+00 0.  1.
         11    1    4    4    0    0 -0.24084479058E+02 -0.30558577956E+01  0.39999441629E+01  0.24604876589E+02  0.51100000000E-03 0. -1.
        -11    1    4    4    0    0 -0.94790525067E+01 -0.15611452159E+02  0.53085017981E+01  0.19019728350E+02  0.51100000000E-03 0.  1.
         12    1    4    4    0    0  0.70072271806E+01 -0.64636120015E+01 -0.49518969870E+01  0.10742476280E+02  0.00000000000E+00 0. -1.
</event>
<event>
 8    1  0.2401501E-006  0.9118800E+02  0.7816164E-02  0.1184000E+00
        -11   -1    0    0    0    0  0.00000000000E+00  0.00000000000E+00  0.45593999997E+02  0.45594000000E+02  0.51100000000E-03 0. -1.
         11   -1    0    0    0    0 -0.00000000000E+00 -0.00000000000E+00 -0.45593999997E+02  0.45594000000E+02  0.51100000000E-03 0.  1.
         23    2    1    2    0    0  0.00000000000E+00  0.00000000000E+00  0.00000000000E+00  0.91188000000E+02  0.91188000000E+02 0.  0.
    9900012    2    3    3    0    0  0.16059771163E+02 -0.31782052335E+02 -0.93680930890E+01  0.54367132703E+02  0.40000110622E+02 0.  0.
         12    1    3    3    0    0 -0.16059771163E+02  0.31782052335E+02  0.93680930890E+01  0.36820867297E+02  0.00000000000E+00 0. -1.
         11    1    4    4    0    0 -0.12159652195E+02 -0.49443368826E+01  0.81967648634E-01  0.13126702849E+02  0.51100000000E-03 0. -1.
        -11    1    4    4    0    0  0.17869282861E+02 -0.17899808705E+02 -0.10793570822E+02  0.27499374411E+02  0.51100000000E-03 0.  1.
         12    1    4    4    0    0  0.10350140497E+02 -0.89379067464E+01  0.13435100844E+01  0.13741055442E+02  0.00000000000E+00 0. -1.
</event>
<event>
 8    1  0.2401501E-006  0.9118800E+02  0.7816164E-02  0.1184000E+00
        -11   -1    0    0    0    0  0.00000000000E+00  0.00000000000E+00  0.45593999997E+02  0.45594000000E+02  0.51100000000E-03 0.  1.
         11   -1    0    0    0    0 -0.00000000000E+00 -0.00000000000E+00 -0.45593999997E+02  0.45594000000E+02  0.51100000000E-03 0. -1.
         23    2    1    2    0    0 -0.71054273576E-14  0.00000000000E+00  0.00000000000E+00  0.91188000000E+02  0.91188000000E+02 0.  0.
    9900012    2    3    3    0    0  0.18425507544E+02 -0.18847195272E+02 -0.25711167085E+02  0.54367079170E+02  0.39999988584E+02 0.  0.
        -12    1    3    3    0    0 -0.18425507544E+02  0.18847195272E+02  0.25711167085E+02  0.36820920830E+02  0.00000000000E+00 0.  1.
         11    1    4    4    0    0  0.64877936677E+00  0.64309570506E+01 -0.22283214236E+02  0.23201718907E+02  0.51100000000E-03 0. -1.
        -11    1    4    4    0    0  0.10582621799E+02 -0.13377048102E+02 -0.14417059182E+01  0.17117704761E+02  0.51100000000E-03 0.  1.
         12    1    4    4    0    0  0.71941063785E+01 -0.11901104221E+02 -0.19862469303E+01  0.14047655503E+02  0.00000000000E+00 0. -1.
</event>
<event>
 8    1  0.2401501E-006  0.9118800E+02  0.7816164E-02  0.1184000E+00
        -11   -1    0    0    0    0  0.00000000000E+00  0.00000000000E+00  0.45593999997E+02  0.45594000000E+02  0.51100000000E-03 0.  1.
         11   -1    0    0    0    0 -0.00000000000E+00 -0.00000000000E+00 -0.45593999997E+02  0.45594000000E+02  0.51100000000E-03 0. -1.
         23    2    1    2    0    0  0.35527136788E-14  0.00000000000E+00  0.00000000000E+00  0.91188000000E+02  0.91188000000E+02 0.  0.
    9900012    2    3    3    0    0  0.22672118740E+02  0.88359874527E+01  0.27634771907E+02  0.54367078490E+02  0.39999987035E+02 0.  0.
         12    1    3    3    0    0 -0.22672118740E+02 -0.88359874527E+01 -0.27634771907E+02  0.36820921510E+02  0.00000000000E+00 0. -1.
         11    1    4    4    0    0  0.20300742535E+02  0.12052994161E+02  0.58086495523E+01  0.24313272622E+02  0.51100000000E-03 0. -1.
        -11    1    4    4    0    0  0.45009469881E+01  0.34062242181E+01 -0.13937498980E+01  0.58140714007E+01  0.51100000000E-03 0.  1.
         12    1    4    4    0    0 -0.21295707828E+01 -0.66232309261E+01  0.23219872253E+02  0.24239734468E+02  0.00000000000E+00 0. -1.
</event>
<event>
 8    1  0.2401501E-006  0.9118800E+02  0.7816164E-02  0.1184000E+00
        -11   -1    0    0    0    0  0.00000000000E+00  0.00000000000E+00  0.45593999997E+02  0.45594000000E+02  0.51100000000E-03 0.  1.
         11   -1    0    0    0    0 -0.00000000000E+00 -0.00000000000E+00 -0.45593999997E+02  0.45594000000E+02  0.51100000000E-03 0. -1.
         23    2    1    2    0    0  0.35527136788E-14  0.00000000000E+00  0.17763568394E-14  0.91188000000E+02  0.91188000000E+02 0.  0.
    9900012    2    3    3    0    0  0.20081370714E+02 -0.26880943092E+02  0.15163569682E+02  0.54367076644E+02  0.39999982826E+02 0.  0.
         12    1    3    3    0    0 -0.20081370714E+02  0.26880943092E+02 -0.15163569682E+02  0.36820923356E+02  0.00000000000E+00 0. -1.
         11    1    4    4    0    0 -0.32547809537E+01 -0.19533884845E+02 -0.61254898820E+01  0.20728914172E+02  0.51100000000E-03 0. -1.
        -11    1    4    4    0    0  0.19965104265E+02 -0.25752451195E+01  0.17507881321E+02  0.26678890239E+02  0.51100000000E-03 0.  1.
         12    1    4    4    0    0  0.33710474023E+01 -0.47718131273E+01  0.37811782428E+01  0.69592722331E+01  0.00000000000E+00 0. -1.
</event>
<event>
 8    1  0.2401501E-006  0.9118800E+02  0.7816164E-02  0.1184000E+00
        -11   -1    0    0    0    0  0.00000000000E+00  0.00000000000E+00  0.45593999997E+02  0.45594000000E+02  0.51100000000E-03 0. -1.
         11   -1    0    0    0    0 -0.00000000000E+00 -0.00000000000E+00 -0.45593999997E+02  0.45594000000E+02  0.51100000000E-03 0.  1.
         23    2    1    2    0    0 -0.88817841970E-15  0.00000000000E+00 -0.53290705182E-14  0.91188000000E+02  0.91188000000E+02 0.  0.
    9900012    2    3    3    0    0 -0.66680710725E+01  0.34334344512E+02 -0.11509514755E+02  0.54367091337E+02  0.40000016321E+02 0.  0.
         12    1    3    3    0    0  0.66680710725E+01 -0.34334344512E+02  0.11509514755E+02  0.36820908663E+02  0.00000000000E+00 0. -1.
         11    1    4    4    0    0 -0.49522850883E+01 -0.40631653235E+00  0.32838431827E+00  0.49797647778E+01  0.51100000000E-03 0. -1.
        -11    1    4    4    0    0 -0.82168229798E+01  0.64119084398E+00  0.61561563715E+01  0.10287155443E+02  0.51100000000E-03 0.  1.
        -12    1    4    4    0    0  0.65010369957E+01  0.34099470200E+02 -0.17994055445E+02  0.39100171116E+02  0.00000000000E+00 0.  1.
</event>
<event>
 8    1  0.2401501E-006  0.9118800E+02  0.7816164E-02  0.1184000E+00
        -11   -1    0    0    0    0  0.00000000000E+00  0.00000000000E+00  0.45593999997E+02  0.45594000000E+02  0.51100000000E-03 0. -1.
         11   -1    0    0    0    0 -0.00000000000E+00 -0.00000000000E+00 -0.45593999997E+02  0.45594000000E+02  0.51100000000E-03 0.  1.
         23    2    1    2    0    0  0.00000000000E+00  0.35527136788E-14  0.00000000000E+00  0.91188000000E+02  0.91188000000E+02 0.  0.
    9900012    2    3    3    0    0  0.17720528477E+02  0.14060493311E+02 -0.29052813602E+02  0.54367074159E+02  0.39999977159E+02 0.  0.
         12    1    3    3    0    0 -0.17720528477E+02 -0.14060493311E+02  0.29052813602E+02  0.36820925841E+02  0.00000000000E+00 0. -1.
         11    1    4    4    0    0  0.16540773832E-01  0.98964439096E+01 -0.46265346648E+00  0.99072662296E+01  0.51100000000E-03 0. -1.
        -11    1    4    4    0    0  0.35563290137E+01 -0.78190965252E+01 -0.23811253785E+02  0.25313268331E+02  0.51100000000E-03 0.  1.
        -12    1    4    4    0    0  0.14147658689E+02  0.11983145926E+02 -0.47789063506E+01  0.19146539598E+02  0.00000000000E+00 0.  1.
</event>
<event>
 8    1  0.2401501E-006  0.9118800E+02  0.7816164E-02  0.1184000E+00
        -11   -1    0    0    0    0  0.00000000000E+00  0.00000000000E+00  0.45593999997E+02  0.45594000000E+02  0.51100000000E-03 0. -1.
         11   -1    0    0    0    0 -0.00000000000E+00 -0.00000000000E+00 -0.45593999997E+02  0.45594000000E+02  0.51100000000E-03 0.  1.
         23    2    1    2    0    0 -0.71054273576E-14  0.35527136788E-14 -0.35527136788E-14  0.91188000000E+02  0.91188000000E+02 0.  0.
    9900012    2    3    3    0    0 -0.22354657244E+02  0.24087078236E+02 -0.16609221668E+02  0.54367023874E+02  0.39999862526E+02 0.  0.
         12    1    3    3    0    0  0.22354657244E+02 -0.24087078236E+02  0.16609221668E+02  0.36820976126E+02  0.00000000000E+00 0. -1.
         11    1    4    4    0    0 -0.20031936675E+02  0.18660065634E+01  0.32527630576E+01  0.20379914996E+02  0.51100000000E-03 0. -1.
        -11    1    4    4    0    0 -0.11983528301E+01  0.16066886714E+02 -0.35241321980E+01  0.16492434817E+02  0.51100000000E-03 0.  1.
        -12    1    4    4    0    0 -0.11243677383E+01  0.61541849584E+01 -0.16337852527E+02  0.17494674061E+02  0.00000000000E+00 0.  1.
</event>
<event>
 8    1  0.2401501E-006  0.9118800E+02  0.7816164E-02  0.1184000E+00
        -11   -1    0    0    0    0  0.00000000000E+00  0.00000000000E+00  0.45593999997E+02  0.45594000000E+02  0.51100000000E-03 0. -1.
         11   -1    0    0    0    0 -0.00000000000E+00 -0.00000000000E+00 -0.45593999997E+02  0.45594000000E+02  0.51100000000E-03 0.  1.
         23    2    1    2    0    0  0.00000000000E+00  0.35527136788E-14 -0.71054273576E-14  0.91188000000E+02  0.91188000000E+02 0.  0.
    9900012    2    3    3    0    0 -0.84999893717E+01 -0.16003565242E+02  0.32053370928E+02  0.54367047981E+02  0.39999917481E+02 0.  0.
        -12    1    3    3    0    0  0.84999893717E+01  0.16003565242E+02 -0.32053370928E+02  0.36820952019E+02  0.00000000000E+00 0.  1.
         11    1    4    4    0    0 -0.39818137751E+01  0.34710091757E+01  0.59661399307E+01  0.79685363506E+01  0.51100000000E-03 0. -1.
        -11    1    4    4    0    0 -0.83387879701E+01 -0.24830341240E+02  0.83679509905E+01  0.27497342325E+02  0.51100000000E-03 0.  1.
        -12    1    4    4    0    0  0.38206123735E+01  0.53557668217E+01  0.17719280006E+02  0.18901169305E+02  0.00000000000E+00 0.  1.
</event>
<event>
 8    1  0.2401501E-006  0.9118800E+02  0.7816164E-02  0.1184000E+00
        -11   -1    0    0    0    0  0.00000000000E+00  0.00000000000E+00  0.45593999997E+02  0.45594000000E+02  0.51100000000E-03 0. -1.
         11   -1    0    0    0    0 -0.00000000000E+00 -0.00000000000E+00 -0.45593999997E+02  0.45594000000E+02  0.51100000000E-03 0.  1.
         23    2    1    2    0    0 -0.35527136788E-14  0.33306690739E-15  0.10658141036E-13  0.91188000000E+02  0.91188000000E+02 0.  0.
    9900012    2    3    3    0    0  0.18748559396E+02 -0.76053747521E+00 -0.31681115457E+02  0.54367082395E+02  0.39999995935E+02 0.  0.
         12    1    3    3    0    0 -0.18748559396E+02  0.76053747521E+00  0.31681115457E+02  0.36820917605E+02  0.00000000000E+00 0. -1.
         11    1    4    4    0    0 -0.20920481283E+01  0.47741424619E+00  0.28172789075E+01  0.35414192688E+01  0.51100000000E-03 0. -1.
        -11    1    4    4    0    0  0.81438433625E+01 -0.14444561766E+02 -0.25494092173E+02  0.30412436360E+02  0.51100000000E-03 0.  1.
         12    1    4    4    0    0  0.12696764162E+02  0.13206610045E+02 -0.90043021913E+01  0.20413226766E+02  0.00000000000E+00 0. -1.
</event>
<event>
 8    1  0.2401501E-006  0.9118800E+02  0.7816164E-02  0.1184000E+00
        -11   -1    0    0    0    0  0.00000000000E+00  0.00000000000E+00  0.45593999997E+02  0.45594000000E+02  0.51100000000E-03 0. -1.
         11   -1    0    0    0    0 -0.00000000000E+00 -0.00000000000E+00 -0.45593999997E+02  0.45594000000E+02  0.51100000000E-03 0.  1.
         23    2    1    2    0    0  0.00000000000E+00  0.00000000000E+00 -0.35527136788E-14  0.91188000000E+02  0.91188000000E+02 0.  0.
    9900012    2    3    3    0    0  0.20630338666E+02 -0.16253436041E+02  0.25806833693E+02  0.54367112967E+02  0.40000065631E+02 0.  0.
        -12    1    3    3    0    0 -0.20630338666E+02  0.16253436041E+02 -0.25806833693E+02  0.36820887033E+02  0.00000000000E+00 0.  1.
         11    1    4    4    0    0  0.73403494438E+01  0.45270700422E+01  0.23895986938E+02  0.25404591812E+02  0.51100000000E-03 0. -1.
        -11    1    4    4    0    0  0.11975216906E+02 -0.15176261689E+02  0.76903032336E+01  0.20805420036E+02  0.51100000000E-03 0.  1.
        -12    1    4    4    0    0  0.13147723164E+01 -0.56042443942E+01 -0.57794564787E+01  0.81571011188E+01  0.00000000000E+00 0.  1.
</event>
<event>
 8    1  0.2401501E-006  0.9118800E+02  0.7816164E-02  0.1184000E+00
        -11   -1    0    0    0    0  0.00000000000E+00  0.00000000000E+00  0.45593999997E+02  0.45594000000E+02  0.51100000000E-03 0.  1.
         11   -1    0    0    0    0 -0.00000000000E+00 -0.00000000000E+00 -0.45593999997E+02  0.45594000000E+02  0.51100000000E-03 0. -1.
         23    2    1    2    0    0  0.17763568394E-14  0.35527136788E-14  0.00000000000E+00  0.91188000000E+02  0.91188000000E+02 0.  0.
    9900012    2    3    3    0    0 -0.12664557374E+02 -0.30375018385E+02  0.16515053712E+02  0.54367085366E+02  0.40000002708E+02 0.  0.
         12    1    3    3    0    0  0.12664557374E+02  0.30375018385E+02 -0.16515053712E+02  0.36820914634E+02  0.00000000000E+00 0. -1.
         11    1    4    4    0    0  0.21418089460E+01  0.73373124463E+01  0.53080284922E+00  0.76619352269E+01  0.51100000000E-03 0. -1.
        -11    1    4    4    0    0 -0.17775430924E+01 -0.26010439375E+02  0.68608972047E+01  0.26958756029E+02  0.51100000000E-03 0.  1.
        -12    1    4    4    0    0 -0.13028823228E+02 -0.11701891457E+02  0.91233536582E+01  0.19746394110E+02  0.00000000000E+00 0.  1.
</event>
<event>
 8    1  0.2401501E-006  0.9118800E+02  0.7816164E-02  0.1184000E+00
        -11   -1    0    0    0    0  0.00000000000E+00  0.00000000000E+00  0.45593999997E+02  0.45594000000E+02  0.51100000000E-03 0.  1.
         11   -1    0    0    0    0 -0.00000000000E+00 -0.00000000000E+00 -0.45593999997E+02  0.45594000000E+02  0.51100000000E-03 0. -1.
         23    2    1    2    0    0  0.00000000000E+00 -0.35527136788E-14 -0.66613381478E-15  0.91188000000E+02  0.91188000000E+02 0.  0.
    9900012    2    3    3    0    0  0.26294287919E+02 -0.25755666126E+02  0.10142174642E+01  0.54367183173E+02  0.40000225678E+02 0.  0.
         12    1    3    3    0    0 -0.26294287919E+02  0.25755666126E+02 -0.10142174642E+01  0.36820816827E+02  0.00000000000E+00 0. -1.
         11    1    4    4    0    0  0.59391927037E+01 -0.10291165527E+02 -0.11116408019E+02  0.16271343687E+02  0.51100000000E-03 0. -1.
        -11    1    4    4    0    0  0.14204760256E+02 -0.22536962415E+02  0.77117276183E+01  0.27733745364E+02  0.51100000000E-03 0.  1.
         12    1    4    4    0    0  0.61503349593E+01  0.70724618156E+01  0.44188978647E+01  0.10362094122E+02  0.00000000000E+00 0. -1.
</event>
<event>
 8    1  0.2401501E-006  0.9118800E+02  0.7816164E-02  0.1184000E+00
        -11   -1    0    0    0    0  0.00000000000E+00  0.00000000000E+00  0.45593999997E+02  0.45594000000E+02  0.51100000000E-03 0.  1.
         11   -1    0    0    0    0 -0.00000000000E+00 -0.00000000000E+00 -0.45593999997E+02  0.45594000000E+02  0.51100000000E-03 0. -1.
         23    2    1    2    0    0  0.00000000000E+00  0.00000000000E+00  0.17763568394E-14  0.91188000000E+02  0.91188000000E+02 0.  0.
    9900012    2    3    3    0    0 -0.29656956068E+02 -0.16070125697E+02  0.14764684354E+02  0.54367083564E+02  0.39999998601E+02 0.  0.
         12    1    3    3    0    0  0.29656956068E+02  0.16070125697E+02 -0.14764684354E+02  0.36820916436E+02  0.00000000000E+00 0. -1.
         11    1    4    4    0    0 -0.73211649646E+00 -0.52858697389E+01  0.10937322713E+02  0.12169693581E+02  0.51100000000E-03 0. -1.
        -11    1    4    4    0    0  0.27291879264E+01 -0.99903646379E+01  0.72483093834E+00  0.10381774053E+02  0.51100000000E-03 0.  1.
         12    1    4    4    0    0 -0.31654027498E+02 -0.79389132060E+00  0.31025307023E+01  0.31815615930E+02  0.00000000000E+00 0. -1.
</event>
<event>
 8    1  0.2401501E-006  0.9118800E+02  0.7816164E-02  0.1184000E+00
        -11   -1    0    0    0    0  0.00000000000E+00  0.00000000000E+00  0.45593999997E+02  0.45594000000E+02  0.51100000000E-03 0.  1.
         11   -1    0    0    0    0 -0.00000000000E+00 -0.00000000000E+00 -0.45593999997E+02  0.45594000000E+02  0.51100000000E-03 0. -1.
         23    2    1    2    0    0 -0.35527136788E-14  0.00000000000E+00 -0.17763568394E-14  0.91188000000E+02  0.91188000000E+02 0.  0.
    9900012    2    3    3    0    0  0.28626332032E+02  0.18883204900E+02 -0.13406625922E+02  0.54367082962E+02  0.39999997228E+02 0.  0.
        -12    1    3    3    0    0 -0.28626332032E+02 -0.18883204900E+02  0.13406625922E+02  0.36820917038E+02  0.00000000000E+00 0.  1.
         11    1    4    4    0    0 -0.66414430201E+01  0.36763935939E+01 -0.23168844038E+01  0.79367870608E+01  0.51100000000E-03 0. -1.
        -11    1    4    4    0    0  0.53554420676E+01  0.11795080418E+02 -0.98941878451E+01  0.16300295555E+02  0.51100000000E-03 0.  1.
         12    1    4    4    0    0  0.29912332985E+02  0.34117308882E+01 -0.11955536727E+01  0.30130000346E+02  0.00000000000E+00 0. -1.
</event>
<event>
 8    1  0.2401501E-006  0.9118800E+02  0.7816164E-02  0.1184000E+00
        -11   -1    0    0    0    0  0.00000000000E+00  0.00000000000E+00  0.45593999997E+02  0.45594000000E+02  0.51100000000E-03 0. -1.
         11   -1    0    0    0    0 -0.00000000000E+00 -0.00000000000E+00 -0.45593999997E+02  0.45594000000E+02  0.51100000000E-03 0.  1.
         23    2    1    2    0    0 -0.88817841970E-15  0.35527136788E-14  0.35527136788E-14  0.91188000000E+02  0.91188000000E+02 0.  0.
    9900012    2    3    3    0    0  0.51619889523E+01  0.17685700138E+02 -0.31880256617E+02  0.54367070065E+02  0.39999967828E+02 0.  0.
         12    1    3    3    0    0 -0.51619889523E+01 -0.17685700138E+02  0.31880256617E+02  0.36820929935E+02  0.00000000000E+00 0. -1.
         11    1    4    4    0    0 -0.37872168495E+01 -0.27781853681E+01 -0.20149134239E+01  0.51108905067E+01  0.51100000000E-03 0. -1.
        -11    1    4    4    0    0  0.16009977876E+02  0.19048579858E+02 -0.33060195811E+02  0.41378065850E+02  0.51100000000E-03 0.  1.
         12    1    4    4    0    0 -0.70607720739E+01  0.14153056489E+01  0.31948526180E+01  0.78781137088E+01  0.00000000000E+00 0. -1.
</event>
<event>
 8    1  0.2401501E-006  0.9118800E+02  0.7816164E-02  0.1184000E+00
        -11   -1    0    0    0    0  0.00000000000E+00  0.00000000000E+00  0.45593999997E+02  0.45594000000E+02  0.51100000000E-03 0.  1.
         11   -1    0    0    0    0 -0.00000000000E+00 -0.00000000000E+00 -0.45593999997E+02  0.45594000000E+02  0.51100000000E-03 0. -1.
         23    2    1    2    0    0  0.35527136788E-14  0.17763568394E-14 -0.35527136788E-14  0.91188000000E+02  0.91188000000E+02 0.  0.
    9900012    2    3    3    0    0  0.22913511496E+02  0.14723918875E+02 -0.24778148137E+02  0.54367089892E+02  0.40000013026E+02 0.  0.
        -12    1    3    3    0    0 -0.22913511496E+02 -0.14723918875E+02  0.24778148137E+02  0.36820910108E+02  0.00000000000E+00 0.  1.
         11    1    4    4    0    0 -0.23735764523E+01 -0.39971264478E+01  0.56328258002E+01  0.73033972760E+01  0.51100000000E-03 0. -1.
        -11    1    4    4    0    0  0.14054440351E+01 -0.30328520580E+01 -0.47474980869E+01  0.58062210506E+01  0.51100000000E-03 0.  1.
         12    1    4    4    0    0  0.23881643913E+02  0.21753897381E+02 -0.25663475850E+02  0.41257471565E+02  0.00000000000E+00 0. -1.
</event>
<event>
 8    1  0.2401501E-006  0.9118800E+02  0.7816164E-02  0.1184000E+00
        -11   -1    0    0    0    0  0.00000000000E+00  0.00000000000E+00  0.45593999997E+02  0.45594000000E+02  0.51100000000E-03 0.  1.
         11   -1    0    0    0    0 -0.00000000000E+00 -0.00000000000E+00 -0.45593999997E+02  0.45594000000E+02  0.51100000000E-03 0. -1.
         23    2    1    2    0    0  0.00000000000E+00  0.00000000000E+00  0.00000000000E+00  0.91188000000E+02  0.91188000000E+02 0.  0.
    9900012    2    3    3    0    0 -0.23516179379E+02 -0.20233643523E+02  0.19833534887E+02  0.54367080281E+02  0.39999991117E+02 0.  0.
         12    1    3    3    0    0  0.23516179379E+02  0.20233643523E+02 -0.19833534887E+02  0.36820919719E+02  0.00000000000E+00 0. -1.
         11    1    4    4    0    0  0.76005085464E+01  0.49261785769E+01  0.15260994062E+01  0.91849847683E+01  0.51100000000E-03 0. -1.
        -11    1    4    4    0    0 -0.85297249439E+01 -0.69995002034E+01  0.10347192359E+02  0.15126585890E+02  0.51100000000E-03 0.  1.
         12    1    4    4    0    0 -0.22586962982E+02 -0.18160321896E+02  0.79602431218E+01  0.30055509623E+02  0.00000000000E+00 0. -1.
</event>
<event>
 8    1  0.2401501E-006  0.9118800E+02  0.7816164E-02  0.1184000E+00
        -11   -1    0    0    0    0  0.00000000000E+00  0.00000000000E+00  0.45593999997E+02  0.45594000000E+02  0.51100000000E-03 0.  1.
         11   -1    0    0    0    0 -0.00000000000E+00 -0.00000000000E+00 -0.45593999997E+02  0.45594000000E+02  0.51100000000E-03 0. -1.
         23    2    1    2    0    0  0.35527136788E-14 -0.35527136788E-14 -0.35527136788E-14  0.91188000000E+02  0.91188000000E+02 0.  0.
    9900012    2    3    3    0    0  0.26473881575E+02  0.17290099834E+02 -0.18867030090E+02  0.54367098567E+02  0.40000032804E+02 0.  0.
        -12    1    3    3    0    0 -0.26473881575E+02 -0.17290099834E+02  0.18867030090E+02  0.36820901433E+02  0.00000000000E+00 0.  1.
         11    1    4    4    0    0  0.72279494088E+01 -0.15854293844E+01 -0.23759561938E+01  0.77718728171E+01  0.51100000000E-03 0. -1.
        -11    1    4    4    0    0  0.15544168620E+02 -0.19238147870E+01  0.50173775056E+01  0.16446772289E+02  0.51100000000E-03 0.  1.
        -12    1    4    4    0    0  0.37017635458E+01  0.20799344005E+02 -0.21508451402E+02  0.30148453461E+02  0.00000000000E+00 0.  1.
</event>
<event>
 8    1  0.2401501E-006  0.9118800E+02  0.7816164E-02  0.1184000E+00
        -11   -1    0    0    0    0  0.00000000000E+00  0.00000000000E+00  0.45593999997E+02  0.45594000000E+02  0.51100000000E-03 0. -1.
         11   -1    0    0    0    0 -0.00000000000E+00 -0.00000000000E+00 -0.45593999997E+02  0.45594000000E+02  0.51100000000E-03 0.  1.
         23    2    1    2    0    0 -0.17763568394E-14  0.00000000000E+00 -0.35527136788E-14  0.91188000000E+02  0.91188000000E+02 0.  0.
    9900012    2    3    3    0    0 -0.10786221426E+02  0.24695512395E+02 -0.25091231681E+02  0.54367071001E+02  0.39999969960E+02 0.  0.
         12    1    3    3    0    0  0.10786221426E+02 -0.24695512395E+02  0.25091231681E+02  0.36820928999E+02  0.00000000000E+00 0. -1.
         11    1    4    4    0    0  0.37148589541E+00  0.26006291904E+02 -0.46689176998E+01  0.26424685677E+02  0.51100000000E-03 0. -1.
        -11    1    4    4    0    0  0.18914477400E+01 -0.49351635203E+01 -0.78487775728E+01  0.94623846452E+01  0.51100000000E-03 0.  1.
        -12    1    4    4    0    0 -0.13049155061E+02  0.36243840120E+01 -0.12573536408E+02  0.18480000679E+02  0.00000000000E+00 0.  1.
</event>
<event>
 8    1  0.2401501E-006  0.9118800E+02  0.7816164E-02  0.1184000E+00
        -11   -1    0    0    0    0  0.00000000000E+00  0.00000000000E+00  0.45593999997E+02  0.45594000000E+02  0.51100000000E-03 0.  1.
         11   -1    0    0    0    0 -0.00000000000E+00 -0.00000000000E+00 -0.45593999997E+02  0.45594000000E+02  0.51100000000E-03 0. -1.
         23    2    1    2    0    0 -0.35527136788E-14 -0.35527136788E-14  0.00000000000E+00  0.91188000000E+02  0.91188000000E+02 0.  0.
    9900012    2    3    3    0    0  0.31585693218E+02 -0.18633459837E+02  0.33037687135E+01  0.54367126446E+02  0.40000096360E+02 0.  0.
        -12    1    3    3    0    0 -0.31585693218E+02  0.18633459837E+02 -0.33037687135E+01  0.36820873554E+02  0.00000000000E+00 0.  1.
         11    1    4    4    0    0  0.31737177092E+02 -0.52987455369E+01  0.58754297937E+01  0.32708497207E+02  0.51100000000E-03 0. -1.
        -11    1    4    4    0    0  0.42846042360E+01 -0.10190310936E+02  0.51656186367E+01  0.12201798498E+02  0.51100000000E-03 0.  1.
         12    1    4    4    0    0 -0.44360881105E+01 -0.31444033640E+01 -0.77372797170E+01  0.94568307407E+01  0.00000000000E+00 0. -1.
</event>
<event>
 8    1  0.2401501E-006  0.9118800E+02  0.7816164E-02  0.1184000E+00
        -11   -1    0    0    0    0  0.00000000000E+00  0.00000000000E+00  0.45593999997E+02  0.45594000000E+02  0.51100000000E-03 0.  1.
         11   -1    0    0    0    0 -0.00000000000E+00 -0.00000000000E+00 -0.45593999997E+02  0.45594000000E+02  0.51100000000E-03 0. -1.
         23    2    1    2    0    0  0.00000000000E+00  0.00000000000E+00 -0.17763568394E-14  0.91188000000E+02  0.91188000000E+02 0.  0.
    9900012    2    3    3    0    0  0.21401234634E+02 -0.28877955777E+02  0.79893741089E+01  0.54367091913E+02  0.40000017633E+02 0.  0.
         12    1    3    3    0    0 -0.21401234634E+02  0.28877955777E+02 -0.79893741089E+01  0.36820908087E+02  0.00000000000E+00 0. -1.
         11    1    4    4    0    0  0.57487356100E+01  0.41914797683E+01  0.20770633915E+01  0.74115218650E+01  0.51100000000E-03 0. -1.
        -11    1    4    4    0    0  0.12834236926E+01 -0.19939767171E+02 -0.95035750025E+01  0.22125989906E+02  0.51100000000E-03 0.  1.
        -12    1    4    4    0    0  0.14369075331E+02 -0.13129668375E+02  0.15415885720E+02  0.24829580142E+02  0.00000000000E+00 0.  1.
</event>
<event>
 8    1  0.2401501E-006  0.9118800E+02  0.7816164E-02  0.1184000E+00
        -11   -1    0    0    0    0  0.00000000000E+00  0.00000000000E+00  0.45593999997E+02  0.45594000000E+02  0.51100000000E-03 0.  1.
         11   -1    0    0    0    0 -0.00000000000E+00 -0.00000000000E+00 -0.45593999997E+02  0.45594000000E+02  0.51100000000E-03 0. -1.
         23    2    1    2    0    0  0.00000000000E+00  0.00000000000E+00  0.00000000000E+00  0.91188000000E+02  0.91188000000E+02 0.  0.
    9900012    2    3    3    0    0  0.24209266888E+02 -0.10926703641E+02  0.25500877316E+02  0.54367133638E+02  0.40000112755E+02 0.  0.
         12    1    3    3    0    0 -0.24209266888E+02  0.10926703641E+02 -0.25500877316E+02  0.36820866362E+02  0.00000000000E+00 0. -1.
         11    1    4    4    0    0 -0.22384332215E+01 -0.10166358666E+01  0.66626413534E+01  0.71017548422E+01  0.51100000000E-03 0. -1.
        -11    1    4    4    0    0 -0.53881692992E+01 -0.94883576350E+01  0.83629688720E+01  0.13747747002E+02  0.51100000000E-03 0.  1.
        -12    1    4    4    0    0  0.31835869409E+02 -0.42171013920E+00  0.10475267091E+02  0.33517631794E+02  0.00000000000E+00 0.  1.
</event>
<event>
 8    1  0.2401501E-006  0.9118800E+02  0.7816164E-02  0.1184000E+00
        -11   -1    0    0    0    0  0.00000000000E+00  0.00000000000E+00  0.45593999997E+02  0.45594000000E+02  0.51100000000E-03 0.  1.
         11   -1    0    0    0    0 -0.00000000000E+00 -0.00000000000E+00 -0.45593999997E+02  0.45594000000E+02  0.51100000000E-03 0. -1.
         23    2    1    2    0    0  0.00000000000E+00  0.35527136788E-14 -0.35527136788E-14  0.91188000000E+02  0.91188000000E+02 0.  0.
    9900012    2    3    3    0    0 -0.10613545076E+02 -0.23138678402E+02  0.26603256931E+02  0.54367094842E+02  0.40000024312E+02 0.  0.
         12    1    3    3    0    0  0.10613545076E+02  0.23138678402E+02 -0.26603256931E+02  0.36820905158E+02  0.00000000000E+00 0. -1.
         11    1    4    4    0    0 -0.20317106331E+02 -0.23257779999E+02  0.15902445361E+02  0.34736103824E+02  0.51100000000E-03 0. -1.
        -11    1    4    4    0    0  0.27525767759E+01 -0.39362049042E+01  0.10538974771E+02  0.11581898698E+02  0.51100000000E-03 0.  1.
         12    1    4    4    0    0  0.69509844786E+01  0.40553065014E+01  0.16183679953E+00  0.80490923210E+01  0.00000000000E+00 0. -1.
</event>
<event>
 8    1  0.2401501E-006  0.9118800E+02  0.7816164E-02  0.1184000E+00
        -11   -1    0    0    0    0  0.00000000000E+00  0.00000000000E+00  0.45593999997E+02  0.45594000000E+02  0.51100000000E-03 0.  1.
         11   -1    0    0    0    0 -0.00000000000E+00 -0.00000000000E+00 -0.45593999997E+02  0.45594000000E+02  0.51100000000E-03 0. -1.
         23    2    1    2    0    0  0.00000000000E+00  0.00000000000E+00 -0.17763568394E-14  0.91188000000E+02  0.91188000000E+02 0.  0.
    9900012    2    3    3    0    0 -0.29237130108E+02  0.20333621152E+02  0.93549379616E+01  0.54367071299E+02  0.39999970640E+02 0.  0.
        -12    1    3    3    0    0  0.29237130108E+02 -0.20333621152E+02 -0.93549379616E+01  0.36820928701E+02  0.00000000000E+00 0.  1.
         11    1    4    4    0    0 -0.12164397926E+02  0.15905706179E+02 -0.67312981191E+01  0.21125208651E+02  0.51100000000E-03 0.  1.
        -11    1    4    4    0    0 -0.12700040327E+02  0.38461967839E+01 -0.30400656460E+01  0.13613458539E+02  0.51100000000E-03 0. -1.
        -12    1    4    4    0    0 -0.43726918562E+01  0.58171818994E+00  0.19126301727E+02  0.19628404109E+02  0.00000000000E+00 0.  1.
</event>
<event>
 8    1  0.2401501E-006  0.9118800E+02  0.7816164E-02  0.1184000E+00
        -11   -1    0    0    0    0  0.00000000000E+00  0.00000000000E+00  0.45593999997E+02  0.45594000000E+02  0.51100000000E-03 0. -1.
         11   -1    0    0    0    0 -0.00000000000E+00 -0.00000000000E+00 -0.45593999997E+02  0.45594000000E+02  0.51100000000E-03 0.  1.
         23    2    1    2    0    0 -0.44408920985E-15  0.00000000000E+00 -0.35527136788E-14  0.91188000000E+02  0.91188000000E+02 0.  0.
    9900012    2    3    3    0    0  0.22598115753E+01  0.24863492471E+02  0.27064357324E+02  0.54367089588E+02  0.40000012333E+02 0.  0.
        -12    1    3    3    0    0 -0.22598115753E+01 -0.24863492471E+02 -0.27064357324E+02  0.36820910412E+02  0.00000000000E+00 0.  1.
         11    1    4    4    0    0 -0.20423442259E+01 -0.53572123399E+01  0.26808890310E+01  0.63291437216E+01  0.51100000000E-03 0. -1.
        -11    1    4    4    0    0 -0.89277729513E+01  0.12456801649E+01  0.87229550379E+01  0.12543795032E+02  0.51100000000E-03 0.  1.
         12    1    4    4    0    0  0.13229928753E+02  0.28975024646E+02  0.15660513255E+02  0.35494150834E+02  0.00000000000E+00 0. -1.
</event>
<event>
 8    1  0.2401501E-006  0.9118800E+02  0.7816164E-02  0.1184000E+00
        -11   -1    0    0    0    0  0.00000000000E+00  0.00000000000E+00  0.45593999997E+02  0.45594000000E+02  0.51100000000E-03 0.  1.
         11   -1    0    0    0    0 -0.00000000000E+00 -0.00000000000E+00 -0.45593999997E+02  0.45594000000E+02  0.51100000000E-03 0. -1.
         23    2    1    2    0    0 -0.17763568394E-14  0.35527136788E-14  0.00000000000E+00  0.91188000000E+02  0.91188000000E+02 0.  0.
    9900012    2    3    3    0    0  0.20680534983E+01  0.21529241678E+02 -0.29799248520E+02  0.54367077893E+02  0.39999985672E+02 0.  0.
        -12    1    3    3    0    0 -0.20680534983E+01 -0.21529241678E+02  0.29799248520E+02  0.36820922107E+02  0.00000000000E+00 0.  1.
         11    1    4    4    0    0  0.14517107804E+02  0.24720809674E+01 -0.11442889199E+02  0.18649324835E+02  0.51100000000E-03 0. -1.
        -11    1    4    4    0    0 -0.15449054977E+02  0.65636728182E+01 -0.58184092885E+01  0.17765387343E+02  0.51100000000E-03 0.  1.
        -12    1    4    4    0    0  0.30000006713E+01  0.12493487892E+02 -0.12537950032E+02  0.17952365715E+02  0.00000000000E+00 0.  1.
</event>
<event>
 8    1  0.2401501E-006  0.9118800E+02  0.7816164E-02  0.1184000E+00
        -11   -1    0    0    0    0  0.00000000000E+00  0.00000000000E+00  0.45593999997E+02  0.45594000000E+02  0.51100000000E-03 0.  1.
         11   -1    0    0    0    0 -0.00000000000E+00 -0.00000000000E+00 -0.45593999997E+02  0.45594000000E+02  0.51100000000E-03 0. -1.
         23    2    1    2    0    0  0.00000000000E+00  0.00000000000E+00  0.00000000000E+00  0.91188000000E+02  0.91188000000E+02 0.  0.
    9900012    2    3    3    0    0 -0.30128213337E+01 -0.36238321583E+02  0.57868025149E+01  0.54367080309E+02  0.39999991181E+02 0.  0.
         12    1    3    3    0    0  0.30128213337E+01  0.36238321583E+02 -0.57868025149E+01  0.36820919691E+02  0.00000000000E+00 0. -1.
         11    1    4    4    0    0  0.58394499375E+01 -0.20117609329E+01 -0.72783546234E+01  0.95457217594E+01  0.51100000000E-03 0. -1.
        -11    1    4    4    0    0 -0.11950034926E+02 -0.49273621588E+01  0.71471276761E+01  0.14770364480E+02  0.51100000000E-03 0.  1.
        -12    1    4    4    0    0  0.30977636552E+01 -0.29299198491E+02  0.59180294622E+01  0.30050994070E+02  0.00000000000E+00 0.  1.
</event>
<event>
 8    1  0.2401501E-006  0.9118800E+02  0.7816164E-02  0.1184000E+00
        -11   -1    0    0    0    0  0.00000000000E+00  0.00000000000E+00  0.45593999997E+02  0.45594000000E+02  0.51100000000E-03 0. -1.
         11   -1    0    0    0    0 -0.00000000000E+00 -0.00000000000E+00 -0.45593999997E+02  0.45594000000E+02  0.51100000000E-03 0.  1.
         23    2    1    2    0    0  0.00000000000E+00  0.00000000000E+00  0.35527136788E-14  0.91188000000E+02  0.91188000000E+02 0.  0.
    9900012    2    3    3    0    0  0.20081521674E+02  0.25314829580E+02  0.17654246492E+02  0.54367074854E+02  0.39999978745E+02 0.  0.
        -12    1    3    3    0    0 -0.20081521674E+02 -0.25314829580E+02 -0.17654246492E+02  0.36820925146E+02  0.00000000000E+00 0.  1.
         11    1    4    4    0    0  0.18788107347E+02  0.31934103546E+01  0.20520570162E+02  0.28005082528E+02  0.51100000000E-03 0. -1.
        -11    1    4    4    0    0 -0.63470358204E+01  0.89797627124E+01 -0.15245305894E+01  0.11101585286E+02  0.51100000000E-03 0.  1.
         12    1    4    4    0    0  0.76404501478E+01  0.13141656513E+02 -0.13417930811E+01  0.15260407040E+02  0.00000000000E+00 0. -1.
</event>
<event>
 8    1  0.2401501E-006  0.9118800E+02  0.7816164E-02  0.1184000E+00
        -11   -1    0    0    0    0  0.00000000000E+00  0.00000000000E+00  0.45593999997E+02  0.45594000000E+02  0.51100000000E-03 0.  1.
         11   -1    0    0    0    0 -0.00000000000E+00 -0.00000000000E+00 -0.45593999997E+02  0.45594000000E+02  0.51100000000E-03 0. -1.
         23    2    1    2    0    0 -0.71054273576E-14  0.88817841970E-15  0.00000000000E+00  0.91188000000E+02  0.91188000000E+02 0.  0.
    9900012    2    3    3    0    0 -0.36033509310E+02  0.43559120254E+01  0.61962823376E+01  0.54367059252E+02  0.39999943177E+02 0.  0.
         12    1    3    3    0    0  0.36033509310E+02 -0.43559120254E+01 -0.61962823376E+01  0.36820940748E+02  0.00000000000E+00 0. -1.
         11    1    4    4    0    0 -0.51428150707E+01  0.13633707596E+01  0.14808731168E+02  0.15735496362E+02  0.51100000000E-03 0. -1.
        -11    1    4    4    0    0  0.74325430177E+00 -0.24972729182E+01 -0.58526146093E+01  0.64063950090E+01  0.51100000000E-03 0.  1.
        -12    1    4    4    0    0 -0.31633948541E+02  0.54898141841E+01 -0.27598342213E+01  0.32225167881E+02  0.00000000000E+00 0.  1.
</event>
<event>
 8    1  0.2401501E-006  0.9118800E+02  0.7816164E-02  0.1184000E+00
        -11   -1    0    0    0    0  0.00000000000E+00  0.00000000000E+00  0.45593999997E+02  0.45594000000E+02  0.51100000000E-03 0.  1.
         11   -1    0    0    0    0 -0.00000000000E+00 -0.00000000000E+00 -0.45593999997E+02  0.45594000000E+02  0.51100000000E-03 0. -1.
         23    2    1    2    0    0 -0.66613381478E-15  0.71054273576E-14 -0.17763568394E-14  0.91188000000E+02  0.91188000000E+02 0.  0.
    9900012    2    3    3    0    0 -0.13648354709E+01  0.35602332922E+02 -0.92947274763E+01  0.54367070569E+02  0.39999968976E+02 0.  0.
         12    1    3    3    0    0  0.13648354709E+01 -0.35602332922E+02  0.92947274763E+01  0.36820929431E+02  0.00000000000E+00 0. -1.
         11    1    4    4    0    0  0.89644122062E+01  0.11245686340E+02 -0.90569418491E+01  0.16995715442E+02  0.51100000000E-03 0. -1.
        -11    1    4    4    0    0  0.57193905844E+01 -0.10562885906E+01 -0.40313984659E+01  0.70766763453E+01  0.51100000000E-03 0.  1.
        -12    1    4    4    0    0 -0.16048638262E+02  0.25412935172E+02  0.37936128388E+01  0.30294678781E+02  0.00000000000E+00 0.  1.
</event>
<event>
 8    1  0.2401501E-006  0.9118800E+02  0.7816164E-02  0.1184000E+00
        -11   -1    0    0    0    0  0.00000000000E+00  0.00000000000E+00  0.45593999997E+02  0.45594000000E+02  0.51100000000E-03 0.  1.
         11   -1    0    0    0    0 -0.00000000000E+00 -0.00000000000E+00 -0.45593999997E+02  0.45594000000E+02  0.51100000000E-03 0. -1.
         23    2    1    2    0    0  0.17763568394E-14  0.44408920985E-15  0.71054273576E-14  0.91188000000E+02  0.91188000000E+02 0.  0.
    9900012    2    3    3    0    0 -0.13900546752E+02 -0.20262052204E+01 -0.34035992598E+02  0.54367088826E+02  0.40000010596E+02 0.  0.
        -12    1    3    3    0    0  0.13900546752E+02  0.20262052204E+01  0.34035992598E+02  0.36820911174E+02  0.00000000000E+00 0.  1.
         11    1    4    4    0    0 -0.13048845683E+02 -0.68249556149E+01 -0.34856332108E+02  0.37839348318E+02  0.51100000000E-03 0. -1.
        -11    1    4    4    0    0  0.28118872615E-01 -0.55153258750E+01  0.24741697487E+01  0.60449256724E+01  0.51100000000E-03 0.  1.
         12    1    4    4    0    0 -0.87981994195E+00  0.10314076270E+02 -0.16538302379E+01  0.10482814836E+02  0.00000000000E+00 0. -1.
</event>
<event>
 8    1  0.2401501E-006  0.9118800E+02  0.7816164E-02  0.1184000E+00
        -11   -1    0    0    0    0  0.00000000000E+00  0.00000000000E+00  0.45593999997E+02  0.45594000000E+02  0.51100000000E-03 0. -1.
         11   -1    0    0    0    0 -0.00000000000E+00 -0.00000000000E+00 -0.45593999997E+02  0.45594000000E+02  0.51100000000E-03 0.  1.
         23    2    1    2    0    0  0.35527136788E-14  0.00000000000E+00 -0.35527136788E-14  0.91188000000E+02  0.91188000000E+02 0.  0.
    9900012    2    3    3    0    0 -0.27190232410E+02 -0.33864072839E+01  0.24596777990E+02  0.54367109458E+02  0.40000057632E+02 0.  0.
        -12    1    3    3    0    0  0.27190232410E+02  0.33864072839E+01 -0.24596777990E+02  0.36820890542E+02  0.00000000000E+00 0.  1.
         11    1    4    4    0    0  0.58352074884E+01  0.72844419061E+01  0.77766717350E+01  0.12148636296E+02  0.51100000000E-03 0.  1.
        -11    1    4    4    0    0 -0.74761494114E+00 -0.12973280125E+01  0.70624539272E+01  0.72194351446E+01  0.51100000000E-03 0. -1.
         12    1    4    4    0    0 -0.32277824957E+02 -0.93735211775E+01  0.97576523280E+01  0.34999038018E+02  0.00000000000E+00 0. -1.
</event>
<event>
 8    1  0.2401501E-006  0.9118800E+02  0.7816164E-02  0.1184000E+00
        -11   -1    0    0    0    0  0.00000000000E+00  0.00000000000E+00  0.45593999997E+02  0.45594000000E+02  0.51100000000E-03 0.  1.
         11   -1    0    0    0    0 -0.00000000000E+00 -0.00000000000E+00 -0.45593999997E+02  0.45594000000E+02  0.51100000000E-03 0. -1.
         23    2    1    2    0    0  0.88817841970E-15  0.71054273576E-14  0.88817841970E-15  0.91188000000E+02  0.91188000000E+02 0.  0.
    9900012    2    3    3    0    0 -0.56798654120E+01  0.36013066555E+02 -0.51555531215E+01  0.54367060824E+02  0.39999946761E+02 0.  0.
         12    1    3    3    0    0  0.56798654120E+01 -0.36013066555E+02  0.51555531215E+01  0.36820939176E+02  0.00000000000E+00 0. -1.
         11    1    4    4    0    0 -0.11819298014E+02  0.60269193970E+01 -0.10033494742E+02  0.16634018756E+02  0.51100000000E-03 0. -1.
        -11    1    4    4    0    0  0.52910244055E+01  0.19771408839E+01  0.77219197109E+01  0.95672393937E+01  0.51100000000E-03 0.  1.
        -12    1    4    4    0    0  0.84840819649E+00  0.28009006274E+02 -0.28439780899E+01  0.28165802675E+02  0.00000000000E+00 0.  1.
</event>
<event>
 8    1  0.2401501E-006  0.9118800E+02  0.7816164E-02  0.1184000E+00
        -11   -1    0    0    0    0  0.00000000000E+00  0.00000000000E+00  0.45593999997E+02  0.45594000000E+02  0.51100000000E-03 0. -1.
         11   -1    0    0    0    0 -0.00000000000E+00 -0.00000000000E+00 -0.45593999997E+02  0.45594000000E+02  0.51100000000E-03 0.  1.
         23    2    1    2    0    0  0.17763568394E-14 -0.88817841970E-15  0.00000000000E+00  0.91188000000E+02  0.91188000000E+02 0.  0.
    9900012    2    3    3    0    0  0.15286234272E+02 -0.77460322046E+01 -0.32590040530E+02  0.54367072324E+02  0.39999972977E+02 0.  0.
         12    1    3    3    0    0 -0.15286234272E+02  0.77460322046E+01  0.32590040530E+02  0.36820927676E+02  0.00000000000E+00 0. -1.
         11    1    4    4    0    0 -0.44852774709E+01 -0.16102587974E+01 -0.17182878144E+02  0.17831487570E+02  0.51100000000E-03 0. -1.
        -11    1    4    4    0    0  0.13139575024E+01  0.11294390152E+01 -0.16574979309E+02  0.16665294961E+02  0.51100000000E-03 0.  1.
         12    1    4    4    0    0  0.18457554241E+02 -0.72652124225E+01  0.11678169222E+01  0.19870289793E+02  0.00000000000E+00 0. -1.
</event>
<event>
 8    1  0.2401501E-006  0.9118800E+02  0.7816164E-02  0.1184000E+00
        -11   -1    0    0    0    0  0.00000000000E+00  0.00000000000E+00  0.45593999997E+02  0.45594000000E+02  0.51100000000E-03 0.  1.
         11   -1    0    0    0    0 -0.00000000000E+00 -0.00000000000E+00 -0.45593999997E+02  0.45594000000E+02  0.51100000000E-03 0. -1.
         23    2    1    2    0    0  0.00000000000E+00  0.35527136788E-14  0.00000000000E+00  0.91188000000E+02  0.91188000000E+02 0.  0.
    9900012    2    3    3    0    0  0.19599469837E+02  0.22209800102E+02 -0.21871574136E+02  0.54367079402E+02  0.39999989114E+02 0.  0.
        -12    1    3    3    0    0 -0.19599469837E+02 -0.22209800102E+02  0.21871574136E+02  0.36820920598E+02  0.00000000000E+00 0.  1.
         11    1    4    4    0    0  0.24121231435E+02  0.11761628047E+02 -0.13748399366E+02  0.30152747564E+02  0.51100000000E-03 0. -1.
        -11    1    4    4    0    0 -0.67513982511E+01 -0.33624648227E+01  0.85651470519E+00  0.75908606713E+01  0.51100000000E-03 0.  1.
        -12    1    4    4    0    0  0.22296366532E+01  0.13810636878E+02 -0.89796894755E+01  0.16623471167E+02  0.00000000000E+00 0.  1.
</event>
<event>
 8    1  0.2401501E-006  0.9118800E+02  0.7816164E-02  0.1184000E+00
        -11   -1    0    0    0    0  0.00000000000E+00  0.00000000000E+00  0.45593999997E+02  0.45594000000E+02  0.51100000000E-03 0.  1.
         11   -1    0    0    0    0 -0.00000000000E+00 -0.00000000000E+00 -0.45593999997E+02  0.45594000000E+02  0.51100000000E-03 0. -1.
         23    2    1    2    0    0  0.00000000000E+00  0.00000000000E+00  0.00000000000E+00  0.91188000000E+02  0.91188000000E+02 0.  0.
    9900012    2    3    3    0    0 -0.22502917001E+02 -0.19025935468E+02  0.22077408985E+02  0.54367089073E+02  0.40000011159E+02 0.  0.
         12    1    3    3    0    0  0.22502917001E+02  0.19025935468E+02 -0.22077408985E+02  0.36820910927E+02  0.00000000000E+00 0. -1.
         11    1    4    4    0    0  0.61034149066E-01 -0.62417664874E+01 -0.25499668010E+01  0.67428261877E+01  0.51100000000E-03 0. -1.
        -11    1    4    4    0    0 -0.10022960583E+02 -0.20499311081E+02  0.54748436852E+01  0.23466047970E+02  0.51100000000E-03 0.  1.
        -12    1    4    4    0    0 -0.12540990567E+02  0.77151421005E+01  0.19152532101E+02  0.24158214916E+02  0.00000000000E+00 0.  1.
</event>
<event>
 8    1  0.2401501E-006  0.9118800E+02  0.7816164E-02  0.1184000E+00
        -11   -1    0    0    0    0  0.00000000000E+00  0.00000000000E+00  0.45593999997E+02  0.45594000000E+02  0.51100000000E-03 0.  1.
         11   -1    0    0    0    0 -0.00000000000E+00 -0.00000000000E+00 -0.45593999997E+02  0.45594000000E+02  0.51100000000E-03 0. -1.
         23    2    1    2    0    0  0.00000000000E+00  0.88817841970E-15  0.00000000000E+00  0.91188000000E+02  0.91188000000E+02 0.  0.
    9900012    2    3    3    0    0 -0.10125757693E+02 -0.66996461023E+01 -0.34761493644E+02  0.54367113711E+02  0.40000067327E+02 0.  0.
        -12    1    3    3    0    0  0.10125757693E+02  0.66996461023E+01  0.34761493644E+02  0.36820886289E+02  0.00000000000E+00 0.  1.
         11    1    4    4    0    0 -0.82584887499E+01  0.87851649622E+01  0.64766357166E+00  0.12074817937E+02  0.51100000000E-03 0.  1.
        -11    1    4    4    0    0 -0.75579533074E+01 -0.13817537640E+02 -0.31417496239E+02  0.35144075956E+02  0.51100000000E-03 0. -1.
         12    1    4    4    0    0  0.56906843647E+01 -0.16672734244E+01 -0.39916609766E+01  0.71482198177E+01  0.00000000000E+00 0. -1.
</event>
<event>
 8    1  0.2401501E-006  0.9118800E+02  0.7816164E-02  0.1184000E+00
        -11   -1    0    0    0    0  0.00000000000E+00  0.00000000000E+00  0.45593999997E+02  0.45594000000E+02  0.51100000000E-03 0.  1.
         11   -1    0    0    0    0 -0.00000000000E+00 -0.00000000000E+00 -0.45593999997E+02  0.45594000000E+02  0.51100000000E-03 0. -1.
         23    2    1    2    0    0  0.00000000000E+00  0.00000000000E+00  0.35527136788E-14  0.91188000000E+02  0.91188000000E+02 0.  0.
    9900012    2    3    3    0    0  0.17205180846E+02  0.24803991172E+02 -0.21083897304E+02  0.54366987636E+02  0.39999779912E+02 0.  0.
        -12    1    3    3    0    0 -0.17205180846E+02 -0.24803991172E+02  0.21083897304E+02  0.36821012364E+02  0.00000000000E+00 0.  1.
         11    1    4    4    0    0  0.15186735097E+00  0.65218819228E+01 -0.13306619250E+02  0.14819720767E+02  0.51100000000E-03 0. -1.
        -11    1    4    4    0    0  0.26192412457E+00  0.21281016730E+02 -0.13707201838E+01  0.21326723879E+02  0.51100000000E-03 0.  1.
        -12    1    4    4    0    0  0.16791389371E+02 -0.29989074811E+01 -0.64065578710E+01  0.18220542990E+02  0.00000000000E+00 0.  1.
</event>
<event>
 8    1  0.2401501E-006  0.9118800E+02  0.7816164E-02  0.1184000E+00
        -11   -1    0    0    0    0  0.00000000000E+00  0.00000000000E+00  0.45593999997E+02  0.45594000000E+02  0.51100000000E-03 0. -1.
         11   -1    0    0    0    0 -0.00000000000E+00 -0.00000000000E+00 -0.45593999997E+02  0.45594000000E+02  0.51100000000E-03 0.  1.
         23    2    1    2    0    0  0.00000000000E+00  0.35527136788E-14 -0.88817841970E-15  0.91188000000E+02  0.91188000000E+02 0.  0.
    9900012    2    3    3    0    0  0.26188172932E+02  0.25249752866E+02 -0.56929561073E+01  0.54367079716E+02  0.39999989830E+02 0.  0.
        -12    1    3    3    0    0 -0.26188172932E+02 -0.25249752866E+02  0.56929561073E+01  0.36820920284E+02  0.00000000000E+00 0.  1.
         11    1    4    4    0    0  0.11410255100E+02  0.12092851690E+02  0.79723273391E+01  0.18438790277E+02  0.51100000000E-03 0. -1.
        -11    1    4    4    0    0  0.10883072256E+02  0.59344913250E+01  0.66152125167E+01  0.14050640054E+02  0.51100000000E-03 0.  1.
        -12    1    4    4    0    0  0.38948455762E+01  0.72224098509E+01 -0.20280495963E+02  0.21877649385E+02  0.00000000000E+00 0.  1.
</event>
<event>
 8    1  0.2401501E-006  0.9118800E+02  0.7816164E-02  0.1184000E+00
        -11   -1    0    0    0    0  0.00000000000E+00  0.00000000000E+00  0.45593999997E+02  0.45594000000E+02  0.51100000000E-03 0. -1.
         11   -1    0    0    0    0 -0.00000000000E+00 -0.00000000000E+00 -0.45593999997E+02  0.45594000000E+02  0.51100000000E-03 0.  1.
         23    2    1    2    0    0  0.35527136788E-14  0.00000000000E+00 -0.88817841970E-15  0.91188000000E+02  0.91188000000E+02 0.  0.
    9900012    2    3    3    0    0 -0.30389405070E+02  0.20176952275E+02  0.50158373273E+01  0.54367028154E+02  0.39999872282E+02 0.  0.
        -12    1    3    3    0    0  0.30389405070E+02 -0.20176952275E+02 -0.50158373273E+01  0.36820971846E+02  0.00000000000E+00 0.  1.
         11    1    4    4    0    0 -0.15560363796E+02  0.42241634276E+01 -0.12132667573E+02  0.20178456354E+02  0.51100000000E-03 0. -1.
        -11    1    4    4    0    0 -0.74085182648E+00  0.14993421533E+02  0.58782453679E+01  0.16121579314E+02  0.51100000000E-03 0.  1.
         12    1    4    4    0    0 -0.14088189448E+02  0.95936731405E+00  0.11270259533E+02  0.18066992486E+02  0.00000000000E+00 0. -1.
</event>
<event>
 8    1  0.2401501E-006  0.9118800E+02  0.7816164E-02  0.1184000E+00
        -11   -1    0    0    0    0  0.00000000000E+00  0.00000000000E+00  0.45593999997E+02  0.45594000000E+02  0.51100000000E-03 0.  1.
         11   -1    0    0    0    0 -0.00000000000E+00 -0.00000000000E+00 -0.45593999997E+02  0.45594000000E+02  0.51100000000E-03 0. -1.
         23    2    1    2    0    0 -0.35527136788E-14  0.00000000000E+00  0.00000000000E+00  0.91188000000E+02  0.91188000000E+02 0.  0.
    9900012    2    3    3    0    0  0.16859366005E+02  0.33856452863E+01  0.32558858396E+02  0.54367080998E+02  0.39999992752E+02 0.  0.
         12    1    3    3    0    0 -0.16859366005E+02 -0.33856452863E+01 -0.32558858396E+02  0.36820919002E+02  0.00000000000E+00 0. -1.
         11    1    4    4    0    0 -0.30730602608E+01 -0.18278622912E+01  0.16599917952E+01  0.39421254348E+01  0.51100000000E-03 0. -1.
        -11    1    4    4    0    0  0.27847263091E+02  0.22713440548E+01  0.31319235362E+02  0.41970508328E+02  0.51100000000E-03 0.  1.
        -12    1    4    4    0    0 -0.79148368248E+01  0.29421635228E+01 -0.42036876113E+00  0.84544472353E+01  0.00000000000E+00 0.  1.
</event>
<event>
 8    1  0.2401501E-006  0.9118800E+02  0.7816164E-02  0.1184000E+00
        -11   -1    0    0    0    0  0.00000000000E+00  0.00000000000E+00  0.45593999997E+02  0.45594000000E+02  0.51100000000E-03 0.  1.
         11   -1    0    0    0    0 -0.00000000000E+00 -0.00000000000E+00 -0.45593999997E+02  0.45594000000E+02  0.51100000000E-03 0. -1.
         23    2    1    2    0    0  0.00000000000E+00 -0.11102230246E-15  0.88817841970E-15  0.91188000000E+02  0.91188000000E+02 0.  0.
    9900012    2    3    3    0    0 -0.36491905992E+02  0.28217391009E+00  0.49031472499E+01  0.54367086405E+02  0.40000005077E+02 0.  0.
         12    1    3    3    0    0  0.36491905992E+02 -0.28217391009E+00 -0.49031472499E+01  0.36820913595E+02  0.00000000000E+00 0. -1.
         11    1    4    4    0    0 -0.36652510087E+02  0.92493108933E+01 -0.92724519568E+00  0.37812908267E+02  0.51100000000E-03 0.  1.
        -11    1    4    4    0    0 -0.36365434779E+01 -0.46691117853E+01  0.83953307455E+01  0.10271642124E+02  0.51100000000E-03 0. -1.
        -12    1    4    4    0    0  0.37971475726E+01 -0.42980251979E+01 -0.25649383000E+01  0.62825360144E+01  0.00000000000E+00 0.  1.
</event>
<event>
 8    1  0.2401501E-006  0.9118800E+02  0.7816164E-02  0.1184000E+00
        -11   -1    0    0    0    0  0.00000000000E+00  0.00000000000E+00  0.45593999997E+02  0.45594000000E+02  0.51100000000E-03 0.  1.
         11   -1    0    0    0    0 -0.00000000000E+00 -0.00000000000E+00 -0.45593999997E+02  0.45594000000E+02  0.51100000000E-03 0. -1.
         23    2    1    2    0    0  0.35527136788E-14  0.00000000000E+00  0.35527136788E-14  0.91188000000E+02  0.91188000000E+02 0.  0.
    9900012    2    3    3    0    0  0.25036498378E+02  0.16457603644E+02 -0.21403244800E+02  0.54367111137E+02  0.40000061458E+02 0.  0.
        -12    1    3    3    0    0 -0.25036498378E+02 -0.16457603644E+02  0.21403244800E+02  0.36820888863E+02  0.00000000000E+00 0.  1.
         11    1    4    4    0    0  0.28001332740E+02  0.95951498130E+01 -0.27119051095E+02  0.40144544682E+02  0.51100000000E-03 0. -1.
        -11    1    4    4    0    0 -0.37401228300E+01  0.90433451046E+01  0.22280702784E+01  0.10036678080E+02  0.51100000000E-03 0.  1.
        -12    1    4    4    0    0  0.77528846735E+00 -0.21808912737E+01  0.34877360172E+01  0.41858883741E+01  0.00000000000E+00 0.  1.
</event>
<event>
 8    1  0.2401501E-006  0.9118800E+02  0.7816164E-02  0.1184000E+00
        -11   -1    0    0    0    0  0.00000000000E+00  0.00000000000E+00  0.45593999997E+02  0.45594000000E+02  0.51100000000E-03 0. -1.
         11   -1    0    0    0    0 -0.00000000000E+00 -0.00000000000E+00 -0.45593999997E+02  0.45594000000E+02  0.51100000000E-03 0.  1.
         23    2    1    2    0    0  0.71054273576E-14  0.11102230246E-15  0.17763568394E-14  0.91188000000E+02  0.91188000000E+02 0.  0.
    9900012    2    3    3    0    0 -0.35284576212E+02  0.86597711407E+00 -0.10489589742E+02  0.54367044991E+02  0.39999910667E+02 0.  0.
        -12    1    3    3    0    0  0.35284576212E+02 -0.86597711407E+00  0.10489589742E+02  0.36820955009E+02  0.00000000000E+00 0.  1.
         11    1    4    4    0    0  0.49524554399E+00  0.27142996979E+00 -0.52267522772E+01  0.52571743366E+01  0.51100000000E-03 0. -1.
        -11    1    4    4    0    0  0.13802447538E+01 -0.99853108897E+01 -0.24320176900E+01  0.10369485014E+02  0.51100000000E-03 0.  1.
         12    1    4    4    0    0 -0.37160066510E+02  0.10579858034E+02 -0.28308197744E+01  0.38740385641E+02  0.00000000000E+00 0. -1.
</event>
<event>
 8    1  0.2401501E-006  0.9118800E+02  0.7816164E-02  0.1184000E+00
        -11   -1    0    0    0    0  0.00000000000E+00  0.00000000000E+00  0.45593999997E+02  0.45594000000E+02  0.51100000000E-03 0.  1.
         11   -1    0    0    0    0 -0.00000000000E+00 -0.00000000000E+00 -0.45593999997E+02  0.45594000000E+02  0.51100000000E-03 0. -1.
         23    2    1    2    0    0  0.17763568394E-14  0.35527136788E-14  0.00000000000E+00  0.91188000000E+02  0.91188000000E+02 0.  0.
    9900012    2    3    3    0    0 -0.15250969866E+02  0.29649723672E+02 -0.15623097107E+02  0.54367090738E+02  0.40000014955E+02 0.  0.
        -12    1    3    3    0    0  0.15250969866E+02 -0.29649723672E+02  0.15623097107E+02  0.36820909262E+02  0.00000000000E+00 0.  1.
         11    1    4    4    0    0  0.40426329493E+01  0.37370959053E+01  0.34227246729E+00  0.55159693320E+01  0.51100000000E-03 0. -1.
        -11    1    4    4    0    0 -0.26958592634E+02  0.16139356661E+02 -0.41229895990E+01  0.31689802677E+02  0.51100000000E-03 0.  1.
        -12    1    4    4    0    0  0.76649898186E+01  0.97732711058E+01 -0.11842379975E+02  0.17161318729E+02  0.00000000000E+00 0.  1.
</event>
<event>
 8    1  0.2401501E-006  0.9118800E+02  0.7816164E-02  0.1184000E+00
        -11   -1    0    0    0    0  0.00000000000E+00  0.00000000000E+00  0.45593999997E+02  0.45594000000E+02  0.51100000000E-03 0.  1.
         11   -1    0    0    0    0 -0.00000000000E+00 -0.00000000000E+00 -0.45593999997E+02  0.45594000000E+02  0.51100000000E-03 0. -1.
         23    2    1    2    0    0  0.88817841970E-15 -0.17763568394E-14 -0.71054273576E-14  0.91188000000E+02  0.91188000000E+02 0.  0.
    9900012    2    3    3    0    0  0.79167328487E+01  0.60321979574E+01  0.35450221823E+02  0.54367077979E+02  0.39999985868E+02 0.  0.
         12    1    3    3    0    0 -0.79167328487E+01 -0.60321979574E+01 -0.35450221823E+02  0.36820922021E+02  0.00000000000E+00 0. -1.
         11    1    4    4    0    0  0.28312842106E+01 -0.11410790045E+02  0.11571009359E+01  0.11813601592E+02  0.51100000000E-03 0. -1.
        -11    1    4    4    0    0  0.43873922959E+01  0.13824211523E+02  0.91655767546E+01  0.17157092786E+02  0.51100000000E-03 0.  1.
         12    1    4    4    0    0  0.69805634218E+00  0.36187764797E+01  0.25127544132E+02  0.25396383601E+02  0.00000000000E+00 0. -1.
</event>
<event>
 8    1  0.2401501E-006  0.9118800E+02  0.7816164E-02  0.1184000E+00
        -11   -1    0    0    0    0  0.00000000000E+00  0.00000000000E+00  0.45593999997E+02  0.45594000000E+02  0.51100000000E-03 0.  1.
         11   -1    0    0    0    0 -0.00000000000E+00 -0.00000000000E+00 -0.45593999997E+02  0.45594000000E+02  0.51100000000E-03 0. -1.
         23    2    1    2    0    0 -0.88817841970E-15  0.00000000000E+00  0.71054273576E-14  0.91188000000E+02  0.91188000000E+02 0.  0.
    9900012    2    3    3    0    0  0.14616507661E+01 -0.17877104102E+02  0.32156680740E+02  0.54367090312E+02  0.40000013985E+02 0.  0.
         12    1    3    3    0    0 -0.14616507661E+01  0.17877104102E+02 -0.32156680740E+02  0.36820909688E+02  0.00000000000E+00 0. -1.
         11    1    4    4    0    0 -0.69429206320E+01  0.35544896776E+01  0.21127803224E+02  0.22521603254E+02  0.51100000000E-03 0. -1.
        -11    1    4    4    0    0  0.11749169549E+02 -0.18974437894E+02  0.14347559925E+02  0.26531580325E+02  0.51100000000E-03 0.  1.
        -12    1    4    4    0    0 -0.33445981506E+01 -0.24571558858E+01 -0.33186824100E+01  0.53139067337E+01  0.00000000000E+00 0.  1.
</event>
<event>
 8    1  0.2401501E-006  0.9118800E+02  0.7816164E-02  0.1184000E+00
        -11   -1    0    0    0    0  0.00000000000E+00  0.00000000000E+00  0.45593999997E+02  0.45594000000E+02  0.51100000000E-03 0.  1.
         11   -1    0    0    0    0 -0.00000000000E+00 -0.00000000000E+00 -0.45593999997E+02  0.45594000000E+02  0.51100000000E-03 0. -1.
         23    2    1    2    0    0  0.71054273576E-14 -0.17763568394E-14  0.00000000000E+00  0.91188000000E+02  0.91188000000E+02 0.  0.
    9900012    2    3    3    0    0  0.33270820261E+02 -0.15400393602E+02  0.34144368130E+01  0.54367109426E+02  0.40000057557E+02 0.  0.
         12    1    3    3    0    0 -0.33270820261E+02  0.15400393602E+02 -0.34144368130E+01  0.36820890574E+02  0.00000000000E+00 0. -1.
         11    1    4    4    0    0 -0.84928892544E-01 -0.38934372618E+01 -0.13457958821E+02  0.14010093594E+02  0.51100000000E-03 0. -1.
        -11    1    4    4    0    0  0.12824685922E+02 -0.35657008115E+00  0.91200535845E+01  0.15740873193E+02  0.51100000000E-03 0.  1.
         12    1    4    4    0    0  0.20531063232E+02 -0.11150386259E+02  0.77523420496E+01  0.24616142639E+02  0.00000000000E+00 0. -1.
</event>
<event>
 8    1  0.2401501E-006  0.9118800E+02  0.7816164E-02  0.1184000E+00
        -11   -1    0    0    0    0  0.00000000000E+00  0.00000000000E+00  0.45593999997E+02  0.45594000000E+02  0.51100000000E-03 0.  1.
         11   -1    0    0    0    0 -0.00000000000E+00 -0.00000000000E+00 -0.45593999997E+02  0.45594000000E+02  0.51100000000E-03 0. -1.
         23    2    1    2    0    0  0.00000000000E+00  0.11102230246E-15  0.71054273576E-14  0.91188000000E+02  0.91188000000E+02 0.  0.
    9900012    2    3    3    0    0  0.68415161081E+01 -0.96876585404E+00  0.36167012619E+02  0.54366842336E+02  0.39999448670E+02 0.  0.
         12    1    3    3    0    0 -0.68415161081E+01  0.96876585404E+00 -0.36167012619E+02  0.36821157664E+02  0.00000000000E+00 0. -1.
         11    1    4    4    0    0 -0.71377196038E+00  0.52702600670E+01  0.19135519447E+01  0.56521494046E+01  0.51100000000E-03 0. -1.
        -11    1    4    4    0    0 -0.87972735553E+01 -0.11345287325E+02  0.25996872412E+02  0.29697557845E+02  0.51100000000E-03 0.  1.
        -12    1    4    4    0    0  0.16352561624E+02  0.51062614039E+01  0.82565882617E+01  0.19017135087E+02  0.00000000000E+00 0.  1.
</event>
<event>
 8    1  0.2401501E-006  0.9118800E+02  0.7816164E-02  0.1184000E+00
        -11   -1    0    0    0    0  0.00000000000E+00  0.00000000000E+00  0.45593999997E+02  0.45594000000E+02  0.51100000000E-03 0.  1.
         11   -1    0    0    0    0 -0.00000000000E+00 -0.00000000000E+00 -0.45593999997E+02  0.45594000000E+02  0.51100000000E-03 0. -1.
         23    2    1    2    0    0  0.00000000000E+00  0.00000000000E+00  0.00000000000E+00  0.91188000000E+02  0.91188000000E+02 0.  0.
    9900012    2    3    3    0    0  0.97319620719E+01 -0.75604222978E+01 -0.34697385568E+02  0.54367086970E+02  0.40000006366E+02 0.  0.
        -12    1    3    3    0    0 -0.97319620719E+01  0.75604222978E+01  0.34697385568E+02  0.36820913030E+02  0.00000000000E+00 0.  1.
         11    1    4    4    0    0  0.13411538734E+00  0.35451485202E+01  0.53383096514E+01  0.64096501591E+01  0.51100000000E-03 0. -1.
        -11    1    4    4    0    0  0.13480412846E+02 -0.14830259490E+02 -0.25337968125E+02  0.32305893518E+02  0.51100000000E-03 0.  1.
         12    1    4    4    0    0 -0.38825661616E+01  0.37246886720E+01 -0.14697727094E+02  0.15651543293E+02  0.00000000000E+00 0. -1.
</event>
<event>
 8    1  0.2401501E-006  0.9118800E+02  0.7816164E-02  0.1184000E+00
        -11   -1    0    0    0    0  0.00000000000E+00  0.00000000000E+00  0.45593999997E+02  0.45594000000E+02  0.51100000000E-03 0.  1.
         11   -1    0    0    0    0 -0.00000000000E+00 -0.00000000000E+00 -0.45593999997E+02  0.45594000000E+02  0.51100000000E-03 0. -1.
         23    2    1    2    0    0  0.00000000000E+00  0.00000000000E+00  0.17763568394E-14  0.91188000000E+02  0.91188000000E+02 0.  0.
    9900012    2    3    3    0    0  0.30643282481E+02  0.16618907751E+02 -0.11856668870E+02  0.54367089464E+02  0.40000012051E+02 0.  0.
        -12    1    3    3    0    0 -0.30643282481E+02 -0.16618907751E+02  0.11856668870E+02  0.36820910536E+02  0.00000000000E+00 0.  1.
         11    1    4    4    0    0  0.73340016461E+01 -0.63940447973E+01 -0.64070126213E+01  0.11649944206E+02  0.51100000000E-03 0. -1.
        -11    1    4    4    0    0  0.78601928284E+01  0.21336858158E+02 -0.12165328499E+02  0.25788357162E+02  0.51100000000E-03 0.  1.
        -12    1    4    4    0    0  0.15449088006E+02  0.16760943897E+01  0.67156722503E+01  0.16928788096E+02  0.00000000000E+00 0.  1.
</event>
<event>
 8    1  0.2401501E-006  0.9118800E+02  0.7816164E-02  0.1184000E+00
        -11   -1    0    0    0    0  0.00000000000E+00  0.00000000000E+00  0.45593999997E+02  0.45594000000E+02  0.51100000000E-03 0.  1.
         11   -1    0    0    0    0 -0.00000000000E+00 -0.00000000000E+00 -0.45593999997E+02  0.45594000000E+02  0.51100000000E-03 0. -1.
         23    2    1    2    0    0  0.00000000000E+00  0.00000000000E+00  0.35527136788E-14  0.91188000000E+02  0.91188000000E+02 0.  0.
    9900012    2    3    3    0    0  0.13529861492E+02  0.17772375390E+02  0.29272265784E+02  0.54367081718E+02  0.39999994392E+02 0.  0.
         12    1    3    3    0    0 -0.13529861492E+02 -0.17772375390E+02 -0.29272265784E+02  0.36820918282E+02  0.00000000000E+00 0. -1.
         11    1    4    4    0    0 -0.48784925150E+01 -0.55103107496E+01  0.15515406726E+02  0.17172392376E+02  0.51100000000E-03 0. -1.
        -11    1    4    4    0    0  0.82412866311E+01  0.56668487250E+01  0.13566214116E+02  0.16854499266E+02  0.51100000000E-03 0.  1.
         12    1    4    4    0    0  0.10167067376E+02  0.17615837414E+02  0.19064494253E+00  0.20340190076E+02  0.00000000000E+00 0. -1.
</event>
<event>
 8    1  0.2401501E-006  0.9118800E+02  0.7816164E-02  0.1184000E+00
        -11   -1    0    0    0    0  0.00000000000E+00  0.00000000000E+00  0.45593999997E+02  0.45594000000E+02  0.51100000000E-03 0. -1.
         11   -1    0    0    0    0 -0.00000000000E+00 -0.00000000000E+00 -0.45593999997E+02  0.45594000000E+02  0.51100000000E-03 0.  1.
         23    2    1    2    0    0  0.00000000000E+00 -0.35527136788E-14  0.35527136788E-14  0.91188000000E+02  0.91188000000E+02 0.  0.
    9900012    2    3    3    0    0 -0.62579386177E+01  0.19484514893E+02 -0.30610024324E+02  0.54367058873E+02  0.39999942313E+02 0.  0.
         12    1    3    3    0    0  0.62579386177E+01 -0.19484514893E+02  0.30610024324E+02  0.36820941127E+02  0.00000000000E+00 0. -1.
         11    1    4    4    0    0 -0.31916019576E+01  0.47708134265E+01 -0.81409457185E+01  0.99610231030E+01  0.51100000000E-03 0. -1.
        -11    1    4    4    0    0 -0.79952670987E+00  0.24532661792E+02 -0.23862220076E+02  0.34232970727E+02  0.51100000000E-03 0.  1.
         12    1    4    4    0    0 -0.22668099503E+01 -0.98189603253E+01  0.13931414704E+01  0.10173065043E+02  0.00000000000E+00 0. -1.
</event>
<event>
 8    1  0.2401501E-006  0.9118800E+02  0.7816164E-02  0.1184000E+00
        -11   -1    0    0    0    0  0.00000000000E+00  0.00000000000E+00  0.45593999997E+02  0.45594000000E+02  0.51100000000E-03 0.  1.
         11   -1    0    0    0    0 -0.00000000000E+00 -0.00000000000E+00 -0.45593999997E+02  0.45594000000E+02  0.51100000000E-03 0. -1.
         23    2    1    2    0    0 -0.88817841970E-15 -0.17763568394E-14  0.00000000000E+00  0.91188000000E+02  0.91188000000E+02 0.  0.
    9900012    2    3    3    0    0 -0.29378221733E+01  0.12090969618E+02 -0.34654819507E+02  0.54367097506E+02  0.40000030384E+02 0.  0.
        -12    1    3    3    0    0  0.29378221733E+01 -0.12090969618E+02  0.34654819507E+02  0.36820902494E+02  0.00000000000E+00 0.  1.
         11    1    4    4    0    0 -0.15459100153E+02  0.61713459124E+01 -0.63895766442E+01  0.17829637626E+02  0.51100000000E-03 0. -1.
        -11    1    4    4    0    0  0.85436275532E+01 -0.37626713846E+01 -0.40875793215E+01  0.10191151686E+02  0.51100000000E-03 0.  1.
        -12    1    4    4    0    0  0.39776504267E+01  0.96822950901E+01 -0.24177663541E+02  0.26346308194E+02  0.00000000000E+00 0.  1.
</event>
<event>
 8    1  0.2401501E-006  0.9118800E+02  0.7816164E-02  0.1184000E+00
        -11   -1    0    0    0    0  0.00000000000E+00  0.00000000000E+00  0.45593999997E+02  0.45594000000E+02  0.51100000000E-03 0.  1.
         11   -1    0    0    0    0 -0.00000000000E+00 -0.00000000000E+00 -0.45593999997E+02  0.45594000000E+02  0.51100000000E-03 0. -1.
         23    2    1    2    0    0  0.00000000000E+00  0.00000000000E+00 -0.17763568394E-14  0.91188000000E+02  0.91188000000E+02 0.  0.
    9900012    2    3    3    0    0  0.30965982566E+02  0.18661798116E+02  0.69731266201E+01  0.54367091809E+02  0.40000017396E+02 0.  0.
         12    1    3    3    0    0 -0.30965982566E+02 -0.18661798116E+02 -0.69731266201E+01  0.36820908191E+02  0.00000000000E+00 0. -1.
         11    1    4    4    0    0  0.31584767228E+01 -0.27989257646E+01 -0.90054652993E+01  0.99452685314E+01  0.51100000000E-03 0. -1.
        -11    1    4    4    0    0  0.18813489200E+02  0.33458098391E+01  0.14787104430E+02  0.24161959296E+02  0.51100000000E-03 0.  1.
        -12    1    4    4    0    0  0.89940166430E+01  0.18114914041E+02  0.11914874899E+01  0.20259863981E+02  0.00000000000E+00 0.  1.
</event>
<event>
 8    1  0.2401501E-006  0.9118800E+02  0.7816164E-02  0.1184000E+00
        -11   -1    0    0    0    0  0.00000000000E+00  0.00000000000E+00  0.45593999997E+02  0.45594000000E+02  0.51100000000E-03 0. -1.
         11   -1    0    0    0    0 -0.00000000000E+00 -0.00000000000E+00 -0.45593999997E+02  0.45594000000E+02  0.51100000000E-03 0.  1.
         23    2    1    2    0    0  0.00000000000E+00  0.17763568394E-14 -0.35527136788E-14  0.91188000000E+02  0.91188000000E+02 0.  0.
    9900012    2    3    3    0    0  0.26998614530E+02  0.53645780840E+01  0.24455588904E+02  0.54367085926E+02  0.40000003986E+02 0.  0.
        -12    1    3    3    0    0 -0.26998614530E+02 -0.53645780840E+01 -0.24455588904E+02  0.36820914074E+02  0.00000000000E+00 0.  1.
         11    1    4    4    0    0  0.96790596137E+01 -0.84670829842E+01  0.26944265504E+02  0.29855805685E+02  0.51100000000E-03 0. -1.
        -11    1    4    4    0    0  0.76768061566E+01  0.20306655071E+01 -0.45195727757E+01  0.91369302013E+01  0.51100000000E-03 0.  1.
         12    1    4    4    0    0  0.96427487598E+01  0.11800995561E+02  0.20308961757E+01  0.15374350040E+02  0.00000000000E+00 0. -1.
</event>
<event>
 8    1  0.2401501E-006  0.9118800E+02  0.7816164E-02  0.1184000E+00
        -11   -1    0    0    0    0  0.00000000000E+00  0.00000000000E+00  0.45593999997E+02  0.45594000000E+02  0.51100000000E-03 0.  1.
         11   -1    0    0    0    0 -0.00000000000E+00 -0.00000000000E+00 -0.45593999997E+02  0.45594000000E+02  0.51100000000E-03 0. -1.
         23    2    1    2    0    0  0.00000000000E+00  0.00000000000E+00  0.00000000000E+00  0.91188000000E+02  0.91188000000E+02 0.  0.
    9900012    2    3    3    0    0  0.33661029281E+01 -0.26745966263E+02 -0.25081905005E+02  0.54367091280E+02  0.40000016191E+02 0.  0.
        -12    1    3    3    0    0 -0.33661029281E+01  0.26745966263E+02  0.25081905005E+02  0.36820908720E+02  0.00000000000E+00 0.  1.
         11    1    4    4    0    0  0.88829017041E+01 -0.16469689106E+02 -0.17663994846E+02  0.25732728502E+02  0.51100000000E-03 0. -1.
        -11    1    4    4    0    0  0.81353651738E+01  0.16424435144E+01 -0.64043458250E+01  0.10483197647E+02  0.51100000000E-03 0.  1.
        -12    1    4    4    0    0 -0.13652163950E+02 -0.11918720671E+02 -0.10135643341E+01  0.18151165131E+02  0.00000000000E+00 0.  1.
</event>
<event>
 8    1  0.2401501E-006  0.9118800E+02  0.7816164E-02  0.1184000E+00
        -11   -1    0    0    0    0  0.00000000000E+00  0.00000000000E+00  0.45593999997E+02  0.45594000000E+02  0.51100000000E-03 0. -1.
         11   -1    0    0    0    0 -0.00000000000E+00 -0.00000000000E+00 -0.45593999997E+02  0.45594000000E+02  0.51100000000E-03 0.  1.
         23    2    1    2    0    0 -0.35527136788E-14 -0.17763568394E-14  0.00000000000E+00  0.91188000000E+02  0.91188000000E+02 0.  0.
    9900012    2    3    3    0    0 -0.19577920691E+02 -0.13114215021E+02  0.28293173085E+02  0.54367064958E+02  0.39999956184E+02 0.  0.
        -12    1    3    3    0    0  0.19577920691E+02  0.13114215021E+02 -0.28293173085E+02  0.36820935042E+02  0.00000000000E+00 0.  1.
         11    1    4    4    0    0 -0.20779613694E+02 -0.15381365701E+02  0.22751464883E+02  0.34438465568E+02  0.51100000000E-03 0. -1.
        -11    1    4    4    0    0 -0.13866901950E+01  0.57053663483E+01 -0.55202426788E+01  0.80589822161E+01  0.51100000000E-03 0.  1.
         12    1    4    4    0    0  0.25883831978E+01 -0.34382156673E+01  0.11061950880E+02  0.11869617173E+02  0.00000000000E+00 0. -1.
</event>
<event>
 8    1  0.2401501E-006  0.9118800E+02  0.7816164E-02  0.1184000E+00
        -11   -1    0    0    0    0  0.00000000000E+00  0.00000000000E+00  0.45593999997E+02  0.45594000000E+02  0.51100000000E-03 0.  1.
         11   -1    0    0    0    0 -0.00000000000E+00 -0.00000000000E+00 -0.45593999997E+02  0.45594000000E+02  0.51100000000E-03 0. -1.
         23    2    1    2    0    0 -0.35527136788E-14  0.00000000000E+00  0.35527136788E-14  0.91188000000E+02  0.91188000000E+02 0.  0.
    9900012    2    3    3    0    0  0.17348935877E+02  0.19967213975E+02  0.25614796249E+02  0.54366905545E+02  0.39999592769E+02 0.  0.
         12    1    3    3    0    0 -0.17348935877E+02 -0.19967213975E+02 -0.25614796249E+02  0.36821094455E+02  0.00000000000E+00 0. -1.
         11    1    4    4    0    0  0.18811109137E+02  0.34500018072E+01  0.67334133689E+01  0.20275581257E+02  0.51100000000E-03 0. -1.
        -11    1    4    4    0    0  0.68327549931E+01  0.12114752135E+02  0.20285782426E+02  0.24596071413E+02  0.51100000000E-03 0.  1.
        -12    1    4    4    0    0 -0.82949282537E+01  0.44024600331E+01 -0.14043995459E+01  0.94952528751E+01  0.00000000000E+00 0.  1.
</event>
<event>
 8    1  0.2401501E-006  0.9118800E+02  0.7816164E-02  0.1184000E+00
        -11   -1    0    0    0    0  0.00000000000E+00  0.00000000000E+00  0.45593999997E+02  0.45594000000E+02  0.51100000000E-03 0. -1.
         11   -1    0    0    0    0 -0.00000000000E+00 -0.00000000000E+00 -0.45593999997E+02  0.45594000000E+02  0.51100000000E-03 0.  1.
         23    2    1    2    0    0  0.00000000000E+00  0.00000000000E+00  0.00000000000E+00  0.91188000000E+02  0.91188000000E+02 0.  0.
    9900012    2    3    3    0    0 -0.16912526290E+02 -0.23791175450E+02 -0.22443878704E+02  0.54367064839E+02  0.39999955914E+02 0.  0.
         12    1    3    3    0    0  0.16912526290E+02  0.23791175450E+02  0.22443878704E+02  0.36820935161E+02  0.00000000000E+00 0. -1.
         11    1    4    4    0    0 -0.70904685666E+01  0.35101192125E+01 -0.21778762183E+02  0.23171322014E+02  0.51100000000E-03 0. -1.
        -11    1    4    4    0    0  0.52980082171E+00 -0.48159110245E+01 -0.39155585188E+01  0.62293889493E+01  0.51100000000E-03 0.  1.
         12    1    4    4    0    0 -0.10351858545E+02 -0.22485383638E+02  0.32504419977E+01  0.24966353876E+02  0.00000000000E+00 0. -1.
</event>
<event>
 8    1  0.2401501E-006  0.9118800E+02  0.7816164E-02  0.1184000E+00
        -11   -1    0    0    0    0  0.00000000000E+00  0.00000000000E+00  0.45593999997E+02  0.45594000000E+02  0.51100000000E-03 0.  1.
         11   -1    0    0    0    0 -0.00000000000E+00 -0.00000000000E+00 -0.45593999997E+02  0.45594000000E+02  0.51100000000E-03 0. -1.
         23    2    1    2    0    0  0.00000000000E+00  0.00000000000E+00  0.35527136788E-14  0.91188000000E+02  0.91188000000E+02 0.  0.
    9900012    2    3    3    0    0 -0.22407583146E+02  0.23587528204E+02  0.17242621371E+02  0.54367092067E+02  0.40000017986E+02 0.  0.
        -12    1    3    3    0    0  0.22407583146E+02 -0.23587528204E+02 -0.17242621371E+02  0.36820907933E+02  0.00000000000E+00 0.  1.
         11    1    4    4    0    0  0.51165979306E+01  0.11364696988E+02  0.17114179681E+02  0.21171468027E+02  0.51100000000E-03 0.  1.
        -11    1    4    4    0    0 -0.51997060390E+01  0.67689270353E+01 -0.46545448427E+01  0.97221450337E+01  0.51100000000E-03 0. -1.
         12    1    4    4    0    0 -0.22324475038E+02  0.54539041808E+01  0.47829865335E+01  0.23473479007E+02  0.00000000000E+00 0. -1.
</event>
<event>
 8    1  0.2401501E-006  0.9118800E+02  0.7816164E-02  0.1184000E+00
        -11   -1    0    0    0    0  0.00000000000E+00  0.00000000000E+00  0.45593999997E+02  0.45594000000E+02  0.51100000000E-03 0.  1.
         11   -1    0    0    0    0 -0.00000000000E+00 -0.00000000000E+00 -0.45593999997E+02  0.45594000000E+02  0.51100000000E-03 0. -1.
         23    2    1    2    0    0  0.00000000000E+00  0.00000000000E+00 -0.35527136788E-14  0.91188000000E+02  0.91188000000E+02 0.  0.
    9900012    2    3    3    0    0 -0.25232725055E+02  0.87310383066E+01  0.25354653495E+02  0.54367083425E+02  0.39999998283E+02 0.  0.
         12    1    3    3    0    0  0.25232725055E+02 -0.87310383066E+01 -0.25354653495E+02  0.36820916575E+02  0.00000000000E+00 0. -1.
         11    1    4    4    0    0 -0.12422548143E+02 -0.74441586880E+01  0.10411398860E+02  0.17836267194E+02  0.51100000000E-03 0. -1.
        -11    1    4    4    0    0 -0.14720071325E+02  0.22096809121E+02  0.93049520802E+01  0.28134171511E+02  0.51100000000E-03 0.  1.
         12    1    4    4    0    0  0.19098944133E+01 -0.59216121264E+01  0.56383025551E+01  0.83966447197E+01  0.00000000000E+00 0. -1.
</event>
<event>
 8    1  0.2401501E-006  0.9118800E+02  0.7816164E-02  0.1184000E+00
        -11   -1    0    0    0    0  0.00000000000E+00  0.00000000000E+00  0.45593999997E+02  0.45594000000E+02  0.51100000000E-03 0.  1.
         11   -1    0    0    0    0 -0.00000000000E+00 -0.00000000000E+00 -0.45593999997E+02  0.45594000000E+02  0.51100000000E-03 0. -1.
         23    2    1    2    0    0  0.17763568394E-14 -0.17763568394E-14  0.00000000000E+00  0.91188000000E+02  0.91188000000E+02 0.  0.
    9900012    2    3    3    0    0 -0.64013942695E+01  0.15769097369E+02 -0.32651756752E+02  0.54367088830E+02  0.40000010605E+02 0.  0.
        -12    1    3    3    0    0  0.64013942695E+01 -0.15769097369E+02  0.32651756752E+02  0.36820911170E+02  0.00000000000E+00 0.  1.
         11    1    4    4    0    0  0.49601450614E+01  0.38110158169E+00  0.18170524272E+00  0.49780814077E+01  0.51100000000E-03 0. -1.
        -11    1    4    4    0    0  0.75815733019E+01  0.10379073912E+02 -0.25335251656E+02  0.28409160596E+02  0.51100000000E-03 0.  1.
         12    1    4    4    0    0 -0.18943112633E+02  0.50089218751E+01 -0.74982103387E+01  0.20979846826E+02  0.00000000000E+00 0. -1.
</event>
<event>
 8    1  0.2401501E-006  0.9118800E+02  0.7816164E-02  0.1184000E+00
        -11   -1    0    0    0    0  0.00000000000E+00  0.00000000000E+00  0.45593999997E+02  0.45594000000E+02  0.51100000000E-03 0.  1.
         11   -1    0    0    0    0 -0.00000000000E+00 -0.00000000000E+00 -0.45593999997E+02  0.45594000000E+02  0.51100000000E-03 0. -1.
         23    2    1    2    0    0  0.88817841970E-15 -0.35527136788E-14  0.35527136788E-14  0.91188000000E+02  0.91188000000E+02 0.  0.
    9900012    2    3    3    0    0  0.47340594786E+01 -0.28731108896E+02  0.22536463688E+02  0.54367080224E+02  0.39999990987E+02 0.  0.
        -12    1    3    3    0    0 -0.47340594786E+01  0.28731108896E+02 -0.22536463688E+02  0.36820919776E+02  0.00000000000E+00 0.  1.
         11    1    4    4    0    0  0.63218002742E+00 -0.99390843924E+01  0.90974191997E+01  0.13488813384E+02  0.51100000000E-03 0. -1.
        -11    1    4    4    0    0 -0.11244760762E+01 -0.62635726752E+01  0.23265486480E+02  0.24120108841E+02  0.51100000000E-03 0.  1.
         12    1    4    4    0    0  0.52263555274E+01 -0.12528451828E+02 -0.98264419913E+01  0.16758157999E+02  0.00000000000E+00 0. -1.
</event>
<event>
 8    1  0.2401501E-006  0.9118800E+02  0.7816164E-02  0.1184000E+00
        -11   -1    0    0    0    0  0.00000000000E+00  0.00000000000E+00  0.45593999997E+02  0.45594000000E+02  0.51100000000E-03 0. -1.
         11   -1    0    0    0    0 -0.00000000000E+00 -0.00000000000E+00 -0.45593999997E+02  0.45594000000E+02  0.51100000000E-03 0.  1.
         23    2    1    2    0    0 -0.88817841970E-15  0.00000000000E+00  0.00000000000E+00  0.91188000000E+02  0.91188000000E+02 0.  0.
    9900012    2    3    3    0    0  0.61117402014E+01  0.84782652996E+01 -0.35306475841E+02  0.54367060480E+02  0.39999945977E+02 0.  0.
         12    1    3    3    0    0 -0.61117402014E+01 -0.84782652996E+01  0.35306475841E+02  0.36820939520E+02  0.00000000000E+00 0. -1.
         11    1    4    4    0    0 -0.54972979925E+01  0.52346438681E+01  0.68822566611E+01  0.10246328057E+02  0.51100000000E-03 0. -1.
        -11    1    4    4    0    0  0.60775455764E+01  0.29833165419E+01 -0.16369330973E+02  0.17714167623E+02  0.51100000000E-03 0.  1.
         12    1    4    4    0    0  0.55314926175E+01  0.26030488960E+00 -0.25819401530E+02  0.26406564800E+02  0.00000000000E+00 0. -1.
</event>
<event>
 8    1  0.2401501E-006  0.9118800E+02  0.7816164E-02  0.1184000E+00
        -11   -1    0    0    0    0  0.00000000000E+00  0.00000000000E+00  0.45593999997E+02  0.45594000000E+02  0.51100000000E-03 0. -1.
         11   -1    0    0    0    0 -0.00000000000E+00 -0.00000000000E+00 -0.45593999997E+02  0.45594000000E+02  0.51100000000E-03 0.  1.
         23    2    1    2    0    0  0.62727600891E-14  0.00000000000E+00  0.00000000000E+00  0.91188000000E+02  0.91188000000E+02 0.  0.
    9900012    2    3    3    0    0 -0.12341200262E+00 -0.10770365907E+02  0.35210280938E+02  0.54367083444E+02  0.39999998328E+02 0.  0.
        -12    1    3    3    0    0  0.12341200262E+00  0.10770365907E+02 -0.35210280938E+02  0.36820916556E+02  0.00000000000E+00 0.  1.
         11    1    4    4    0    0 -0.15777743224E+02 -0.42423572003E+01  0.28480411311E+02  0.32833955055E+02  0.51100000000E-03 0. -1.
        -11    1    4    4    0    0  0.16506709321E+02 -0.72245991307E+01  0.81169065117E+01  0.19762349475E+02  0.51100000000E-03 0.  1.
        -12    1    4    4    0    0 -0.85237809883E+00  0.69659042409E+00 -0.13870368851E+01  0.17707789142E+01  0.00000000000E+00 0.  1.
</event>
<event>
 8    1  0.2401501E-006  0.9118800E+02  0.7816164E-02  0.1184000E+00
        -11   -1    0    0    0    0  0.00000000000E+00  0.00000000000E+00  0.45593999997E+02  0.45594000000E+02  0.51100000000E-03 0.  1.
         11   -1    0    0    0    0 -0.00000000000E+00 -0.00000000000E+00 -0.45593999997E+02  0.45594000000E+02  0.51100000000E-03 0. -1.
         23    2    1    2    0    0  0.00000000000E+00  0.00000000000E+00  0.35527136788E-14  0.91188000000E+02  0.91188000000E+02 0.  0.
    9900012    2    3    3    0    0  0.23158979007E+02 -0.48178573041E+01 -0.28217559803E+02  0.54367071998E+02  0.39999972235E+02 0.  0.
        -12    1    3    3    0    0 -0.23158979007E+02  0.48178573041E+01  0.28217559803E+02  0.36820928002E+02  0.00000000000E+00 0.  1.
         11    1    4    4    0    0  0.14259351145E+02 -0.91501060325E+01 -0.27414596912E+02  0.32227529530E+02  0.51100000000E-03 0. -1.
        -11    1    4    4    0    0  0.14557719790E+02  0.61040199237E+01 -0.24768608935E+01  0.15978770443E+02  0.51100000000E-03 0.  1.
        -12    1    4    4    0    0 -0.56580919277E+01 -0.17717711953E+01  0.16738980025E+01  0.61607720258E+01  0.00000000000E+00 0.  1.
</event>
<event>
 8    1  0.2401501E-006  0.9118800E+02  0.7816164E-02  0.1184000E+00
        -11   -1    0    0    0    0  0.00000000000E+00  0.00000000000E+00  0.45593999997E+02  0.45594000000E+02  0.51100000000E-03 0. -1.
         11   -1    0    0    0    0 -0.00000000000E+00 -0.00000000000E+00 -0.45593999997E+02  0.45594000000E+02  0.51100000000E-03 0.  1.
         23    2    1    2    0    0  0.00000000000E+00  0.00000000000E+00  0.00000000000E+00  0.91188000000E+02  0.91188000000E+02 0.  0.
    9900012    2    3    3    0    0  0.78708913820E+01  0.83811379254E+01 -0.34979763448E+02  0.54367105729E+02  0.40000049130E+02 0.  0.
         12    1    3    3    0    0 -0.78708913820E+01 -0.83811379254E+01  0.34979763448E+02  0.36820894271E+02  0.00000000000E+00 0. -1.
         11    1    4    4    0    0 -0.12649050702E+02  0.52841360115E+01 -0.24402006508E+02  0.27988899566E+02  0.51100000000E-03 0. -1.
        -11    1    4    4    0    0  0.80560491402E+01  0.57472479359E+01 -0.12477612418E+00  0.98967851310E+01  0.51100000000E-03 0.  1.
        -12    1    4    4    0    0  0.12463892944E+02 -0.26502460220E+01 -0.10452980815E+02  0.16481421031E+02  0.00000000000E+00 0.  1.
</event>
<event>
 8    1  0.2401501E-006  0.9118800E+02  0.7816164E-02  0.1184000E+00
        -11   -1    0    0    0    0  0.00000000000E+00  0.00000000000E+00  0.45593999997E+02  0.45594000000E+02  0.51100000000E-03 0. -1.
         11   -1    0    0    0    0 -0.00000000000E+00 -0.00000000000E+00 -0.45593999997E+02  0.45594000000E+02  0.51100000000E-03 0.  1.
         23    2    1    2    0    0 -0.17763568394E-14 -0.35527136788E-14 -0.35527136788E-14  0.91188000000E+02  0.91188000000E+02 0.  0.
    9900012    2    3    3    0    0 -0.14746033311E+02 -0.22113767951E+02 -0.25481642172E+02  0.54367104856E+02  0.40000047140E+02 0.  0.
         12    1    3    3    0    0  0.14746033311E+02  0.22113767951E+02  0.25481642172E+02  0.36820895144E+02  0.00000000000E+00 0. -1.
         11    1    4    4    0    0 -0.17417135070E+02 -0.10032088742E+02 -0.23147628129E+02  0.30656354754E+02  0.51100000000E-03 0. -1.
        -11    1    4    4    0    0  0.47849972282E+01 -0.72790775717E+01 -0.10723321089E+02  0.13815599307E+02  0.51100000000E-03 0.  1.
         12    1    4    4    0    0 -0.21138954691E+01 -0.48026016373E+01  0.83893070455E+01  0.98951507945E+01  0.00000000000E+00 0. -1.
</event>
<event>
 8    1  0.2401501E-006  0.9118800E+02  0.7816164E-02  0.1184000E+00
        -11   -1    0    0    0    0  0.00000000000E+00  0.00000000000E+00  0.45593999997E+02  0.45594000000E+02  0.51100000000E-03 0.  1.
         11   -1    0    0    0    0 -0.00000000000E+00 -0.00000000000E+00 -0.45593999997E+02  0.45594000000E+02  0.51100000000E-03 0. -1.
         23    2    1    2    0    0 -0.17763568394E-14  0.35527136788E-14  0.35527136788E-14  0.91188000000E+02  0.91188000000E+02 0.  0.
    9900012    2    3    3    0    0 -0.13447478958E+02 -0.25294303761E+02 -0.23133138406E+02  0.54367101239E+02  0.40000038894E+02 0.  0.
        -12    1    3    3    0    0  0.13447478958E+02  0.25294303761E+02  0.23133138406E+02  0.36820898761E+02  0.00000000000E+00 0.  1.
         11    1    4    4    0    0  0.50418040927E+01 -0.19911732556E+02 -0.27905882540E+01  0.20728826907E+02  0.51100000000E-03 0. -1.
        -11    1    4    4    0    0  0.17103015496E+01  0.41221704427E+01 -0.31958651494E+01  0.54891688682E+01  0.51100000000E-03 0.  1.
        -12    1    4    4    0    0 -0.20199584600E+02 -0.95047416481E+01 -0.17146685003E+02  0.28149105463E+02  0.00000000000E+00 0.  1.
</event>
<event>
 8    1  0.2401501E-006  0.9118800E+02  0.7816164E-02  0.1184000E+00
        -11   -1    0    0    0    0  0.00000000000E+00  0.00000000000E+00  0.45593999997E+02  0.45594000000E+02  0.51100000000E-03 0. -1.
         11   -1    0    0    0    0 -0.00000000000E+00 -0.00000000000E+00 -0.45593999997E+02  0.45594000000E+02  0.51100000000E-03 0.  1.
         23    2    1    2    0    0  0.00000000000E+00 -0.35527136788E-14  0.35527136788E-14  0.91188000000E+02  0.91188000000E+02 0.  0.
    9900012    2    3    3    0    0 -0.24234412188E+02 -0.17799688004E+02 -0.21251900565E+02  0.54367096904E+02  0.40000029012E+02 0.  0.
         12    1    3    3    0    0  0.24234412188E+02  0.17799688004E+02  0.21251900565E+02  0.36820903096E+02  0.00000000000E+00 0. -1.
         11    1    4    4    0    0  0.47894909722E+01  0.19848721210E+01  0.54010307050E+01  0.74866597389E+01  0.51100000000E-03 0. -1.
        -11    1    4    4    0    0 -0.12248776549E+02  0.30185543280E+00 -0.10424563488E+02  0.16087111854E+02  0.51100000000E-03 0.  1.
         12    1    4    4    0    0 -0.16775126612E+02 -0.20086415558E+02 -0.16228367783E+02  0.30793325311E+02  0.00000000000E+00 0. -1.
</event>
<event>
 8    1  0.2858041E-006  0.9118800E+02  0.7816164E-02  0.1184000E+00
        -11   -1    0    0    0    0  0.00000000000E+00  0.00000000000E+00  0.45593999997E+02  0.45594000000E+02  0.51100000000E-03 0.  1.
         11   -1    0    0    0    0 -0.00000000000E+00 -0.00000000000E+00 -0.45593999997E+02  0.45594000000E+02  0.51100000000E-03 0. -1.
         23    2    1    2    0    0 -0.35527136788E-14  0.44408920985E-15 -0.71054273576E-14  0.91188000000E+02  0.91188000000E+02 0.  0.
    9900012    2    3    3    0    0 -0.16672535364E+02  0.23470390339E+01 -0.32745950269E+02  0.54367091718E+02  0.40000017190E+02 0.  0.
        -12    1    3    3    0    0  0.16672535364E+02 -0.23470390339E+01  0.32745950269E+02  0.36820908282E+02  0.00000000000E+00 0.  1.
         11    1    4    4    0    0 -0.83704416467E+01  0.11405006222E+00  0.70866057352E+00  0.84011606846E+01  0.51100000000E-03 0. -1.
        -11    1    4    4    0    0  0.15753073333E+01 -0.64278881845E+01  0.29631966161E+01  0.72511981185E+01  0.51100000000E-03 0.  1.
         12    1    4    4    0    0 -0.98774010504E+01  0.86608771561E+01 -0.36417807458E+02  0.38714732915E+02  0.00000000000E+00 0. -1.
</event>
<event>
 8    1  0.2401501E-006  0.9118800E+02  0.7816164E-02  0.1184000E+00
        -11   -1    0    0    0    0  0.00000000000E+00  0.00000000000E+00  0.45593999997E+02  0.45594000000E+02  0.51100000000E-03 0.  1.
         11   -1    0    0    0    0 -0.00000000000E+00 -0.00000000000E+00 -0.45593999997E+02  0.45594000000E+02  0.51100000000E-03 0. -1.
         23    2    1    2    0    0  0.00000000000E+00  0.00000000000E+00  0.00000000000E+00  0.91188000000E+02  0.91188000000E+02 0.  0.
    9900012    2    3    3    0    0 -0.16692089915E+02  0.27180546554E+02  0.18394879491E+02  0.54367087895E+02  0.40000008475E+02 0.  0.
         12    1    3    3    0    0  0.16692089915E+02 -0.27180546554E+02 -0.18394879491E+02  0.36820912105E+02  0.00000000000E+00 0. -1.
         11    1    4    4    0    0  0.10861526212E+01 -0.50772592914E+01  0.52050866397E+01  0.73519532517E+01  0.51100000000E-03 0. -1.
        -11    1    4    4    0    0  0.48769694152E+01  0.12022282912E+02 -0.18742263901E+01  0.13108502657E+02  0.51100000000E-03 0.  1.
         12    1    4    4    0    0 -0.22655211952E+02  0.20235522934E+02  0.15064019241E+02  0.33906631987E+02  0.00000000000E+00 0. -1.
</event>
<event>
 8    1  0.2401501E-006  0.9118800E+02  0.7816164E-02  0.1184000E+00
        -11   -1    0    0    0    0  0.00000000000E+00  0.00000000000E+00  0.45593999997E+02  0.45594000000E+02  0.51100000000E-03 0.  1.
         11   -1    0    0    0    0 -0.00000000000E+00 -0.00000000000E+00 -0.45593999997E+02  0.45594000000E+02  0.51100000000E-03 0. -1.
         23    2    1    2    0    0  0.00000000000E+00  0.00000000000E+00  0.00000000000E+00  0.91188000000E+02  0.91188000000E+02 0.  0.
    9900012    2    3    3    0    0  0.22637177593E+02 -0.22441468063E+02 -0.18431453903E+02  0.54367084868E+02  0.40000001573E+02 0.  0.
        -12    1    3    3    0    0 -0.22637177593E+02  0.22441468063E+02  0.18431453903E+02  0.36820915132E+02  0.00000000000E+00 0.  1.
         11    1    4    4    0    0  0.18092154862E+02 -0.18991039362E+02 -0.20740554223E+02  0.33438843182E+02  0.51100000000E-03 0. -1.
        -11    1    4    4    0    0  0.11002716724E+02  0.19386056095E+01 -0.21972178609E+01  0.11386208043E+02  0.51100000000E-03 0.  1.
         12    1    4    4    0    0 -0.64576939925E+01 -0.53890343105E+01  0.45063181810E+01  0.95420336433E+01  0.00000000000E+00 0. -1.
</event>
<event>
 8    1  0.2401501E-006  0.9118800E+02  0.7816164E-02  0.1184000E+00
        -11   -1    0    0    0    0  0.00000000000E+00  0.00000000000E+00  0.45593999997E+02  0.45594000000E+02  0.51100000000E-03 0.  1.
         11   -1    0    0    0    0 -0.00000000000E+00 -0.00000000000E+00 -0.45593999997E+02  0.45594000000E+02  0.51100000000E-03 0. -1.
         23    2    1    2    0    0  0.17763568394E-14 -0.71054273576E-14  0.00000000000E+00  0.91188000000E+02  0.91188000000E+02 0.  0.
    9900012    2    3    3    0    0 -0.13510470741E+02  0.30813057237E+02 -0.14960078547E+02  0.54367064840E+02  0.39999955916E+02 0.  0.
        -12    1    3    3    0    0  0.13510470741E+02 -0.30813057237E+02  0.14960078547E+02  0.36820935160E+02  0.00000000000E+00 0.  1.
         11    1    4    4    0    0 -0.15538884203E+01  0.32602251946E+02 -0.17037294863E+01  0.32683697704E+02  0.51100000000E-03 0. -1.
        -11    1    4    4    0    0 -0.43930957598E+01  0.44723860061E+01 -0.90312866482E+01  0.10993892201E+02  0.51100000000E-03 0.  1.
        -12    1    4    4    0    0 -0.75634865608E+01 -0.62615807151E+01 -0.42250624125E+01  0.10689474936E+02  0.00000000000E+00 0.  1.
</event>
<event>
 8    1  0.2401501E-006  0.9118800E+02  0.7816164E-02  0.1184000E+00
        -11   -1    0    0    0    0  0.00000000000E+00  0.00000000000E+00  0.45593999997E+02  0.45594000000E+02  0.51100000000E-03 0. -1.
         11   -1    0    0    0    0 -0.00000000000E+00 -0.00000000000E+00 -0.45593999997E+02  0.45594000000E+02  0.51100000000E-03 0.  1.
         23    2    1    2    0    0 -0.35527136788E-14 -0.17763568394E-14  0.35527136788E-14  0.91188000000E+02  0.91188000000E+02 0.  0.
    9900012    2    3    3    0    0 -0.19971932423E+02 -0.15460568097E+02  0.26793263950E+02  0.54366997248E+02  0.39999801826E+02 0.  0.
        -12    1    3    3    0    0  0.19971932423E+02  0.15460568097E+02 -0.26793263950E+02  0.36821002752E+02  0.00000000000E+00 0.  1.
         11    1    4    4    0    0 -0.15653707715E+02 -0.93992132071E+01  0.32978205332E+02  0.37695434754E+02  0.51100000000E-03 0. -1.
        -11    1    4    4    0    0 -0.38244266405E+01 -0.53020530630E+01  0.31751792405E+01  0.72677210514E+01  0.51100000000E-03 0.  1.
        -12    1    4    4    0    0 -0.49379806758E+00 -0.75930182652E+00 -0.93601206228E+01  0.94038414421E+01  0.00000000000E+00 0.  1.
</event>
<event>
 8    1  0.2401501E-006  0.9118800E+02  0.7816164E-02  0.1184000E+00
        -11   -1    0    0    0    0  0.00000000000E+00  0.00000000000E+00  0.45593999997E+02  0.45594000000E+02  0.51100000000E-03 0. -1.
         11   -1    0    0    0    0 -0.00000000000E+00 -0.00000000000E+00 -0.45593999997E+02  0.45594000000E+02  0.51100000000E-03 0.  1.
         23    2    1    2    0    0 -0.71054273576E-14  0.88817841970E-15  0.00000000000E+00  0.91188000000E+02  0.91188000000E+02 0.  0.
    9900012    2    3    3    0    0 -0.36141876583E+02  0.50490639011E+01 -0.49042349191E+01  0.54367084620E+02  0.40000001009E+02 0.  0.
        -12    1    3    3    0    0  0.36141876583E+02 -0.50490639011E+01  0.49042349191E+01  0.36820915380E+02  0.00000000000E+00 0.  1.
         11    1    4    4    0    0 -0.53502818765E+01  0.11548466570E+02 -0.13324853361E+02  0.18426728240E+02  0.51100000000E-03 0. -1.
        -11    1    4    4    0    0 -0.59410762677E+00  0.25786821057E+01 -0.12934905261E+01  0.29454512857E+01  0.51100000000E-03 0.  1.
         12    1    4    4    0    0 -0.30197487080E+02 -0.90780847746E+01  0.97141089684E+01  0.32994905094E+02  0.00000000000E+00 0. -1.
</event>
<event>
 8    1  0.2401501E-006  0.9118800E+02  0.7816164E-02  0.1184000E+00
        -11   -1    0    0    0    0  0.00000000000E+00  0.00000000000E+00  0.45593999997E+02  0.45594000000E+02  0.51100000000E-03 0. -1.
         11   -1    0    0    0    0 -0.00000000000E+00 -0.00000000000E+00 -0.45593999997E+02  0.45594000000E+02  0.51100000000E-03 0.  1.
         23    2    1    2    0    0  0.00000000000E+00  0.00000000000E+00  0.53290705182E-14  0.91188000000E+02  0.91188000000E+02 0.  0.
    9900012    2    3    3    0    0 -0.15801046051E+02 -0.31032278563E+02 -0.11962631151E+02  0.54367083212E+02  0.39999997798E+02 0.  0.
        -12    1    3    3    0    0  0.15801046051E+02  0.31032278563E+02  0.11962631151E+02  0.36820916788E+02  0.00000000000E+00 0.  1.
         11    1    4    4    0    0 -0.13084194463E+02 -0.23576086638E+02  0.88768710104E+01  0.28387089409E+02  0.51100000000E-03 0. -1.
        -11    1    4    4    0    0  0.53427787448E+01 -0.21269380316E+01 -0.63782011645E+01  0.85878169789E+01  0.51100000000E-03 0.  1.
         12    1    4    4    0    0 -0.80596303320E+01 -0.53292538927E+01 -0.14461300997E+02  0.17392176823E+02  0.00000000000E+00 0. -1.
</event>
<event>
 8    1  0.2401501E-006  0.9118800E+02  0.7816164E-02  0.1184000E+00
        -11   -1    0    0    0    0  0.00000000000E+00  0.00000000000E+00  0.45593999997E+02  0.45594000000E+02  0.51100000000E-03 0. -1.
         11   -1    0    0    0    0 -0.00000000000E+00 -0.00000000000E+00 -0.45593999997E+02  0.45594000000E+02  0.51100000000E-03 0.  1.
         23    2    1    2    0    0  0.00000000000E+00  0.00000000000E+00  0.00000000000E+00  0.91188000000E+02  0.91188000000E+02 0.  0.
    9900012    2    3    3    0    0  0.20294182960E+01  0.36693481074E+02 -0.22911960009E+01  0.54367086498E+02  0.40000005290E+02 0.  0.
         12    1    3    3    0    0 -0.20294182960E+01 -0.36693481074E+02  0.22911960009E+01  0.36820913502E+02  0.00000000000E+00 0. -1.
         11    1    4    4    0    0 -0.35708486243E+01 -0.73805335764E+01 -0.27338810282E+01  0.86427623771E+01  0.51100000000E-03 0. -1.
        -11    1    4    4    0    0  0.15583732860E+01  0.25376658929E+01 -0.24999131233E+01  0.38881668390E+01  0.51100000000E-03 0.  1.
         12    1    4    4    0    0  0.40418936342E+01  0.41536348758E+02  0.29425981506E+01  0.41836157282E+02  0.00000000000E+00 0. -1.
</event>
<event>
 8    1  0.2401501E-006  0.9118800E+02  0.7816164E-02  0.1184000E+00
        -11   -1    0    0    0    0  0.00000000000E+00  0.00000000000E+00  0.45593999997E+02  0.45594000000E+02  0.51100000000E-03 0.  1.
         11   -1    0    0    0    0 -0.00000000000E+00 -0.00000000000E+00 -0.45593999997E+02  0.45594000000E+02  0.51100000000E-03 0. -1.
         23    2    1    2    0    0  0.00000000000E+00  0.71054273576E-14  0.35527136788E-14  0.91188000000E+02  0.91188000000E+02 0.  0.
    9900012    2    3    3    0    0 -0.72718621116E+01  0.32679196820E+02  0.15328715945E+02  0.54367089964E+02  0.40000013191E+02 0.  0.
        -12    1    3    3    0    0  0.72718621116E+01 -0.32679196820E+02 -0.15328715945E+02  0.36820910036E+02  0.00000000000E+00 0.  1.
         11    1    4    4    0    0 -0.13593957059E+02  0.25462915693E+02 -0.48142461059E+01  0.29263163020E+02  0.51100000000E-03 0. -1.
        -11    1    4    4    0    0  0.21378363629E+01 -0.31386094263E+01  0.56331902183E+01  0.67936768942E+01  0.51100000000E-03 0.  1.
         12    1    4    4    0    0  0.41842585841E+01  0.10354890553E+02  0.14509771832E+02  0.18310250050E+02  0.00000000000E+00 0. -1.
</event>
<event>
 8    1  0.2401501E-006  0.9118800E+02  0.7816164E-02  0.1184000E+00
        -11   -1    0    0    0    0  0.00000000000E+00  0.00000000000E+00  0.45593999997E+02  0.45594000000E+02  0.51100000000E-03 0.  1.
         11   -1    0    0    0    0 -0.00000000000E+00 -0.00000000000E+00 -0.45593999997E+02  0.45594000000E+02  0.51100000000E-03 0. -1.
         23    2    1    2    0    0  0.00000000000E+00  0.00000000000E+00  0.00000000000E+00  0.91188000000E+02  0.91188000000E+02 0.  0.
    9900012    2    3    3    0    0  0.25685141024E+02 -0.10748475070E+02  0.24094057974E+02  0.54367084538E+02  0.40000000822E+02 0.  0.
         12    1    3    3    0    0 -0.25685141024E+02  0.10748475070E+02 -0.24094057974E+02  0.36820915462E+02  0.00000000000E+00 0. -1.
         11    1    4    4    0    0  0.46270409139E+01  0.67962081692E+01  0.74803286891E+01  0.11115451887E+02  0.51100000000E-03 0. -1.
        -11    1    4    4    0    0  0.33317951065E+01 -0.41639665697E+01  0.20077410724E+02  0.20773586544E+02  0.51100000000E-03 0.  1.
        -12    1    4    4    0    0  0.17726305004E+02 -0.13380716670E+02 -0.34636814391E+01  0.22478046107E+02  0.00000000000E+00 0.  1.
</event>
<event>
 8    1  0.2401501E-006  0.9118800E+02  0.7816164E-02  0.1184000E+00
        -11   -1    0    0    0    0  0.00000000000E+00  0.00000000000E+00  0.45593999997E+02  0.45594000000E+02  0.51100000000E-03 0.  1.
         11   -1    0    0    0    0 -0.00000000000E+00 -0.00000000000E+00 -0.45593999997E+02  0.45594000000E+02  0.51100000000E-03 0. -1.
         23    2    1    2    0    0 -0.35527136788E-14 -0.35527136788E-14 -0.22204460493E-15  0.91188000000E+02  0.91188000000E+02 0.  0.
    9900012    2    3    3    0    0 -0.30799023263E+02 -0.20144531754E+02  0.11820586604E+01  0.54367092132E+02  0.40000018133E+02 0.  0.
         12    1    3    3    0    0  0.30799023263E+02  0.20144531754E+02 -0.11820586604E+01  0.36820907868E+02  0.00000000000E+00 0. -1.
         11    1    4    4    0    0 -0.67366139641E+01  0.28450942232E+01  0.86839968878E+01  0.11352899676E+02  0.51100000000E-03 0.  1.
        -11    1    4    4    0    0 -0.18690753548E+02 -0.20747146253E+01  0.29303936077E+01  0.19032496314E+02  0.51100000000E-03 0. -1.
        -12    1    4    4    0    0 -0.53716557512E+01 -0.20914911352E+02 -0.10432331835E+02  0.23981696142E+02  0.00000000000E+00 0.  1.
</event>
<event>
 8    1  0.2401501E-006  0.9118800E+02  0.7816164E-02  0.1184000E+00
        -11   -1    0    0    0    0  0.00000000000E+00  0.00000000000E+00  0.45593999997E+02  0.45594000000E+02  0.51100000000E-03 0. -1.
         11   -1    0    0    0    0 -0.00000000000E+00 -0.00000000000E+00 -0.45593999997E+02  0.45594000000E+02  0.51100000000E-03 0.  1.
         23    2    1    2    0    0 -0.88817841970E-15  0.00000000000E+00  0.00000000000E+00  0.91188000000E+02  0.91188000000E+02 0.  0.
    9900012    2    3    3    0    0 -0.71472793740E+01  0.34894692050E+02  0.93304628884E+01  0.54367072887E+02  0.39999974261E+02 0.  0.
        -12    1    3    3    0    0  0.71472793740E+01 -0.34894692050E+02 -0.93304628884E+01  0.36820927113E+02  0.00000000000E+00 0.  1.
         11    1    4    4    0    0 -0.36303062723E+01  0.19347377872E+02  0.18880808106E+02  0.27276089697E+02  0.51100000000E-03 0. -1.
        -11    1    4    4    0    0 -0.46376154049E+01  0.16719709178E+02 -0.14038392903E+02  0.22318884990E+02  0.51100000000E-03 0.  1.
        -12    1    4    4    0    0  0.11206423032E+01 -0.11723949996E+01  0.44880476854E+01  0.47720982003E+01  0.00000000000E+00 0.  1.
</event>
<event>
 8    1  0.2401501E-006  0.9118800E+02  0.7816164E-02  0.1184000E+00
        -11   -1    0    0    0    0  0.00000000000E+00  0.00000000000E+00  0.45593999997E+02  0.45594000000E+02  0.51100000000E-03 0.  1.
         11   -1    0    0    0    0 -0.00000000000E+00 -0.00000000000E+00 -0.45593999997E+02  0.45594000000E+02  0.51100000000E-03 0. -1.
         23    2    1    2    0    0  0.00000000000E+00  0.00000000000E+00  0.00000000000E+00  0.91188000000E+02  0.91188000000E+02 0.  0.
    9900012    2    3    3    0    0  0.14422616763E+02  0.20764476897E+02 -0.26769425107E+02  0.54367116039E+02  0.40000072635E+02 0.  0.
        -12    1    3    3    0    0 -0.14422616763E+02 -0.20764476897E+02  0.26769425107E+02  0.36820883961E+02  0.00000000000E+00 0.  1.
         11    1    4    4    0    0 -0.53250853050E+01  0.43269087958E+00  0.90962059775E+00  0.54195170260E+01  0.51100000000E-03 0. -1.
        -11    1    4    4    0    0  0.29251356611E+01  0.17373328910E+02 -0.14900371928E+01  0.17680757539E+02  0.51100000000E-03 0.  1.
         12    1    4    4    0    0  0.16822566407E+02  0.29584571074E+01 -0.26189008512E+02  0.31266841475E+02  0.00000000000E+00 0. -1.
</event>
<event>
 8    1  0.2401501E-006  0.9118800E+02  0.7816164E-02  0.1184000E+00
        -11   -1    0    0    0    0  0.00000000000E+00  0.00000000000E+00  0.45593999997E+02  0.45594000000E+02  0.51100000000E-03 0.  1.
         11   -1    0    0    0    0 -0.00000000000E+00 -0.00000000000E+00 -0.45593999997E+02  0.45594000000E+02  0.51100000000E-03 0. -1.
         23    2    1    2    0    0  0.00000000000E+00 -0.53290705182E-14 -0.71054273576E-14  0.91188000000E+02  0.91188000000E+02 0.  0.
    9900012    2    3    3    0    0 -0.54493885861E+01 -0.15180286666E+02 -0.33100474409E+02  0.54367104501E+02  0.40000046331E+02 0.  0.
        -12    1    3    3    0    0  0.54493885861E+01  0.15180286666E+02  0.33100474409E+02  0.36820895499E+02  0.00000000000E+00 0.  1.
         11    1    4    4    0    0 -0.22539212638E+01  0.87795921952E+01 -0.63190737108E+01  0.11049529085E+02  0.51100000000E-03 0.  1.
        -11    1    4    4    0    0 -0.13550560840E+02 -0.16111121406E+02 -0.16728544708E+02  0.26889219780E+02  0.51100000000E-03 0. -1.
         12    1    4    4    0    0  0.10355093518E+02 -0.78487574549E+01 -0.10052855990E+02  0.16428355636E+02  0.00000000000E+00 0. -1.
</event>
<event>
 8    1  0.2401501E-006  0.9118800E+02  0.7816164E-02  0.1184000E+00
        -11   -1    0    0    0    0  0.00000000000E+00  0.00000000000E+00  0.45593999997E+02  0.45594000000E+02  0.51100000000E-03 0. -1.
         11   -1    0    0    0    0 -0.00000000000E+00 -0.00000000000E+00 -0.45593999997E+02  0.45594000000E+02  0.51100000000E-03 0.  1.
         23    2    1    2    0    0  0.00000000000E+00  0.00000000000E+00  0.00000000000E+00  0.91188000000E+02  0.91188000000E+02 0.  0.
    9900012    2    3    3    0    0 -0.21773541172E+02  0.28444628881E+02  0.85208519499E+01  0.54366960834E+02  0.39999718811E+02 0.  0.
        -12    1    3    3    0    0  0.21773541172E+02 -0.28444628881E+02 -0.85208519499E+01  0.36821039166E+02  0.00000000000E+00 0.  1.
         11    1    4    4    0    0 -0.12147426630E+01  0.79983911275E+01  0.14452394774E+02  0.16562656047E+02  0.51100000000E-03 0. -1.
        -11    1    4    4    0    0 -0.76670676825E+01  0.22645531515E+02 -0.13474453511E+01  0.23946182027E+02  0.51100000000E-03 0.  1.
         12    1    4    4    0    0 -0.12891730827E+02 -0.21992937618E+01 -0.45840974733E+01  0.13858122759E+02  0.00000000000E+00 0. -1.
</event>
<event>
 8    1  0.2401501E-006  0.9118800E+02  0.7816164E-02  0.1184000E+00
        -11   -1    0    0    0    0  0.00000000000E+00  0.00000000000E+00  0.45593999997E+02  0.45594000000E+02  0.51100000000E-03 0. -1.
         11   -1    0    0    0    0 -0.00000000000E+00 -0.00000000000E+00 -0.45593999997E+02  0.45594000000E+02  0.51100000000E-03 0.  1.
         23    2    1    2    0    0  0.71054273576E-14  0.44408920985E-15  0.31086244690E-14  0.91188000000E+02  0.91188000000E+02 0.  0.
    9900012    2    3    3    0    0  0.36524464939E+02 -0.25685237338E+01  0.38915009769E+01  0.54367114173E+02  0.40000068379E+02 0.  0.
        -12    1    3    3    0    0 -0.36524464939E+02  0.25685237338E+01 -0.38915009769E+01  0.36820885827E+02  0.00000000000E+00 0.  1.
         11    1    4    4    0    0  0.13548977047E+02 -0.89117292212E+01 -0.49125499376E+01  0.16944817612E+02  0.51100000000E-03 0. -1.
        -11    1    4    4    0    0  0.73828132523E+01 -0.10034214588E+01 -0.96360902255E+01  0.12180600200E+02  0.51100000000E-03 0.  1.
         12    1    4    4    0    0  0.15592674640E+02  0.73466269462E+01  0.18440141140E+02  0.25241696361E+02  0.00000000000E+00 0. -1.
</event>
<event>
 8    1  0.2401501E-006  0.9118800E+02  0.7816164E-02  0.1184000E+00
        -11   -1    0    0    0    0  0.00000000000E+00  0.00000000000E+00  0.45593999997E+02  0.45594000000E+02  0.51100000000E-03 0.  1.
         11   -1    0    0    0    0 -0.00000000000E+00 -0.00000000000E+00 -0.45593999997E+02  0.45594000000E+02  0.51100000000E-03 0. -1.
         23    2    1    2    0    0  0.00000000000E+00  0.17763568394E-14  0.00000000000E+00  0.91188000000E+02  0.91188000000E+02 0.  0.
    9900012    2    3    3    0    0 -0.26543398538E+02  0.11422625642E+02 -0.22819993807E+02  0.54367075244E+02  0.39999979635E+02 0.  0.
        -12    1    3    3    0    0  0.26543398538E+02 -0.11422625642E+02  0.22819993807E+02  0.36820924756E+02  0.00000000000E+00 0.  1.
         11    1    4    4    0    0 -0.27643205134E+02  0.16548910388E+02 -0.25556661100E+02  0.41123668999E+02  0.51100000000E-03 0. -1.
        -11    1    4    4    0    0 -0.33227972964E+01 -0.72952486990E+01  0.20076865697E+01  0.82639240726E+01  0.51100000000E-03 0.  1.
         12    1    4    4    0    0  0.44226038920E+01  0.21689639533E+01  0.72898072346E+00  0.49794821730E+01  0.00000000000E+00 0. -1.
</event>
<event>
 8    1  0.2401501E-006  0.9118800E+02  0.7816164E-02  0.1184000E+00
        -11   -1    0    0    0    0  0.00000000000E+00  0.00000000000E+00  0.45593999997E+02  0.45594000000E+02  0.51100000000E-03 0.  1.
         11   -1    0    0    0    0 -0.00000000000E+00 -0.00000000000E+00 -0.45593999997E+02  0.45594000000E+02  0.51100000000E-03 0. -1.
         23    2    1    2    0    0  0.00000000000E+00  0.00000000000E+00  0.00000000000E+00  0.91188000000E+02  0.91188000000E+02 0.  0.
    9900012    2    3    3    0    0 -0.23484310489E+02  0.25957652217E+02 -0.11422569944E+02  0.54366978125E+02  0.39999758232E+02 0.  0.
         12    1    3    3    0    0  0.23484310489E+02 -0.25957652217E+02  0.11422569944E+02  0.36821021875E+02  0.00000000000E+00 0. -1.
         11    1    4    4    0    0 -0.34654541509E+01 -0.59091126525E+01 -0.40988425920E+01  0.79829503109E+01  0.51100000000E-03 0. -1.
        -11    1    4    4    0    0 -0.79337563652E+01  0.11869466559E+01  0.67961234406E+01  0.10513830249E+02  0.51100000000E-03 0.  1.
         12    1    4    4    0    0 -0.12085099973E+02  0.30679818213E+02 -0.14119850793E+02  0.35870197565E+02  0.00000000000E+00 0. -1.
</event>
<event>
 8    1  0.2401501E-006  0.9118800E+02  0.7816164E-02  0.1184000E+00
        -11   -1    0    0    0    0  0.00000000000E+00  0.00000000000E+00  0.45593999997E+02  0.45594000000E+02  0.51100000000E-03 0.  1.
         11   -1    0    0    0    0 -0.00000000000E+00 -0.00000000000E+00 -0.45593999997E+02  0.45594000000E+02  0.51100000000E-03 0. -1.
         23    2    1    2    0    0 -0.35527136788E-14  0.00000000000E+00  0.00000000000E+00  0.91188000000E+02  0.91188000000E+02 0.  0.
    9900012    2    3    3    0    0 -0.28012759434E+02 -0.42509149098E+01 -0.23515836958E+02  0.54367088055E+02  0.40000008839E+02 0.  0.
        -12    1    3    3    0    0  0.28012759434E+02  0.42509149098E+01  0.23515836958E+02  0.36820911945E+02  0.00000000000E+00 0.  1.
         11    1    4    4    0    0  0.55740829025E+01  0.68460413796E+00 -0.14871786359E+02  0.15896827130E+02  0.51100000000E-03 0. -1.
        -11    1    4    4    0    0 -0.12582679695E+02 -0.75319449882E+01  0.19654576055E+01  0.14795845615E+02  0.51100000000E-03 0.  1.
        -12    1    4    4    0    0 -0.21004162641E+02  0.25964259404E+01 -0.10609508204E+02  0.23674415310E+02  0.00000000000E+00 0.  1.
</event>
<event>
 8    1  0.2401501E-006  0.9118800E+02  0.7816164E-02  0.1184000E+00
        -11   -1    0    0    0    0  0.00000000000E+00  0.00000000000E+00  0.45593999997E+02  0.45594000000E+02  0.51100000000E-03 0. -1.
         11   -1    0    0    0    0 -0.00000000000E+00 -0.00000000000E+00 -0.45593999997E+02  0.45594000000E+02  0.51100000000E-03 0.  1.
         23    2    1    2    0    0  0.00000000000E+00  0.00000000000E+00  0.00000000000E+00  0.91188000000E+02  0.91188000000E+02 0.  0.
    9900012    2    3    3    0    0  0.13531464399E+02  0.32624069099E+02 -0.10409211109E+02  0.54367053661E+02  0.39999930432E+02 0.  0.
        -12    1    3    3    0    0 -0.13531464399E+02 -0.32624069099E+02  0.10409211109E+02  0.36820946339E+02  0.00000000000E+00 0.  1.
         11    1    4    4    0    0  0.78242313664E+01 -0.28900731726E+01 -0.13088490638E+02  0.15520299832E+02  0.51100000000E-03 0.  1.
        -11    1    4    4    0    0  0.58831716894E+01  0.15534292150E+02  0.76031301311E+01  0.18268375127E+02  0.51100000000E-03 0. -1.
         12    1    4    4    0    0 -0.17593865669E+00  0.19979850122E+02 -0.49238506019E+01  0.20578378703E+02  0.00000000000E+00 0. -1.
</event>
<event>
 8    1  0.2401501E-006  0.9118800E+02  0.7816164E-02  0.1184000E+00
        -11   -1    0    0    0    0  0.00000000000E+00  0.00000000000E+00  0.45593999997E+02  0.45594000000E+02  0.51100000000E-03 0.  1.
         11   -1    0    0    0    0 -0.00000000000E+00 -0.00000000000E+00 -0.45593999997E+02  0.45594000000E+02  0.51100000000E-03 0. -1.
         23    2    1    2    0    0 -0.35527136788E-14  0.00000000000E+00  0.35527136788E-14  0.91188000000E+02  0.91188000000E+02 0.  0.
    9900012    2    3    3    0    0  0.18364530590E+02 -0.44638468791E+01 -0.31600607172E+02  0.54367078143E+02  0.39999986243E+02 0.  0.
        -12    1    3    3    0    0 -0.18364530590E+02  0.44638468791E+01  0.31600607172E+02  0.36820921857E+02  0.00000000000E+00 0.  1.
         11    1    4    4    0    0  0.11586003924E+02 -0.15223567709E+02 -0.15429062388E+02  0.24577397486E+02  0.51100000000E-03 0. -1.
        -11    1    4    4    0    0 -0.22103278902E+01  0.97827624836E+00  0.45635015270E+01  0.51641185354E+01  0.51100000000E-03 0.  1.
        -12    1    4    4    0    0  0.89888545552E+01  0.97814445819E+01 -0.20735046311E+02  0.24625562122E+02  0.00000000000E+00 0.  1.
</event>
<event>
 8    1  0.2401501E-006  0.9118800E+02  0.7816164E-02  0.1184000E+00
        -11   -1    0    0    0    0  0.00000000000E+00  0.00000000000E+00  0.45593999997E+02  0.45594000000E+02  0.51100000000E-03 0.  1.
         11   -1    0    0    0    0 -0.00000000000E+00 -0.00000000000E+00 -0.45593999997E+02  0.45594000000E+02  0.51100000000E-03 0. -1.
         23    2    1    2    0    0  0.00000000000E+00  0.26645352591E-14  0.00000000000E+00  0.91188000000E+02  0.91188000000E+02 0.  0.
    9900012    2    3    3    0    0  0.98782346661E+01  0.45734545513E+01  0.35175072794E+02  0.54367058232E+02  0.39999940851E+02 0.  0.
         12    1    3    3    0    0 -0.98782346661E+01 -0.45734545513E+01 -0.35175072794E+02  0.36820941768E+02  0.00000000000E+00 0. -1.
         11    1    4    4    0    0  0.80967782224E+01 -0.16654874456E+01  0.74125119638E+01  0.11103017603E+02  0.51100000000E-03 0. -1.
        -11    1    4    4    0    0  0.16315477402E+01 -0.11953070995E+02  0.28156011602E+01  0.12388117872E+02  0.51100000000E-03 0.  1.
        -12    1    4    4    0    0  0.14990870348E+00  0.18192012992E+02  0.24946959670E+02  0.30875922757E+02  0.00000000000E+00 0.  1.
</event>
<event>
 8    1  0.2401501E-006  0.9118800E+02  0.7816164E-02  0.1184000E+00
        -11   -1    0    0    0    0  0.00000000000E+00  0.00000000000E+00  0.45593999997E+02  0.45594000000E+02  0.51100000000E-03 0.  1.
         11   -1    0    0    0    0 -0.00000000000E+00 -0.00000000000E+00 -0.45593999997E+02  0.45594000000E+02  0.51100000000E-03 0. -1.
         23    2    1    2    0    0  0.35527136788E-14  0.35527136788E-14 -0.35527136788E-14  0.91188000000E+02  0.91188000000E+02 0.  0.
    9900012    2    3    3    0    0  0.20385532475E+02  0.12909521100E+02 -0.27812852201E+02  0.54367076371E+02  0.39999982203E+02 0.  0.
        -12    1    3    3    0    0 -0.20385532475E+02 -0.12909521100E+02  0.27812852201E+02  0.36820923629E+02  0.00000000000E+00 0.  1.
         11    1    4    4    0    0  0.22390739604E+02  0.25995334002E+00 -0.24752233718E+02  0.33377924891E+02  0.51100000000E-03 0. -1.
        -11    1    4    4    0    0  0.26873375095E+01 -0.25732634939E+01  0.20648037644E+01  0.42552182959E+01  0.51100000000E-03 0.  1.
        -12    1    4    4    0    0 -0.46925446391E+01  0.15222831254E+02 -0.51254222478E+01  0.16733933184E+02  0.00000000000E+00 0.  1.
</event>
<event>
 8    1  0.2401501E-006  0.9118800E+02  0.7816164E-02  0.1184000E+00
        -11   -1    0    0    0    0  0.00000000000E+00  0.00000000000E+00  0.45593999997E+02  0.45594000000E+02  0.51100000000E-03 0.  1.
         11   -1    0    0    0    0 -0.00000000000E+00 -0.00000000000E+00 -0.45593999997E+02  0.45594000000E+02  0.51100000000E-03 0. -1.
         23    2    1    2    0    0  0.00000000000E+00  0.00000000000E+00  0.00000000000E+00  0.91188000000E+02  0.91188000000E+02 0.  0.
    9900012    2    3    3    0    0  0.11329638085E+02  0.28119159733E+02 -0.20898168371E+02  0.54367064590E+02  0.39999955345E+02 0.  0.
        -12    1    3    3    0    0 -0.11329638085E+02 -0.28119159733E+02  0.20898168371E+02  0.36820935410E+02  0.00000000000E+00 0.  1.
         11    1    4    4    0    0  0.16615669208E+02  0.23130306706E+02 -0.54376405830E+01  0.28994128490E+02  0.51100000000E-03 0.  1.
        -11    1    4    4    0    0  0.23317482693E+01  0.99148886857E+01 -0.11806858697E+02  0.15593074751E+02  0.51100000000E-03 0. -1.
        -12    1    4    4    0    0 -0.76177793917E+01 -0.49260356581E+01 -0.36536690905E+01  0.97798613482E+01  0.00000000000E+00 0.  1.
</event>
<event>
 8    1  0.2401501E-006  0.9118800E+02  0.7816164E-02  0.1184000E+00
        -11   -1    0    0    0    0  0.00000000000E+00  0.00000000000E+00  0.45593999997E+02  0.45594000000E+02  0.51100000000E-03 0. -1.
         11   -1    0    0    0    0 -0.00000000000E+00 -0.00000000000E+00 -0.45593999997E+02  0.45594000000E+02  0.51100000000E-03 0.  1.
         23    2    1    2    0    0  0.00000000000E+00  0.00000000000E+00  0.00000000000E+00  0.91188000000E+02  0.91188000000E+02 0.  0.
    9900012    2    3    3    0    0 -0.22104515555E+02  0.15323894709E+02 -0.25146553172E+02  0.54367075332E+02  0.39999979835E+02 0.  0.
         12    1    3    3    0    0  0.22104515555E+02 -0.15323894709E+02  0.25146553172E+02  0.36820924668E+02  0.00000000000E+00 0. -1.
         11    1    4    4    0    0  0.95625886552E+00  0.66221322414E+01 -0.11219012121E+02  0.13062668168E+02  0.51100000000E-03 0. -1.
        -11    1    4    4    0    0 -0.19792323227E+02  0.18817529838E+02 -0.57908172648E+01  0.27917182035E+02  0.51100000000E-03 0.  1.
        -12    1    4    4    0    0 -0.32684511934E+01 -0.10115767370E+02 -0.81367237860E+01  0.13387225129E+02  0.00000000000E+00 0.  1.
</event>
<event>
 8    1  0.2401501E-006  0.9118800E+02  0.7816164E-02  0.1184000E+00
        -11   -1    0    0    0    0  0.00000000000E+00  0.00000000000E+00  0.45593999997E+02  0.45594000000E+02  0.51100000000E-03 0.  1.
         11   -1    0    0    0    0 -0.00000000000E+00 -0.00000000000E+00 -0.45593999997E+02  0.45594000000E+02  0.51100000000E-03 0. -1.
         23    2    1    2    0    0  0.00000000000E+00  0.00000000000E+00  0.00000000000E+00  0.91188000000E+02  0.91188000000E+02 0.  0.
    9900012    2    3    3    0    0  0.12884936573E+02  0.22893476845E+02  0.25800126625E+02  0.54367090093E+02  0.40000013484E+02 0.  0.
         12    1    3    3    0    0 -0.12884936573E+02 -0.22893476845E+02 -0.25800126625E+02  0.36820909907E+02  0.00000000000E+00 0. -1.
         11    1    4    4    0    0 -0.19923794127E+01 -0.69002964045E+01  0.31264852901E+01  0.78331715623E+01  0.51100000000E-03 0. -1.
        -11    1    4    4    0    0  0.10897508050E+02  0.28812939772E+02  0.87558288923E+01  0.32025079545E+02  0.51100000000E-03 0.  1.
        -12    1    4    4    0    0  0.39798079359E+01  0.98083347758E+00  0.13917812443E+02  0.14508838986E+02  0.00000000000E+00 0.  1.
</event>
<event>
 8    1  0.2401501E-006  0.9118800E+02  0.7816164E-02  0.1184000E+00
        -11   -1    0    0    0    0  0.00000000000E+00  0.00000000000E+00  0.45593999997E+02  0.45594000000E+02  0.51100000000E-03 0.  1.
         11   -1    0    0    0    0 -0.00000000000E+00 -0.00000000000E+00 -0.45593999997E+02  0.45594000000E+02  0.51100000000E-03 0. -1.
         23    2    1    2    0    0  0.00000000000E+00  0.00000000000E+00  0.00000000000E+00  0.91188000000E+02  0.91188000000E+02 0.  0.
    9900012    2    3    3    0    0 -0.26264298662E+02  0.13880543192E+02 -0.21755394322E+02  0.54367081413E+02  0.39999993698E+02 0.  0.
        -12    1    3    3    0    0  0.26264298662E+02 -0.13880543192E+02  0.21755394322E+02  0.36820918587E+02  0.00000000000E+00 0.  1.
         11    1    4    4    0    0 -0.11497634123E+02  0.21831436590E+02 -0.17470377027E+02  0.30232784982E+02  0.51100000000E-03 0. -1.
        -11    1    4    4    0    0  0.67886535409E+00  0.81610979634E-01 -0.65434419881E+01  0.65790692224E+01  0.51100000000E-03 0.  1.
         12    1    4    4    0    0 -0.15445529893E+02 -0.80325043783E+01  0.22584246938E+01  0.17555227209E+02  0.00000000000E+00 0. -1.
</event>
<event>
 8    1  0.2401501E-006  0.9118800E+02  0.7816164E-02  0.1184000E+00
        -11   -1    0    0    0    0  0.00000000000E+00  0.00000000000E+00  0.45593999997E+02  0.45594000000E+02  0.51100000000E-03 0.  1.
         11   -1    0    0    0    0 -0.00000000000E+00 -0.00000000000E+00 -0.45593999997E+02  0.45594000000E+02  0.51100000000E-03 0. -1.
         23    2    1    2    0    0  0.00000000000E+00 -0.88817841970E-15  0.00000000000E+00  0.91188000000E+02  0.91188000000E+02 0.  0.
    9900012    2    3    3    0    0  0.66585419010E+01 -0.76045767370E+01 -0.35406427732E+02  0.54367069915E+02  0.39999967485E+02 0.  0.
        -12    1    3    3    0    0 -0.66585419010E+01  0.76045767370E+01  0.35406427732E+02  0.36820930085E+02  0.00000000000E+00 0.  1.
         11    1    4    4    0    0  0.71466711456E+01 -0.17403454619E+01 -0.13423202854E+02  0.15306406695E+02  0.51100000000E-03 0. -1.
        -11    1    4    4    0    0 -0.10117858949E+02  0.63893495006E+00 -0.25066162577E+02  0.27038709551E+02  0.51100000000E-03 0.  1.
         12    1    4    4    0    0  0.96297297045E+01 -0.65031662252E+01  0.30829376998E+01  0.12021953668E+02  0.00000000000E+00 0. -1.
</event>
<event>
 8    1  0.2401501E-006  0.9118800E+02  0.7816164E-02  0.1184000E+00
        -11   -1    0    0    0    0  0.00000000000E+00  0.00000000000E+00  0.45593999997E+02  0.45594000000E+02  0.51100000000E-03 0. -1.
         11   -1    0    0    0    0 -0.00000000000E+00 -0.00000000000E+00 -0.45593999997E+02  0.45594000000E+02  0.51100000000E-03 0.  1.
         23    2    1    2    0    0  0.88817841970E-15  0.00000000000E+00  0.17763568394E-14  0.91188000000E+02  0.91188000000E+02 0.  0.
    9900012    2    3    3    0    0 -0.78627240322E+01 -0.33832034719E+02 -0.12220944563E+02  0.54367075399E+02  0.39999979988E+02 0.  0.
         12    1    3    3    0    0  0.78627240322E+01  0.33832034719E+02  0.12220944563E+02  0.36820924601E+02  0.00000000000E+00 0. -1.
         11    1    4    4    0    0 -0.13790794289E+02 -0.79914247441E+01  0.14649380898E+01  0.16006090104E+02  0.51100000000E-03 0. -1.
        -11    1    4    4    0    0 -0.39949100059E+01 -0.22792735634E+02 -0.15460664392E+02  0.27829844544E+02  0.51100000000E-03 0.  1.
         12    1    4    4    0    0  0.99229802627E+01 -0.30478743408E+01  0.17747817391E+01  0.10531140751E+02  0.00000000000E+00 0. -1.
</event>
<event>
 8    1  0.2401501E-006  0.9118800E+02  0.7816164E-02  0.1184000E+00
        -11   -1    0    0    0    0  0.00000000000E+00  0.00000000000E+00  0.45593999997E+02  0.45594000000E+02  0.51100000000E-03 0. -1.
         11   -1    0    0    0    0 -0.00000000000E+00 -0.00000000000E+00 -0.45593999997E+02  0.45594000000E+02  0.51100000000E-03 0.  1.
         23    2    1    2    0    0  0.35527136788E-14  0.00000000000E+00 -0.35527136788E-14  0.91188000000E+02  0.91188000000E+02 0.  0.
    9900012    2    3    3    0    0  0.28276754742E+02  0.16106217383E+02  0.17227750332E+02  0.54367075533E+02  0.39999980292E+02 0.  0.
         12    1    3    3    0    0 -0.28276754742E+02 -0.16106217383E+02 -0.17227750332E+02  0.36820924467E+02  0.00000000000E+00 0. -1.
         11    1    4    4    0    0  0.23820531410E+02  0.75662718338E+01 -0.29255417873E+01  0.25163961952E+02  0.51100000000E-03 0. -1.
        -11    1    4    4    0    0  0.67425473353E+01  0.96587761309E+01  0.34037951113E+01  0.12261309976E+02  0.51100000000E-03 0.  1.
         12    1    4    4    0    0 -0.22863240039E+01 -0.11188305819E+01  0.16749497008E+02  0.16941803604E+02  0.00000000000E+00 0. -1.
</event>
<event>
 8    1  0.2401501E-006  0.9118800E+02  0.7816164E-02  0.1184000E+00
        -11   -1    0    0    0    0  0.00000000000E+00  0.00000000000E+00  0.45593999997E+02  0.45594000000E+02  0.51100000000E-03 0.  1.
         11   -1    0    0    0    0 -0.00000000000E+00 -0.00000000000E+00 -0.45593999997E+02  0.45594000000E+02  0.51100000000E-03 0. -1.
         23    2    1    2    0    0  0.00000000000E+00 -0.71054273576E-14 -0.44408920985E-15  0.91188000000E+02  0.91188000000E+02 0.  0.
    9900012    2    3    3    0    0 -0.24082393336E+01 -0.36672164956E+02  0.22655039515E+01  0.54367084647E+02  0.40000001070E+02 0.  0.
         12    1    3    3    0    0  0.24082393336E+01  0.36672164956E+02 -0.22655039515E+01  0.36820915353E+02  0.00000000000E+00 0. -1.
         11    1    4    4    0    0 -0.75400628205E+01  0.37302526083E+00  0.27955523482E+01  0.80502675965E+01  0.51100000000E-03 0. -1.
        -11    1    4    4    0    0 -0.19924341071E+01 -0.31009710261E+02 -0.10363827696E+02  0.32756386384E+02  0.51100000000E-03 0.  1.
         12    1    4    4    0    0  0.71242575941E+01 -0.60354799562E+01  0.98337792997E+01  0.13560430667E+02  0.00000000000E+00 0. -1.
</event>
<event>
 8    1  0.2401501E-006  0.9118800E+02  0.7816164E-02  0.1184000E+00
        -11   -1    0    0    0    0  0.00000000000E+00  0.00000000000E+00  0.45593999997E+02  0.45594000000E+02  0.51100000000E-03 0.  1.
         11   -1    0    0    0    0 -0.00000000000E+00 -0.00000000000E+00 -0.45593999997E+02  0.45594000000E+02  0.51100000000E-03 0. -1.
         23    2    1    2    0    0  0.00000000000E+00 -0.35527136788E-14  0.00000000000E+00  0.91188000000E+02  0.91188000000E+02 0.  0.
    9900012    2    3    3    0    0  0.23488755420E+02 -0.22434929463E+02 -0.17341725193E+02  0.54367039612E+02  0.39999898404E+02 0.  0.
         12    1    3    3    0    0 -0.23488755420E+02  0.22434929463E+02  0.17341725193E+02  0.36820960388E+02  0.00000000000E+00 0. -1.
         11    1    4    4    0    0  0.10786276798E+02 -0.34012067106E+01 -0.13739681635E+01  0.11392969895E+02  0.51100000000E-03 0. -1.
        -11    1    4    4    0    0  0.17525028782E+02 -0.19905681848E+02 -0.26286185422E+00  0.26522290630E+02  0.51100000000E-03 0.  1.
         12    1    4    4    0    0 -0.48225501591E+01  0.87195909596E+00 -0.15704895175E+02  0.16451779088E+02  0.00000000000E+00 0. -1.
</event>
<event>
 8    1  0.2401501E-006  0.9118800E+02  0.7816164E-02  0.1184000E+00
        -11   -1    0    0    0    0  0.00000000000E+00  0.00000000000E+00  0.45593999997E+02  0.45594000000E+02  0.51100000000E-03 0.  1.
         11   -1    0    0    0    0 -0.00000000000E+00 -0.00000000000E+00 -0.45593999997E+02  0.45594000000E+02  0.51100000000E-03 0. -1.
         23    2    1    2    0    0  0.17763568394E-14  0.00000000000E+00 -0.35527136788E-14  0.91188000000E+02  0.91188000000E+02 0.  0.
    9900012    2    3    3    0    0 -0.10745579888E+02 -0.25886447071E+02 -0.23878943630E+02  0.54367087763E+02  0.40000008173E+02 0.  0.
        -12    1    3    3    0    0  0.10745579888E+02  0.25886447071E+02  0.23878943630E+02  0.36820912237E+02  0.00000000000E+00 0.  1.
         11    1    4    4    0    0 -0.28172683453E+01 -0.18891365813E+02 -0.26377019815E+02  0.32566361138E+02  0.51100000000E-03 0. -1.
        -11    1    4    4    0    0 -0.96431017069E+00  0.24123153403E+01  0.83285866297E+01  0.87243632957E+01  0.51100000000E-03 0.  1.
        -12    1    4    4    0    0 -0.69640013720E+01 -0.94073965983E+01 -0.58305104445E+01  0.13076363329E+02  0.00000000000E+00 0.  1.
</event>
<event>
 8    1  0.2401501E-006  0.9118800E+02  0.7816164E-02  0.1184000E+00
        -11   -1    0    0    0    0  0.00000000000E+00  0.00000000000E+00  0.45593999997E+02  0.45594000000E+02  0.51100000000E-03 0. -1.
         11   -1    0    0    0    0 -0.00000000000E+00 -0.00000000000E+00 -0.45593999997E+02  0.45594000000E+02  0.51100000000E-03 0.  1.
         23    2    1    2    0    0  0.00000000000E+00  0.00000000000E+00  0.00000000000E+00  0.91188000000E+02  0.91188000000E+02 0.  0.
    9900012    2    3    3    0    0  0.13356257694E+02  0.17839613032E+02  0.29311075441E+02  0.54367074479E+02  0.39999977890E+02 0.  0.
        -12    1    3    3    0    0 -0.13356257694E+02 -0.17839613032E+02 -0.29311075441E+02  0.36820925521E+02  0.00000000000E+00 0.  1.
         11    1    4    4    0    0  0.14438357203E+02  0.33288598037E+01  0.24300822297E+02  0.28461859231E+02  0.51100000000E-03 0. -1.
        -11    1    4    4    0    0  0.57118779319E+01  0.10942801788E+02  0.10712991636E+02  0.16344376725E+02  0.51100000000E-03 0.  1.
         12    1    4    4    0    0 -0.67939774407E+01  0.35679514408E+01 -0.57027384923E+01  0.95608385229E+01  0.00000000000E+00 0. -1.
</event>
<event>
 8    1  0.2401501E-006  0.9118800E+02  0.7816164E-02  0.1184000E+00
        -11   -1    0    0    0    0  0.00000000000E+00  0.00000000000E+00  0.45593999997E+02  0.45594000000E+02  0.51100000000E-03 0.  1.
         11   -1    0    0    0    0 -0.00000000000E+00 -0.00000000000E+00 -0.45593999997E+02  0.45594000000E+02  0.51100000000E-03 0. -1.
         23    2    1    2    0    0 -0.35527136788E-14  0.00000000000E+00  0.00000000000E+00  0.91188000000E+02  0.91188000000E+02 0.  0.
    9900012    2    3    3    0    0 -0.72486074565E+01 -0.86116852739E+01  0.35058182873E+02  0.54367087197E+02  0.40000006882E+02 0.  0.
         12    1    3    3    0    0  0.72486074565E+01  0.86116852739E+01 -0.35058182873E+02  0.36820912803E+02  0.00000000000E+00 0. -1.
         11    1    4    4    0    0  0.13611005136E+02 -0.11538278961E+02  0.15983590228E+02  0.23955510828E+02  0.51100000000E-03 0. -1.
        -11    1    4    4    0    0 -0.13378684275E+02  0.62367719688E+01  0.15736967959E+02  0.21576345342E+02  0.51100000000E-03 0.  1.
         12    1    4    4    0    0 -0.74809283171E+01 -0.33101782821E+01  0.33376246862E+01  0.88352310265E+01  0.00000000000E+00 0. -1.
</event>
<event>
 8    1  0.2401501E-006  0.9118800E+02  0.7816164E-02  0.1184000E+00
        -11   -1    0    0    0    0  0.00000000000E+00  0.00000000000E+00  0.45593999997E+02  0.45594000000E+02  0.51100000000E-03 0.  1.
         11   -1    0    0    0    0 -0.00000000000E+00 -0.00000000000E+00 -0.45593999997E+02  0.45594000000E+02  0.51100000000E-03 0. -1.
         23    2    1    2    0    0 -0.17763568394E-14  0.35527136788E-14  0.00000000000E+00  0.91188000000E+02  0.91188000000E+02 0.  0.
    9900012    2    3    3    0    0 -0.13274963822E+02 -0.16989715227E+02  0.29848221593E+02  0.54366926955E+02  0.39999641577E+02 0.  0.
         12    1    3    3    0    0  0.13274963822E+02  0.16989715227E+02 -0.29848221593E+02  0.36821073045E+02  0.00000000000E+00 0. -1.
         11    1    4    4    0    0  0.50618049713E+01  0.96789168949E+01  0.62234876886E+01  0.12571201259E+02  0.51100000000E-03 0. -1.
        -11    1    4    4    0    0 -0.53458025285E+01 -0.13172927967E+01  0.66583667924E+01  0.86398329607E+01  0.51100000000E-03 0.  1.
         12    1    4    4    0    0 -0.12990966265E+02 -0.25351339325E+02  0.16966367112E+02  0.33155892735E+02  0.00000000000E+00 0. -1.
</event>
<event>
 8    1  0.2401501E-006  0.9118800E+02  0.7816164E-02  0.1184000E+00
        -11   -1    0    0    0    0  0.00000000000E+00  0.00000000000E+00  0.45593999997E+02  0.45594000000E+02  0.51100000000E-03 0.  1.
         11   -1    0    0    0    0 -0.00000000000E+00 -0.00000000000E+00 -0.45593999997E+02  0.45594000000E+02  0.51100000000E-03 0. -1.
         23    2    1    2    0    0  0.17763568394E-14  0.71054273576E-14 -0.63837823916E-15  0.91188000000E+02  0.91188000000E+02 0.  0.
    9900012    2    3    3    0    0  0.11374474884E+02  0.35019486456E+02 -0.19355030700E+00  0.54367074261E+02  0.39999977393E+02 0.  0.
         12    1    3    3    0    0 -0.11374474884E+02 -0.35019486456E+02  0.19355030700E+00  0.36820925739E+02  0.00000000000E+00 0. -1.
         11    1    4    4    0    0  0.32552728850E+01 -0.24553083263E+01 -0.63364786880E+01  0.75350051731E+01  0.51100000000E-03 0. -1.
        -11    1    4    4    0    0  0.11744801298E+02  0.36519005737E+02 -0.14235287020E+01  0.38387557512E+02  0.51100000000E-03 0.  1.
         12    1    4    4    0    0 -0.36255992984E+01  0.95578904570E+00  0.75664570830E+01  0.84445115763E+01  0.00000000000E+00 0. -1.
</event>
<event>
 8    1  0.2401501E-006  0.9118800E+02  0.7816164E-02  0.1184000E+00
        -11   -1    0    0    0    0  0.00000000000E+00  0.00000000000E+00  0.45593999997E+02  0.45594000000E+02  0.51100000000E-03 0.  1.
         11   -1    0    0    0    0 -0.00000000000E+00 -0.00000000000E+00 -0.45593999997E+02  0.45594000000E+02  0.51100000000E-03 0. -1.
         23    2    1    2    0    0  0.17763568394E-14 -0.35527136788E-14 -0.17763568394E-14  0.91188000000E+02  0.91188000000E+02 0.  0.
    9900012    2    3    3    0    0  0.12798246820E+02 -0.30704381571E+02 -0.15786684225E+02  0.54367169372E+02  0.40000194216E+02 0.  0.
        -12    1    3    3    0    0 -0.12798246820E+02  0.30704381571E+02  0.15786684225E+02  0.36820830628E+02  0.00000000000E+00 0.  1.
         11    1    4    4    0    0  0.17365009922E+02 -0.18554412597E+02 -0.14603907702E+02  0.29310133347E+02  0.51100000000E-03 0. -1.
        -11    1    4    4    0    0 -0.79362967679E+01 -0.14809101901E+02  0.50004581134E+01  0.17529942587E+02  0.51100000000E-03 0.  1.
        -12    1    4    4    0    0  0.33695336656E+01  0.26591329266E+01 -0.61832346362E+01  0.75270934371E+01  0.00000000000E+00 0.  1.
</event>
<event>
 8    1  0.2401501E-006  0.9118800E+02  0.7816164E-02  0.1184000E+00
        -11   -1    0    0    0    0  0.00000000000E+00  0.00000000000E+00  0.45593999997E+02  0.45594000000E+02  0.51100000000E-03 0.  1.
         11   -1    0    0    0    0 -0.00000000000E+00 -0.00000000000E+00 -0.45593999997E+02  0.45594000000E+02  0.51100000000E-03 0. -1.
         23    2    1    2    0    0  0.00000000000E+00  0.44408920985E-14  0.35527136788E-14  0.91188000000E+02  0.91188000000E+02 0.  0.
    9900012    2    3    3    0    0  0.18554181154E+02  0.50873466454E+01  0.31394844861E+02  0.54367149684E+02  0.40000149333E+02 0.  0.
         12    1    3    3    0    0 -0.18554181154E+02 -0.50873466454E+01 -0.31394844861E+02  0.36820850316E+02  0.00000000000E+00 0. -1.
         11    1    4    4    0    0  0.23381757138E+01 -0.49144084787E+01  0.69982244300E+01  0.88653043827E+01  0.51100000000E-03 0. -1.
        -11    1    4    4    0    0  0.19365776432E+02  0.19987827801E+02  0.16183081290E+02  0.32193767678E+02  0.51100000000E-03 0.  1.
        -12    1    4    4    0    0 -0.31497709915E+01 -0.99860726765E+01  0.82135391410E+01  0.13308077623E+02  0.00000000000E+00 0.  1.
</event>
<event>
 8    1  0.2401501E-006  0.9118800E+02  0.7816164E-02  0.1184000E+00
        -11   -1    0    0    0    0  0.00000000000E+00  0.00000000000E+00  0.45593999997E+02  0.45594000000E+02  0.51100000000E-03 0.  1.
         11   -1    0    0    0    0 -0.00000000000E+00 -0.00000000000E+00 -0.45593999997E+02  0.45594000000E+02  0.51100000000E-03 0. -1.
         23    2    1    2    0    0  0.00000000000E+00  0.00000000000E+00  0.00000000000E+00  0.91188000000E+02  0.91188000000E+02 0.  0.
    9900012    2    3    3    0    0  0.78790329803E+01 -0.19253931565E+02 -0.30380713036E+02  0.54367071630E+02  0.39999971395E+02 0.  0.
        -12    1    3    3    0    0 -0.78790329803E+01  0.19253931565E+02  0.30380713036E+02  0.36820928370E+02  0.00000000000E+00 0.  1.
         11    1    4    4    0    0  0.68066999995E+00  0.12177576035E+01 -0.45984003215E+01  0.48053648153E+01  0.51100000000E-03 0. -1.
        -11    1    4    4    0    0 -0.11115864255E+02 -0.90578091598E+01  0.18973527818E+01  0.14463965319E+02  0.51100000000E-03 0.  1.
         12    1    4    4    0    0  0.18314227236E+02 -0.11413880009E+02 -0.27679665497E+02  0.35097741496E+02  0.00000000000E+00 0. -1.
</event>
<event>
 8    1  0.2401501E-006  0.9118800E+02  0.7816164E-02  0.1184000E+00
        -11   -1    0    0    0    0  0.00000000000E+00  0.00000000000E+00  0.45593999997E+02  0.45594000000E+02  0.51100000000E-03 0.  1.
         11   -1    0    0    0    0 -0.00000000000E+00 -0.00000000000E+00 -0.45593999997E+02  0.45594000000E+02  0.51100000000E-03 0. -1.
         23    2    1    2    0    0  0.00000000000E+00  0.00000000000E+00  0.00000000000E+00  0.91188000000E+02  0.91188000000E+02 0.  0.
    9900012    2    3    3    0    0  0.16989061911E+02  0.11449574063E+02 -0.30595100281E+02  0.54367066660E+02  0.39999960065E+02 0.  0.
        -12    1    3    3    0    0 -0.16989061911E+02 -0.11449574063E+02  0.30595100281E+02  0.36820933340E+02  0.00000000000E+00 0.  1.
         11    1    4    4    0    0  0.99498643453E+01 -0.12344821955E+02 -0.14422449010E+02  0.21433652636E+02  0.51100000000E-03 0. -1.
        -11    1    4    4    0    0  0.94395794028E+01  0.86714624685E+01 -0.41751961126E+01  0.13480807969E+02  0.51100000000E-03 0.  1.
         12    1    4    4    0    0 -0.24003818367E+01  0.15122933549E+02 -0.11997455158E+02  0.19452606056E+02  0.00000000000E+00 0. -1.
</event>
<event>
 8    1  0.2401501E-006  0.9118800E+02  0.7816164E-02  0.1184000E+00
        -11   -1    0    0    0    0  0.00000000000E+00  0.00000000000E+00  0.45593999997E+02  0.45594000000E+02  0.51100000000E-03 0.  1.
         11   -1    0    0    0    0 -0.00000000000E+00 -0.00000000000E+00 -0.45593999997E+02  0.45594000000E+02  0.51100000000E-03 0. -1.
         23    2    1    2    0    0  0.00000000000E+00  0.00000000000E+00  0.11657341759E-14  0.91188000000E+02  0.91188000000E+02 0.  0.
    9900012    2    3    3    0    0 -0.11476956384E+02  0.34985729924E+02  0.23980803208E+00  0.54367091076E+02  0.40000015725E+02 0.  0.
         12    1    3    3    0    0  0.11476956384E+02 -0.34985729924E+02 -0.23980803208E+00  0.36820908924E+02  0.00000000000E+00 0. -1.
         11    1    4    4    0    0  0.44863148356E+01  0.95334748637E+00 -0.53811196011E+00  0.46179494342E+01  0.51100000000E-03 0. -1.
        -11    1    4    4    0    0 -0.66549138466E+01  0.33772432372E+02 -0.96693642836E+01  0.35754183987E+02  0.51100000000E-03 0.  1.
         12    1    4    4    0    0 -0.93083573725E+01  0.25995006485E+00  0.10447284276E+02  0.13994957654E+02  0.00000000000E+00 0. -1.
</event>
<event>
 8    1  0.2401501E-006  0.9118800E+02  0.7816164E-02  0.1184000E+00
        -11   -1    0    0    0    0  0.00000000000E+00  0.00000000000E+00  0.45593999997E+02  0.45594000000E+02  0.51100000000E-03 0.  1.
         11   -1    0    0    0    0 -0.00000000000E+00 -0.00000000000E+00 -0.45593999997E+02  0.45594000000E+02  0.51100000000E-03 0. -1.
         23    2    1    2    0    0 -0.88817841970E-15  0.00000000000E+00  0.71054273576E-14  0.91188000000E+02  0.91188000000E+02 0.  0.
    9900012    2    3    3    0    0 -0.79121189218E+01  0.11283955580E+02  0.34144552709E+02  0.54367085304E+02  0.40000002567E+02 0.  0.
         12    1    3    3    0    0  0.79121189218E+01 -0.11283955580E+02 -0.34144552709E+02  0.36820914696E+02  0.00000000000E+00 0. -1.
         11    1    4    4    0    0 -0.69083326129E+01 -0.93348357549E+01  0.17870665824E+02  0.21312552999E+02  0.51100000000E-03 0. -1.
        -11    1    4    4    0    0 -0.86651900528E+01  0.56664116971E+01  0.11738881612E+02  0.15652318740E+02  0.51100000000E-03 0.  1.
        -12    1    4    4    0    0  0.76614037438E+01  0.14952379637E+02  0.45350052731E+01  0.17402213565E+02  0.00000000000E+00 0.  1.
</event>
<event>
 8    1  0.2401501E-006  0.9118800E+02  0.7816164E-02  0.1184000E+00
        -11   -1    0    0    0    0  0.00000000000E+00  0.00000000000E+00  0.45593999997E+02  0.45594000000E+02  0.51100000000E-03 0.  1.
         11   -1    0    0    0    0 -0.00000000000E+00 -0.00000000000E+00 -0.45593999997E+02  0.45594000000E+02  0.51100000000E-03 0. -1.
         23    2    1    2    0    0 -0.17763568394E-14  0.00000000000E+00  0.00000000000E+00  0.91188000000E+02  0.91188000000E+02 0.  0.
    9900012    2    3    3    0    0  0.89585953456E+01 -0.10546235058E+02  0.34121681496E+02  0.54367236121E+02  0.40000346384E+02 0.  0.
         12    1    3    3    0    0 -0.89585953456E+01  0.10546235058E+02 -0.34121681496E+02  0.36820763879E+02  0.00000000000E+00 0. -1.
         11    1    4    4    0    0  0.52997403619E+01 -0.34409244978E+01  0.16157899525E+02  0.17349493555E+02  0.51100000000E-03 0. -1.
        -11    1    4    4    0    0  0.25527996812E+01 -0.17187633233E+02  0.20185661584E+02  0.26634422393E+02  0.51100000000E-03 0.  1.
         12    1    4    4    0    0  0.11060553025E+01  0.10082322673E+02 -0.22218796122E+01  0.10383320173E+02  0.00000000000E+00 0. -1.
</event>
<event>
 8    1  0.2401501E-006  0.9118800E+02  0.7816164E-02  0.1184000E+00
        -11   -1    0    0    0    0  0.00000000000E+00  0.00000000000E+00  0.45593999997E+02  0.45594000000E+02  0.51100000000E-03 0. -1.
         11   -1    0    0    0    0 -0.00000000000E+00 -0.00000000000E+00 -0.45593999997E+02  0.45594000000E+02  0.51100000000E-03 0.  1.
         23    2    1    2    0    0 -0.17763568394E-14  0.00000000000E+00  0.88817841970E-15  0.91188000000E+02  0.91188000000E+02 0.  0.
    9900012    2    3    3    0    0  0.12237112412E+02  0.34505710256E+02 -0.39227702337E+01  0.54367094433E+02  0.40000023379E+02 0.  0.
        -12    1    3    3    0    0 -0.12237112412E+02 -0.34505710256E+02  0.39227702337E+01  0.36820905567E+02  0.00000000000E+00 0.  1.
         11    1    4    4    0    0  0.12647172091E+02  0.39451319423E+02  0.46053265120E+01  0.41684128858E+02  0.51100000000E-03 0. -1.
        -11    1    4    4    0    0  0.86255250448E+00 -0.69330966655E+01 -0.58401509096E+01  0.91059974250E+01  0.51100000000E-03 0.  1.
         12    1    4    4    0    0 -0.12726121830E+01  0.19874874985E+01 -0.26879458360E+01  0.35769681495E+01  0.00000000000E+00 0. -1.
</event>
<event>
 8    1  0.2401501E-006  0.9118800E+02  0.7816164E-02  0.1184000E+00
        -11   -1    0    0    0    0  0.00000000000E+00  0.00000000000E+00  0.45593999997E+02  0.45594000000E+02  0.51100000000E-03 0.  1.
         11   -1    0    0    0    0 -0.00000000000E+00 -0.00000000000E+00 -0.45593999997E+02  0.45594000000E+02  0.51100000000E-03 0. -1.
         23    2    1    2    0    0  0.44408920985E-15  0.00000000000E+00 -0.17763568394E-14  0.91188000000E+02  0.91188000000E+02 0.  0.
    9900012    2    3    3    0    0 -0.17516515420E+01  0.33227981845E+02 -0.15767459971E+02  0.54367084007E+02  0.39999999611E+02 0.  0.
        -12    1    3    3    0    0  0.17516515420E+01 -0.33227981845E+02  0.15767459971E+02  0.36820915993E+02  0.00000000000E+00 0.  1.
         11    1    4    4    0    0  0.90876549015E+01  0.26843666902E+02 -0.19012139598E+02  0.34126666650E+02  0.51100000000E-03 0. -1.
        -11    1    4    4    0    0 -0.23204328421E+01 -0.25973629536E+01  0.65580765664E+01  0.74255687593E+01  0.51100000000E-03 0.  1.
        -12    1    4    4    0    0 -0.85188736013E+01  0.89816778973E+01 -0.33133969396E+01  0.12814848597E+02  0.00000000000E+00 0.  1.
</event>
<event>
 8    1  0.2401501E-006  0.9118800E+02  0.7816164E-02  0.1184000E+00
        -11   -1    0    0    0    0  0.00000000000E+00  0.00000000000E+00  0.45593999997E+02  0.45594000000E+02  0.51100000000E-03 0. -1.
         11   -1    0    0    0    0 -0.00000000000E+00 -0.00000000000E+00 -0.45593999997E+02  0.45594000000E+02  0.51100000000E-03 0.  1.
         23    2    1    2    0    0  0.00000000000E+00  0.00000000000E+00 -0.17763568394E-14  0.91188000000E+02  0.91188000000E+02 0.  0.
    9900012    2    3    3    0    0  0.26674173592E+02 -0.19733663834E+02 -0.15964063169E+02  0.54367077442E+02  0.39999984645E+02 0.  0.
         12    1    3    3    0    0 -0.26674173592E+02  0.19733663834E+02  0.15964063169E+02  0.36820922558E+02  0.00000000000E+00 0. -1.
         11    1    4    4    0    0 -0.77714443309E+01  0.40074372491E+01 -0.32088742405E+01  0.93140632619E+01  0.51100000000E-03 0. -1.
        -11    1    4    4    0    0  0.21997365736E+02 -0.10298933846E+02 -0.10951343888E+02  0.26643649730E+02  0.51100000000E-03 0.  1.
         12    1    4    4    0    0  0.12448252187E+02 -0.13442167237E+02 -0.18038450398E+01  0.18409364451E+02  0.00000000000E+00 0. -1.
</event>
<event>
 8    1  0.2401501E-006  0.9118800E+02  0.7816164E-02  0.1184000E+00
        -11   -1    0    0    0    0  0.00000000000E+00  0.00000000000E+00  0.45593999997E+02  0.45594000000E+02  0.51100000000E-03 0.  1.
         11   -1    0    0    0    0 -0.00000000000E+00 -0.00000000000E+00 -0.45593999997E+02  0.45594000000E+02  0.51100000000E-03 0. -1.
         23    2    1    2    0    0  0.00000000000E+00  0.00000000000E+00 -0.35527136788E-14  0.91188000000E+02  0.91188000000E+02 0.  0.
    9900012    2    3    3    0    0 -0.11836159917E+02 -0.20515226815E+02  0.28192397323E+02  0.54367075519E+02  0.39999980260E+02 0.  0.
         12    1    3    3    0    0  0.11836159917E+02  0.20515226815E+02 -0.28192397323E+02  0.36820924481E+02  0.00000000000E+00 0. -1.
         11    1    4    4    0    0  0.30086543289E+00 -0.18705479977E+02  0.65041911753E+01  0.19806312234E+02  0.51100000000E-03 0. -1.
        -11    1    4    4    0    0 -0.89277638987E+01 -0.10614360949E+02  0.20996619162E+02  0.25164014844E+02  0.51100000000E-03 0.  1.
         12    1    4    4    0    0 -0.32092614509E+01  0.88046141113E+01  0.69158698577E+00  0.93967484412E+01  0.00000000000E+00 0. -1.
</event>
<event>
 8    1  0.2401501E-006  0.9118800E+02  0.7816164E-02  0.1184000E+00
        -11   -1    0    0    0    0  0.00000000000E+00  0.00000000000E+00  0.45593999997E+02  0.45594000000E+02  0.51100000000E-03 0. -1.
         11   -1    0    0    0    0 -0.00000000000E+00 -0.00000000000E+00 -0.45593999997E+02  0.45594000000E+02  0.51100000000E-03 0.  1.
         23    2    1    2    0    0  0.00000000000E+00  0.00000000000E+00  0.00000000000E+00  0.91188000000E+02  0.91188000000E+02 0.  0.
    9900012    2    3    3    0    0  0.25491429300E+02  0.10517718901E+02  0.24399681916E+02  0.54367083984E+02  0.39999999559E+02 0.  0.
        -12    1    3    3    0    0 -0.25491429300E+02 -0.10517718901E+02 -0.24399681916E+02  0.36820916016E+02  0.00000000000E+00 0.  1.
         11    1    4    4    0    0  0.99517263335E+01  0.66817901554E+01  0.41281873549E+01  0.12677740642E+02  0.51100000000E-03 0. -1.
        -11    1    4    4    0    0  0.48292069322E+01  0.48971053754E+01  0.27745898181E+02  0.28585621329E+02  0.51100000000E-03 0.  1.
        -12    1    4    4    0    0  0.10710496034E+02 -0.10611766299E+01 -0.74744036192E+01  0.13103722013E+02  0.00000000000E+00 0.  1.
</event>
<event>
 8    1  0.2401501E-006  0.9118800E+02  0.7816164E-02  0.1184000E+00
        -11   -1    0    0    0    0  0.00000000000E+00  0.00000000000E+00  0.45593999997E+02  0.45594000000E+02  0.51100000000E-03 0. -1.
         11   -1    0    0    0    0 -0.00000000000E+00 -0.00000000000E+00 -0.45593999997E+02  0.45594000000E+02  0.51100000000E-03 0.  1.
         23    2    1    2    0    0  0.00000000000E+00 -0.17763568394E-14  0.00000000000E+00  0.91188000000E+02  0.91188000000E+02 0.  0.
    9900012    2    3    3    0    0  0.11650159961E+02  0.80266302655E+01 -0.33994531964E+02  0.54367065412E+02  0.39999957219E+02 0.  0.
         12    1    3    3    0    0 -0.11650159961E+02 -0.80266302655E+01  0.33994531964E+02  0.36820934588E+02  0.00000000000E+00 0. -1.
         11    1    4    4    0    0 -0.55036936264E+01 -0.22678512970E+01  0.46510137640E+01  0.75541857491E+01  0.51100000000E-03 0. -1.
        -11    1    4    4    0    0  0.21506405753E+01 -0.37147938165E+01 -0.14495845681E+02  0.15118018728E+02  0.51100000000E-03 0.  1.
        -12    1    4    4    0    0  0.15003213012E+02  0.14009275379E+02 -0.24149700047E+02  0.31694860935E+02  0.00000000000E+00 0.  1.
</event>
<event>
 8    1  0.2401501E-006  0.9118800E+02  0.7816164E-02  0.1184000E+00
        -11   -1    0    0    0    0  0.00000000000E+00  0.00000000000E+00  0.45593999997E+02  0.45594000000E+02  0.51100000000E-03 0. -1.
         11   -1    0    0    0    0 -0.00000000000E+00 -0.00000000000E+00 -0.45593999997E+02  0.45594000000E+02  0.51100000000E-03 0.  1.
         23    2    1    2    0    0  0.17763568394E-14 -0.35527136788E-14 -0.71054273576E-14  0.91188000000E+02  0.91188000000E+02 0.  0.
    9900012    2    3    3    0    0  0.13789105506E+02 -0.81137677488E+01 -0.33163343688E+02  0.54367081729E+02  0.39999994417E+02 0.  0.
         12    1    3    3    0    0 -0.13789105506E+02  0.81137677488E+01  0.33163343688E+02  0.36820918271E+02  0.00000000000E+00 0. -1.
         11    1    4    4    0    0 -0.10222220665E+01  0.84963963891E-01  0.21699671763E+01  0.24001905416E+01  0.51100000000E-03 0. -1.
        -11    1    4    4    0    0  0.94676924581E+01 -0.19940170123E+01  0.49441669162E+01  0.10865454021E+02  0.51100000000E-03 0.  1.
         12    1    4    4    0    0  0.53436351149E+01 -0.62047147004E+01 -0.40277477781E+02  0.41101437166E+02  0.00000000000E+00 0. -1.
</event>
<event>
 8    1  0.2401501E-006  0.9118800E+02  0.7816164E-02  0.1184000E+00
        -11   -1    0    0    0    0  0.00000000000E+00  0.00000000000E+00  0.45593999997E+02  0.45594000000E+02  0.51100000000E-03 0.  1.
         11   -1    0    0    0    0 -0.00000000000E+00 -0.00000000000E+00 -0.45593999997E+02  0.45594000000E+02  0.51100000000E-03 0. -1.
         23    2    1    2    0    0  0.00000000000E+00  0.00000000000E+00  0.00000000000E+00  0.91188000000E+02  0.91188000000E+02 0.  0.
    9900012    2    3    3    0    0  0.13269515632E+02  0.34208439159E+02  0.30795149370E+01  0.54367071616E+02  0.39999971364E+02 0.  0.
        -12    1    3    3    0    0 -0.13269515632E+02 -0.34208439159E+02 -0.30795149370E+01  0.36820928384E+02  0.00000000000E+00 0.  1.
         11    1    4    4    0    0  0.64377363302E+01 -0.31036983915E+01  0.38005261431E+01  0.80945285217E+01  0.51100000000E-03 0. -1.
        -11    1    4    4    0    0 -0.86657525442E+01  0.57584938405E+01  0.32367486368E+01  0.10896424206E+02  0.51100000000E-03 0.  1.
         12    1    4    4    0    0  0.15497531846E+02  0.31553643710E+02 -0.39577598429E+01  0.35376118889E+02  0.00000000000E+00 0. -1.
</event>
<event>
 8    1  0.2401501E-006  0.9118800E+02  0.7816164E-02  0.1184000E+00
        -11   -1    0    0    0    0  0.00000000000E+00  0.00000000000E+00  0.45593999997E+02  0.45594000000E+02  0.51100000000E-03 0.  1.
         11   -1    0    0    0    0 -0.00000000000E+00 -0.00000000000E+00 -0.45593999997E+02  0.45594000000E+02  0.51100000000E-03 0. -1.
         23    2    1    2    0    0  0.00000000000E+00  0.35527136788E-14 -0.53290705182E-14  0.91188000000E+02  0.91188000000E+02 0.  0.
    9900012    2    3    3    0    0  0.15049403526E+02 -0.30136141927E+02  0.14869722197E+02  0.54367078842E+02  0.39999987836E+02 0.  0.
        -12    1    3    3    0    0 -0.15049403526E+02  0.30136141927E+02 -0.14869722197E+02  0.36820921158E+02  0.00000000000E+00 0.  1.
         11    1    4    4    0    0  0.99976373535E+01 -0.23621585216E+01 -0.10368942661E+01  0.10325100266E+02  0.51100000000E-03 0. -1.
        -11    1    4    4    0    0  0.13448871649E+02 -0.89215619296E+01 -0.25691401035E+01  0.16342181526E+02  0.51100000000E-03 0.  1.
        -12    1    4    4    0    0 -0.83971054767E+01 -0.18852421475E+02  0.18475756567E+02  0.27699797050E+02  0.00000000000E+00 0.  1.
</event>
<event>
 8    1  0.2401501E-006  0.9118800E+02  0.7816164E-02  0.1184000E+00
        -11   -1    0    0    0    0  0.00000000000E+00  0.00000000000E+00  0.45593999997E+02  0.45594000000E+02  0.51100000000E-03 0.  1.
         11   -1    0    0    0    0 -0.00000000000E+00 -0.00000000000E+00 -0.45593999997E+02  0.45594000000E+02  0.51100000000E-03 0. -1.
         23    2    1    2    0    0 -0.71054273576E-14  0.00000000000E+00 -0.17763568394E-14  0.91188000000E+02  0.91188000000E+02 0.  0.
    9900012    2    3    3    0    0  0.34850947033E+02 -0.82944906104E+01  0.85081429449E+01  0.54367142053E+02  0.40000131939E+02 0.  0.
         12    1    3    3    0    0 -0.34850947033E+02  0.82944906104E+01 -0.85081429449E+01  0.36820857947E+02  0.00000000000E+00 0. -1.
         11    1    4    4    0    0 -0.19342238982E+01 -0.88709383774E+00 -0.18392830927E+01  0.28126713498E+01  0.51100000000E-03 0. -1.
        -11    1    4    4    0    0  0.41040045571E+02 -0.24121684947E+01  0.14722912625E+02  0.43667700349E+02  0.51100000000E-03 0.  1.
        -12    1    4    4    0    0 -0.42548746402E+01 -0.49952282779E+01 -0.43754865874E+01  0.78867703548E+01  0.00000000000E+00 0.  1.
</event>
<event>
 8    1  0.2401501E-006  0.9118800E+02  0.7816164E-02  0.1184000E+00
        -11   -1    0    0    0    0  0.00000000000E+00  0.00000000000E+00  0.45593999997E+02  0.45594000000E+02  0.51100000000E-03 0. -1.
         11   -1    0    0    0    0 -0.00000000000E+00 -0.00000000000E+00 -0.45593999997E+02  0.45594000000E+02  0.51100000000E-03 0.  1.
         23    2    1    2    0    0 -0.66613381478E-15  0.00000000000E+00  0.71054273576E-14  0.91188000000E+02  0.91188000000E+02 0.  0.
    9900012    2    3    3    0    0  0.80506315345E+00  0.99334332013E+01 -0.35446573320E+02  0.54367071414E+02  0.39999970902E+02 0.  0.
         12    1    3    3    0    0 -0.80506315345E+00 -0.99334332013E+01  0.35446573320E+02  0.36820928586E+02  0.00000000000E+00 0. -1.
         11    1    4    4    0    0 -0.68455274295E+01  0.82162845307E+01 -0.55501075550E+01  0.12048745636E+02  0.51100000000E-03 0. -1.
        -11    1    4    4    0    0  0.88073476973E+01  0.29095160962E+01 -0.35386758544E+02  0.36582199741E+02  0.51100000000E-03 0.  1.
         12    1    4    4    0    0 -0.11567571144E+01 -0.11923674255E+01  0.54902927794E+01  0.57361260362E+01  0.00000000000E+00 0. -1.
</event>
<event>
 8    1  0.2401501E-006  0.9118800E+02  0.7816164E-02  0.1184000E+00
        -11   -1    0    0    0    0  0.00000000000E+00  0.00000000000E+00  0.45593999997E+02  0.45594000000E+02  0.51100000000E-03 0.  1.
         11   -1    0    0    0    0 -0.00000000000E+00 -0.00000000000E+00 -0.45593999997E+02  0.45594000000E+02  0.51100000000E-03 0. -1.
         23    2    1    2    0    0  0.17763568394E-14 -0.71054273576E-14  0.00000000000E+00  0.91188000000E+02  0.91188000000E+02 0.  0.
    9900012    2    3    3    0    0  0.98143953579E+01  0.26759354814E+02 -0.23310829599E+02  0.54367079277E+02  0.39999988828E+02 0.  0.
        -12    1    3    3    0    0 -0.98143953579E+01 -0.26759354814E+02  0.23310829599E+02  0.36820920723E+02  0.00000000000E+00 0.  1.
         11    1    4    4    0    0  0.12321578952E+02  0.19905462951E+02 -0.29026907122E+00  0.23412240806E+02  0.51100000000E-03 0. -1.
        -11    1    4    4    0    0  0.30957394949E+01 -0.38906727131E+01 -0.16419613140E+02  0.17155892081E+02  0.51100000000E-03 0.  1.
        -12    1    4    4    0    0 -0.56029230887E+01  0.10744564576E+02 -0.66009473880E+01  0.13798946390E+02  0.00000000000E+00 0.  1.
</event>
<event>
 8    1  0.2401501E-006  0.9118800E+02  0.7816164E-02  0.1184000E+00
        -11   -1    0    0    0    0  0.00000000000E+00  0.00000000000E+00  0.45593999997E+02  0.45594000000E+02  0.51100000000E-03 0.  1.
         11   -1    0    0    0    0 -0.00000000000E+00 -0.00000000000E+00 -0.45593999997E+02  0.45594000000E+02  0.51100000000E-03 0. -1.
         23    2    1    2    0    0 -0.11102230246E-14  0.00000000000E+00  0.00000000000E+00  0.91188000000E+02  0.91188000000E+02 0.  0.
    9900012    2    3    3    0    0  0.19921886514E+01 -0.14864762625E+02 -0.33628148809E+02  0.54367049770E+02  0.39999921561E+02 0.  0.
        -12    1    3    3    0    0 -0.19921886514E+01  0.14864762625E+02  0.33628148809E+02  0.36820950230E+02  0.00000000000E+00 0.  1.
         11    1    4    4    0    0  0.62565365907E+01 -0.33900379907E+01 -0.18048127120E+02  0.19400296402E+02  0.51100000000E-03 0. -1.
        -11    1    4    4    0    0 -0.14662520790E+02 -0.86406085219E+01 -0.17048792689E+02  0.24089644330E+02  0.51100000000E-03 0.  1.
         12    1    4    4    0    0  0.10398172850E+02 -0.28341161127E+01  0.14687710005E+01  0.10877109038E+02  0.00000000000E+00 0. -1.
</event>
<event>
 8    1  0.2401501E-006  0.9118800E+02  0.7816164E-02  0.1184000E+00
        -11   -1    0    0    0    0  0.00000000000E+00  0.00000000000E+00  0.45593999997E+02  0.45594000000E+02  0.51100000000E-03 0.  1.
         11   -1    0    0    0    0 -0.00000000000E+00 -0.00000000000E+00 -0.45593999997E+02  0.45594000000E+02  0.51100000000E-03 0. -1.
         23    2    1    2    0    0  0.35527136788E-14  0.00000000000E+00 -0.17763568394E-14  0.91188000000E+02  0.91188000000E+02 0.  0.
    9900012    2    3    3    0    0  0.24816282856E+02 -0.24717642860E+02 -0.11356489624E+02  0.54367087194E+02  0.40000006875E+02 0.  0.
        -12    1    3    3    0    0 -0.24816282856E+02  0.24717642860E+02  0.11356489624E+02  0.36820912806E+02  0.00000000000E+00 0.  1.
         11    1    4    4    0    0 -0.18529661332E+01 -0.14188990009E+02 -0.60134062613E+00  0.14322099419E+02  0.51100000000E-03 0. -1.
        -11    1    4    4    0    0  0.44753690511E-01 -0.49983326534E+01  0.62269843356E+01  0.79850276383E+01  0.51100000000E-03 0.  1.
         12    1    4    4    0    0  0.26624495299E+02 -0.55303201974E+01 -0.16982133333E+02  0.32059960136E+02  0.00000000000E+00 0. -1.
</event>
<event>
 8    1  0.2401501E-006  0.9118800E+02  0.7816164E-02  0.1184000E+00
        -11   -1    0    0    0    0  0.00000000000E+00  0.00000000000E+00  0.45593999997E+02  0.45594000000E+02  0.51100000000E-03 0. -1.
         11   -1    0    0    0    0 -0.00000000000E+00 -0.00000000000E+00 -0.45593999997E+02  0.45594000000E+02  0.51100000000E-03 0.  1.
         23    2    1    2    0    0 -0.35527136788E-14  0.17763568394E-14  0.00000000000E+00  0.91188000000E+02  0.91188000000E+02 0.  0.
    9900012    2    3    3    0    0 -0.29398497043E+02 -0.12355332327E+02 -0.18407994545E+02  0.54367080287E+02  0.39999991131E+02 0.  0.
        -12    1    3    3    0    0  0.29398497043E+02  0.12355332327E+02  0.18407994545E+02  0.36820919713E+02  0.00000000000E+00 0.  1.
         11    1    4    4    0    0 -0.12017002843E+02  0.46686939373E+01 -0.12440746238E+02  0.17915837341E+02  0.51100000000E-03 0. -1.
        -11    1    4    4    0    0 -0.17712281926E+02 -0.22153663016E+02 -0.98325692167E+01  0.30019812354E+02  0.51100000000E-03 0.  1.
         12    1    4    4    0    0  0.33078772603E+00  0.51296367526E+01  0.38653209098E+01  0.64314305927E+01  0.00000000000E+00 0. -1.
</event>
<event>
 8    1  0.2401501E-006  0.9118800E+02  0.7816164E-02  0.1184000E+00
        -11   -1    0    0    0    0  0.00000000000E+00  0.00000000000E+00  0.45593999997E+02  0.45594000000E+02  0.51100000000E-03 0.  1.
         11   -1    0    0    0    0 -0.00000000000E+00 -0.00000000000E+00 -0.45593999997E+02  0.45594000000E+02  0.51100000000E-03 0. -1.
         23    2    1    2    0    0  0.00000000000E+00 -0.88817841970E-15  0.17763568394E-14  0.91188000000E+02  0.91188000000E+02 0.  0.
    9900012    2    3    3    0    0  0.34280051064E+02  0.69173043898E+01 -0.11524304127E+02  0.54367074067E+02  0.39999976950E+02 0.  0.
        -12    1    3    3    0    0 -0.34280051064E+02 -0.69173043898E+01  0.11524304127E+02  0.36820925933E+02  0.00000000000E+00 0.  1.
         11    1    4    4    0    0  0.70696326285E+01  0.13646010898E+02 -0.71290287951E+01  0.16941557507E+02  0.51100000000E-03 0. -1.
        -11    1    4    4    0    0  0.16120771898E+01  0.20149299788E+01 -0.95463832643E+01  0.98889923337E+01  0.51100000000E-03 0.  1.
        -12    1    4    4    0    0  0.25598341246E+02 -0.87436364868E+01  0.51511079323E+01  0.27536524226E+02  0.00000000000E+00 0.  1.
</event>
<event>
 8    1  0.2401501E-006  0.9118800E+02  0.7816164E-02  0.1184000E+00
        -11   -1    0    0    0    0  0.00000000000E+00  0.00000000000E+00  0.45593999997E+02  0.45594000000E+02  0.51100000000E-03 0.  1.
         11   -1    0    0    0    0 -0.00000000000E+00 -0.00000000000E+00 -0.45593999997E+02  0.45594000000E+02  0.51100000000E-03 0. -1.
         23    2    1    2    0    0 -0.35527136788E-14 -0.66613381478E-15  0.00000000000E+00  0.91188000000E+02  0.91188000000E+02 0.  0.
    9900012    2    3    3    0    0 -0.30051897670E+02 -0.53970542905E+00 -0.21269031286E+02  0.54367088450E+02  0.40000009740E+02 0.  0.
        -12    1    3    3    0    0  0.30051897670E+02  0.53970542905E+00  0.21269031286E+02  0.36820911550E+02  0.00000000000E+00 0.  1.
         11    1    4    4    0    0 -0.18933342349E+02 -0.75769594730E+01 -0.23591929990E+02  0.31184305800E+02  0.51100000000E-03 0. -1.
        -11    1    4    4    0    0 -0.49921017600E+01  0.24403936876E+00  0.10039635292E+02  0.11214941473E+02  0.51100000000E-03 0.  1.
        -12    1    4    4    0    0 -0.61264535613E+01  0.67932146752E+01 -0.77167365877E+01  0.11967841177E+02  0.00000000000E+00 0.  1.
</event>
<event>
 8    1  0.2401501E-006  0.9118800E+02  0.7816164E-02  0.1184000E+00
        -11   -1    0    0    0    0  0.00000000000E+00  0.00000000000E+00  0.45593999997E+02  0.45594000000E+02  0.51100000000E-03 0.  1.
         11   -1    0    0    0    0 -0.00000000000E+00 -0.00000000000E+00 -0.45593999997E+02  0.45594000000E+02  0.51100000000E-03 0. -1.
         23    2    1    2    0    0  0.00000000000E+00  0.00000000000E+00  0.00000000000E+00  0.91188000000E+02  0.91188000000E+02 0.  0.
    9900012    2    3    3    0    0  0.23183611642E+02  0.22381666486E+02 -0.17814571969E+02  0.54367111664E+02  0.40000062660E+02 0.  0.
        -12    1    3    3    0    0 -0.23183611642E+02 -0.22381666486E+02  0.17814571969E+02  0.36820888336E+02  0.00000000000E+00 0.  1.
         11    1    4    4    0    0  0.87268777118E+01 -0.30776252413E+01 -0.10135407011E+02  0.13724308626E+02  0.51100000000E-03 0. -1.
        -11    1    4    4    0    0 -0.77265861917E+01  0.98331253944E+01 -0.24336224903E+00  0.12507986035E+02  0.51100000000E-03 0.  1.
        -12    1    4    4    0    0  0.22183320121E+02  0.15626166333E+02 -0.74358027088E+01  0.28134817003E+02  0.00000000000E+00 0.  1.
</event>
<event>
 8    1  0.2401501E-006  0.9118800E+02  0.7816164E-02  0.1184000E+00
        -11   -1    0    0    0    0  0.00000000000E+00  0.00000000000E+00  0.45593999997E+02  0.45594000000E+02  0.51100000000E-03 0.  1.
         11   -1    0    0    0    0 -0.00000000000E+00 -0.00000000000E+00 -0.45593999997E+02  0.45594000000E+02  0.51100000000E-03 0. -1.
         23    2    1    2    0    0  0.44408920985E-15  0.00000000000E+00  0.00000000000E+00  0.91188000000E+02  0.91188000000E+02 0.  0.
    9900012    2    3    3    0    0  0.18119855650E+01 -0.34184089514E+02  0.13562591380E+02  0.54367093540E+02  0.40000021343E+02 0.  0.
         12    1    3    3    0    0 -0.18119855650E+01  0.34184089514E+02 -0.13562591380E+02  0.36820906460E+02  0.00000000000E+00 0. -1.
         11    1    4    4    0    0 -0.48252817288E+01 -0.17079537169E+01 -0.28468077069E+01  0.58570268944E+01  0.51100000000E-03 0. -1.
        -11    1    4    4    0    0 -0.24805431687E+00 -0.36585444851E+02  0.17247740138E+02  0.40448001755E+02  0.51100000000E-03 0.  1.
        -12    1    4    4    0    0  0.68853216107E+01  0.41093090533E+01 -0.83834105173E+00  0.80620648904E+01  0.00000000000E+00 0.  1.
</event>
<event>
 8    1  0.2401501E-006  0.9118800E+02  0.7816164E-02  0.1184000E+00
        -11   -1    0    0    0    0  0.00000000000E+00  0.00000000000E+00  0.45593999997E+02  0.45594000000E+02  0.51100000000E-03 0.  1.
         11   -1    0    0    0    0 -0.00000000000E+00 -0.00000000000E+00 -0.45593999997E+02  0.45594000000E+02  0.51100000000E-03 0. -1.
         23    2    1    2    0    0 -0.88817841970E-15 -0.35527136788E-14  0.35527136788E-14  0.91188000000E+02  0.91188000000E+02 0.  0.
    9900012    2    3    3    0    0  0.58398808919E+01  0.28467415747E+02  0.22611528126E+02  0.54367093271E+02  0.40000020730E+02 0.  0.
         12    1    3    3    0    0 -0.58398808919E+01 -0.28467415747E+02 -0.22611528126E+02  0.36820906729E+02  0.00000000000E+00 0. -1.
         11    1    4    4    0    0 -0.10903289429E+01  0.19849530060E+02 -0.66502554511E+01  0.20962312816E+02  0.51100000000E-03 0. -1.
        -11    1    4    4    0    0 -0.17532733567E+01  0.69112160561E+01  0.15213491172E+02  0.16801463886E+02  0.51100000000E-03 0.  1.
         12    1    4    4    0    0  0.86834831914E+01  0.17066696319E+01  0.14048292405E+02  0.16603316568E+02  0.00000000000E+00 0. -1.
</event>
<event>
 8    1  0.2401501E-006  0.9118800E+02  0.7816164E-02  0.1184000E+00
        -11   -1    0    0    0    0  0.00000000000E+00  0.00000000000E+00  0.45593999997E+02  0.45594000000E+02  0.51100000000E-03 0.  1.
         11   -1    0    0    0    0 -0.00000000000E+00 -0.00000000000E+00 -0.45593999997E+02  0.45594000000E+02  0.51100000000E-03 0. -1.
         23    2    1    2    0    0  0.00000000000E+00  0.00000000000E+00  0.35527136788E-14  0.91188000000E+02  0.91188000000E+02 0.  0.
    9900012    2    3    3    0    0 -0.13898860911E+02 -0.29354341712E+02  0.17347167504E+02  0.54367082950E+02  0.39999997202E+02 0.  0.
         12    1    3    3    0    0  0.13898860911E+02  0.29354341712E+02 -0.17347167504E+02  0.36820917050E+02  0.00000000000E+00 0. -1.
         11    1    4    4    0    0 -0.63261138307E+01 -0.11950496737E+02 -0.51965407371E+01  0.14485790429E+02  0.51100000000E-03 0. -1.
        -11    1    4    4    0    0 -0.76375029475E+01 -0.23982248902E+02  0.21731473360E+02  0.33252618668E+02  0.51100000000E-03 0.  1.
         12    1    4    4    0    0  0.64755867399E-01  0.65784039265E+01  0.81223488055E+00  0.66286738526E+01  0.00000000000E+00 0. -1.
</event>
<event>
 8    1  0.2401501E-006  0.9118800E+02  0.7816164E-02  0.1184000E+00
        -11   -1    0    0    0    0  0.00000000000E+00  0.00000000000E+00  0.45593999997E+02  0.45594000000E+02  0.51100000000E-03 0.  1.
         11   -1    0    0    0    0 -0.00000000000E+00 -0.00000000000E+00 -0.45593999997E+02  0.45594000000E+02  0.51100000000E-03 0. -1.
         23    2    1    2    0    0 -0.17763568394E-14  0.00000000000E+00  0.35527136788E-14  0.91188000000E+02  0.91188000000E+02 0.  0.
    9900012    2    3    3    0    0  0.15359256637E+02 -0.23551238478E+02 -0.23774209973E+02  0.54367073095E+02  0.39999974735E+02 0.  0.
        -12    1    3    3    0    0 -0.15359256637E+02  0.23551238478E+02  0.23774209973E+02  0.36820926905E+02  0.00000000000E+00 0.  1.
         11    1    4    4    0    0  0.67376061399E+01 -0.49627974473E+01 -0.12945845492E+02  0.15414915205E+02  0.51100000000E-03 0. -1.
        -11    1    4    4    0    0  0.62875571951E+01  0.79685945661E+01 -0.61993385775E+01  0.11893850255E+02  0.51100000000E-03 0.  1.
         12    1    4    4    0    0  0.23340933021E+01 -0.26557035597E+02 -0.46290259029E+01  0.27058307635E+02  0.00000000000E+00 0. -1.
</event>
<event>
 8    1  0.2401501E-006  0.9118800E+02  0.7816164E-02  0.1184000E+00
        -11   -1    0    0    0    0  0.00000000000E+00  0.00000000000E+00  0.45593999997E+02  0.45594000000E+02  0.51100000000E-03 0.  1.
         11   -1    0    0    0    0 -0.00000000000E+00 -0.00000000000E+00 -0.45593999997E+02  0.45594000000E+02  0.51100000000E-03 0. -1.
         23    2    1    2    0    0  0.00000000000E+00 -0.71054273576E-14  0.00000000000E+00  0.91188000000E+02  0.91188000000E+02 0.  0.
    9900012    2    3    3    0    0 -0.10319816038E+02  0.23601623348E+02 -0.26310561614E+02  0.54367070080E+02  0.39999967861E+02 0.  0.
        -12    1    3    3    0    0  0.10319816038E+02 -0.23601623348E+02  0.26310561614E+02  0.36820929920E+02  0.00000000000E+00 0.  1.
         11    1    4    4    0    0 -0.21243716656E+01 -0.87072128329E+01 -0.95720474096E+01  0.13113069899E+02  0.51100000000E-03 0. -1.
        -11    1    4    4    0    0  0.19474383634E+01  0.12965123702E+02  0.95452281896E+00  0.13145267698E+02  0.51100000000E-03 0.  1.
         12    1    4    4    0    0 -0.10142882736E+02  0.19343712479E+02 -0.17693037024E+02  0.28108732483E+02  0.00000000000E+00 0. -1.
</event>
<event>
 8    1  0.2401501E-006  0.9118800E+02  0.7816164E-02  0.1184000E+00
        -11   -1    0    0    0    0  0.00000000000E+00  0.00000000000E+00  0.45593999997E+02  0.45594000000E+02  0.51100000000E-03 0. -1.
         11   -1    0    0    0    0 -0.00000000000E+00 -0.00000000000E+00 -0.45593999997E+02  0.45594000000E+02  0.51100000000E-03 0.  1.
         23    2    1    2    0    0  0.00000000000E+00  0.00000000000E+00 -0.88817841970E-15  0.91188000000E+02  0.91188000000E+02 0.  0.
    9900012    2    3    3    0    0  0.36205279704E+02 -0.81685323993E+00 -0.66551164174E+01  0.54367080644E+02  0.39999991945E+02 0.  0.
        -12    1    3    3    0    0 -0.36205279704E+02  0.81685323993E+00  0.66551164174E+01  0.36820919356E+02  0.00000000000E+00 0.  1.
         11    1    4    4    0    0  0.31724005311E+02 -0.38465362233E+00  0.66397715722E+01  0.32413685970E+02  0.51100000000E-03 0. -1.
        -11    1    4    4    0    0  0.81812833301E+01 -0.30286793804E+01 -0.14807996205E+02  0.17186711366E+02  0.51100000000E-03 0.  1.
         12    1    4    4    0    0 -0.37000089365E+01  0.25964797628E+01  0.15131082154E+01  0.47666833082E+01  0.00000000000E+00 0. -1.
</event>
<event>
 8    1  0.2401501E-006  0.9118800E+02  0.7816164E-02  0.1184000E+00
        -11   -1    0    0    0    0  0.00000000000E+00  0.00000000000E+00  0.45593999997E+02  0.45594000000E+02  0.51100000000E-03 0.  1.
         11   -1    0    0    0    0 -0.00000000000E+00 -0.00000000000E+00 -0.45593999997E+02  0.45594000000E+02  0.51100000000E-03 0. -1.
         23    2    1    2    0    0 -0.33306690739E-15 -0.71054273576E-14  0.00000000000E+00  0.91188000000E+02  0.91188000000E+02 0.  0.
    9900012    2    3    3    0    0  0.48183191336E+00  0.23594275571E+02  0.28264088329E+02  0.54367072652E+02  0.39999973725E+02 0.  0.
         12    1    3    3    0    0 -0.48183191336E+00 -0.23594275571E+02 -0.28264088329E+02  0.36820927348E+02  0.00000000000E+00 0. -1.
         11    1    4    4    0    0 -0.83756499079E+01  0.17510646167E+02  0.11652210560E+01  0.19445615983E+02  0.51100000000E-03 0. -1.
        -11    1    4    4    0    0 -0.35228155394E+01 -0.41115977786E+01  0.10653998427E+02  0.11950863917E+02  0.51100000000E-03 0.  1.
        -12    1    4    4    0    0  0.12380297361E+02  0.10195227182E+02  0.16444868846E+02  0.22970592752E+02  0.00000000000E+00 0.  1.
</event>
<event>
 8    1  0.2401501E-006  0.9118800E+02  0.7816164E-02  0.1184000E+00
        -11   -1    0    0    0    0  0.00000000000E+00  0.00000000000E+00  0.45593999997E+02  0.45594000000E+02  0.51100000000E-03 0.  1.
         11   -1    0    0    0    0 -0.00000000000E+00 -0.00000000000E+00 -0.45593999997E+02  0.45594000000E+02  0.51100000000E-03 0. -1.
         23    2    1    2    0    0  0.00000000000E+00  0.00000000000E+00  0.88817841970E-15  0.91188000000E+02  0.91188000000E+02 0.  0.
    9900012    2    3    3    0    0 -0.29944074270E+02  0.20790031201E+02 -0.51871547667E+01  0.54367088064E+02  0.40000008860E+02 0.  0.
         12    1    3    3    0    0  0.29944074270E+02 -0.20790031201E+02  0.51871547667E+01  0.36820911936E+02  0.00000000000E+00 0. -1.
         11    1    4    4    0    0 -0.33976696951E+01  0.88420269794E+01 -0.33722447061E+01  0.10054731975E+02  0.51100000000E-03 0.  1.
        -11    1    4    4    0    0  0.66258288127E+00  0.15994942938E+02 -0.46184715099E+01  0.16661557401E+02  0.51100000000E-03 0. -1.
        -12    1    4    4    0    0 -0.27208987456E+02 -0.40469387163E+01  0.28035614494E+01  0.27650798689E+02  0.00000000000E+00 0.  1.
</event>
<event>
 8    1  0.2401501E-006  0.9118800E+02  0.7816164E-02  0.1184000E+00
        -11   -1    0    0    0    0  0.00000000000E+00  0.00000000000E+00  0.45593999997E+02  0.45594000000E+02  0.51100000000E-03 0. -1.
         11   -1    0    0    0    0 -0.00000000000E+00 -0.00000000000E+00 -0.45593999997E+02  0.45594000000E+02  0.51100000000E-03 0.  1.
         23    2    1    2    0    0 -0.88817841970E-15  0.17763568394E-14  0.00000000000E+00  0.91188000000E+02  0.91188000000E+02 0.  0.
    9900012    2    3    3    0    0 -0.76916678183E+01 -0.10596008658E+02 -0.34414277198E+02  0.54367087079E+02  0.40000006614E+02 0.  0.
         12    1    3    3    0    0  0.76916678183E+01  0.10596008658E+02  0.34414277198E+02  0.36820912921E+02  0.00000000000E+00 0. -1.
         11    1    4    4    0    0 -0.69004087291E+00  0.11996976926E+02 -0.42710810554E+01  0.12753264108E+02  0.51100000000E-03 0. -1.
        -11    1    4    4    0    0 -0.37264058775E+01 -0.28213749200E+01 -0.17039888002E+02  0.17669296551E+02  0.51100000000E-03 0.  1.
        -12    1    4    4    0    0 -0.32752210679E+01 -0.19771610663E+02 -0.13103308140E+02  0.23944526420E+02  0.00000000000E+00 0.  1.
</event>
<event>
 8    1  0.2401501E-006  0.9118800E+02  0.7816164E-02  0.1184000E+00
        -11   -1    0    0    0    0  0.00000000000E+00  0.00000000000E+00  0.45593999997E+02  0.45594000000E+02  0.51100000000E-03 0. -1.
         11   -1    0    0    0    0 -0.00000000000E+00 -0.00000000000E+00 -0.45593999997E+02  0.45594000000E+02  0.51100000000E-03 0.  1.
         23    2    1    2    0    0  0.35527136788E-14  0.00000000000E+00  0.00000000000E+00  0.91188000000E+02  0.91188000000E+02 0.  0.
    9900012    2    3    3    0    0 -0.21108368085E+02  0.18596552860E+02 -0.23756864306E+02  0.54367033376E+02  0.39999884187E+02 0.  0.
         12    1    3    3    0    0  0.21108368085E+02 -0.18596552860E+02  0.23756864306E+02  0.36820966624E+02  0.00000000000E+00 0. -1.
         11    1    4    4    0    0 -0.27893021538E+01  0.11857499070E+02  0.26759078836E+01  0.12471606711E+02  0.51100000000E-03 0. -1.
        -11    1    4    4    0    0  0.11422151185E+01  0.12103566027E+02 -0.79563657790E+01  0.14529443300E+02  0.51100000000E-03 0.  1.
         12    1    4    4    0    0 -0.19461281050E+02 -0.53645122372E+01 -0.18476406411E+02  0.27365983364E+02  0.00000000000E+00 0. -1.
</event>
<event>
 8    1  0.2401501E-006  0.9118800E+02  0.7816164E-02  0.1184000E+00
        -11   -1    0    0    0    0  0.00000000000E+00  0.00000000000E+00  0.45593999997E+02  0.45594000000E+02  0.51100000000E-03 0.  1.
         11   -1    0    0    0    0 -0.00000000000E+00 -0.00000000000E+00 -0.45593999997E+02  0.45594000000E+02  0.51100000000E-03 0. -1.
         23    2    1    2    0    0  0.00000000000E+00  0.00000000000E+00  0.44408920985E-15  0.91188000000E+02  0.91188000000E+02 0.  0.
    9900012    2    3    3    0    0 -0.30044939152E+02 -0.20924519718E+02 -0.39045960321E+01  0.54367085233E+02  0.40000002406E+02 0.  0.
         12    1    3    3    0    0  0.30044939152E+02  0.20924519718E+02  0.39045960321E+01  0.36820914767E+02  0.00000000000E+00 0. -1.
         11    1    4    4    0    0 -0.39684887164E+01  0.18153410068E+01 -0.83994961284E+01  0.94655111397E+01  0.51100000000E-03 0. -1.
        -11    1    4    4    0    0 -0.14836386473E+00  0.24644838040E+01  0.81895323924E+01  0.85536035285E+01  0.51100000000E-03 0.  1.
        -12    1    4    4    0    0 -0.25928086571E+02 -0.25204344529E+02 -0.36946322960E+01  0.36347970565E+02  0.00000000000E+00 0.  1.
</event>
<event>
 8    1  0.2401501E-006  0.9118800E+02  0.7816164E-02  0.1184000E+00
        -11   -1    0    0    0    0  0.00000000000E+00  0.00000000000E+00  0.45593999997E+02  0.45594000000E+02  0.51100000000E-03 0. -1.
         11   -1    0    0    0    0 -0.00000000000E+00 -0.00000000000E+00 -0.45593999997E+02  0.45594000000E+02  0.51100000000E-03 0.  1.
         23    2    1    2    0    0  0.00000000000E+00  0.35527136788E-14  0.00000000000E+00  0.91188000000E+02  0.91188000000E+02 0.  0.
    9900012    2    3    3    0    0  0.31481756726E+02  0.13155193843E+02  0.13842667548E+02  0.54367087783E+02  0.40000008220E+02 0.  0.
        -12    1    3    3    0    0 -0.31481756726E+02 -0.13155193843E+02 -0.13842667548E+02  0.36820912217E+02  0.00000000000E+00 0.  1.
         11    1    4    4    0    0  0.49810023215E+01  0.73716178105E+01 -0.80416901047E+01  0.11992494039E+02  0.51100000000E-03 0.  1.
        -11    1    4    4    0    0  0.18572090878E+02 -0.41441178696E+01  0.24926608159E+01  0.19191394704E+02  0.51100000000E-03 0. -1.
         12    1    4    4    0    0  0.79286635268E+01  0.99276939021E+01  0.19391696837E+02  0.23183199040E+02  0.00000000000E+00 0. -1.
</event>
<event>
 8    1  0.2401501E-006  0.9118800E+02  0.7816164E-02  0.1184000E+00
        -11   -1    0    0    0    0  0.00000000000E+00  0.00000000000E+00  0.45593999997E+02  0.45594000000E+02  0.51100000000E-03 0.  1.
         11   -1    0    0    0    0 -0.00000000000E+00 -0.00000000000E+00 -0.45593999997E+02  0.45594000000E+02  0.51100000000E-03 0. -1.
         23    2    1    2    0    0 -0.35527136788E-14  0.00000000000E+00 -0.35527136788E-14  0.91188000000E+02  0.91188000000E+02 0.  0.
    9900012    2    3    3    0    0 -0.21918218927E+02  0.10741568298E+02 -0.27567970380E+02  0.54367046709E+02  0.39999914582E+02 0.  0.
        -12    1    3    3    0    0  0.21918218927E+02 -0.10741568298E+02  0.27567970380E+02  0.36820953291E+02  0.00000000000E+00 0.  1.
         11    1    4    4    0    0 -0.19539171532E+01  0.62289076703E+00 -0.13822491174E+02  0.13973798613E+02  0.51100000000E-03 0. -1.
        -11    1    4    4    0    0 -0.25837363315E+02  0.15355517445E+02 -0.11785692693E+02  0.32284110822E+02  0.51100000000E-03 0.  1.
        -12    1    4    4    0    0  0.58730615416E+01 -0.52368399137E+01 -0.19597865125E+01  0.81091372739E+01  0.00000000000E+00 0.  1.
</event>
<event>
 8    1  0.2401501E-006  0.9118800E+02  0.7816164E-02  0.1184000E+00
        -11   -1    0    0    0    0  0.00000000000E+00  0.00000000000E+00  0.45593999997E+02  0.45594000000E+02  0.51100000000E-03 0. -1.
         11   -1    0    0    0    0 -0.00000000000E+00 -0.00000000000E+00 -0.45593999997E+02  0.45594000000E+02  0.51100000000E-03 0.  1.
         23    2    1    2    0    0  0.00000000000E+00  0.00000000000E+00  0.35527136788E-14  0.91188000000E+02  0.91188000000E+02 0.  0.
    9900012    2    3    3    0    0 -0.13388303996E+02 -0.22000303397E+02  0.26315775815E+02  0.54367080807E+02  0.39999992317E+02 0.  0.
        -12    1    3    3    0    0  0.13388303996E+02  0.22000303397E+02 -0.26315775815E+02  0.36820919193E+02  0.00000000000E+00 0.  1.
         11    1    4    4    0    0 -0.13350080168E+02 -0.21606207853E+02  0.16304444578E+02  0.30180917341E+02  0.51100000000E-03 0. -1.
        -11    1    4    4    0    0  0.92498499762E+01 -0.24795808466E+01 -0.10023365089E+01  0.96287446999E+01  0.51100000000E-03 0.  1.
        -12    1    4    4    0    0 -0.92880738042E+01  0.20854853025E+01  0.11013667745E+02  0.14557418766E+02  0.00000000000E+00 0.  1.
</event>
<event>
 8    1  0.2401501E-006  0.9118800E+02  0.7816164E-02  0.1184000E+00
        -11   -1    0    0    0    0  0.00000000000E+00  0.00000000000E+00  0.45593999997E+02  0.45594000000E+02  0.51100000000E-03 0. -1.
         11   -1    0    0    0    0 -0.00000000000E+00 -0.00000000000E+00 -0.45593999997E+02  0.45594000000E+02  0.51100000000E-03 0.  1.
         23    2    1    2    0    0  0.35527136788E-14  0.53290705182E-14  0.00000000000E+00  0.91188000000E+02  0.91188000000E+02 0.  0.
    9900012    2    3    3    0    0 -0.30411505051E+02 -0.91312368400E+01  0.18642447736E+02  0.54367082259E+02  0.39999995626E+02 0.  0.
        -12    1    3    3    0    0  0.30411505051E+02  0.91312368400E+01 -0.18642447736E+02  0.36820917741E+02  0.00000000000E+00 0.  1.
         11    1    4    4    0    0 -0.45353812578E+01 -0.42078426116E+01  0.64517363557E+01  0.89387093510E+01  0.51100000000E-03 0. -1.
        -11    1    4    4    0    0 -0.80653726826E+01  0.12191231832E+02  0.14537958137E+02  0.20616221699E+02  0.51100000000E-03 0.  1.
        -12    1    4    4    0    0 -0.17810751110E+02 -0.17114626060E+02 -0.23472467560E+01  0.24812151209E+02  0.00000000000E+00 0.  1.
</event>
<event>
 8    1  0.2401501E-006  0.9118800E+02  0.7816164E-02  0.1184000E+00
        -11   -1    0    0    0    0  0.00000000000E+00  0.00000000000E+00  0.45593999997E+02  0.45594000000E+02  0.51100000000E-03 0.  1.
         11   -1    0    0    0    0 -0.00000000000E+00 -0.00000000000E+00 -0.45593999997E+02  0.45594000000E+02  0.51100000000E-03 0. -1.
         23    2    1    2    0    0  0.35527136788E-14  0.35527136788E-14  0.00000000000E+00  0.91188000000E+02  0.91188000000E+02 0.  0.
    9900012    2    3    3    0    0  0.20229558559E+02  0.18989664853E+02  0.24206133686E+02  0.54367091283E+02  0.40000016199E+02 0.  0.
        -12    1    3    3    0    0 -0.20229558559E+02 -0.18989664853E+02 -0.24206133686E+02  0.36820908717E+02  0.00000000000E+00 0.  1.
         11    1    4    4    0    0 -0.17106146945E+01  0.19749027240E+02  0.60830413436E+01  0.20735324251E+02  0.51100000000E-03 0. -1.
        -11    1    4    4    0    0  0.37049599345E+01 -0.77089179219E+01  0.76978878869E+01  0.11507024890E+02  0.51100000000E-03 0.  1.
         12    1    4    4    0    0  0.18235213319E+02  0.69495555348E+01  0.10425204456E+02  0.22124742142E+02  0.00000000000E+00 0. -1.
</event>
<event>
 8    1  0.2401501E-006  0.9118800E+02  0.7816164E-02  0.1184000E+00
        -11   -1    0    0    0    0  0.00000000000E+00  0.00000000000E+00  0.45593999997E+02  0.45594000000E+02  0.51100000000E-03 0.  1.
         11   -1    0    0    0    0 -0.00000000000E+00 -0.00000000000E+00 -0.45593999997E+02  0.45594000000E+02  0.51100000000E-03 0. -1.
         23    2    1    2    0    0  0.00000000000E+00  0.00000000000E+00 -0.26645352591E-14  0.91188000000E+02  0.91188000000E+02 0.  0.
    9900012    2    3    3    0    0  0.28400828671E+02  0.22418360054E+02  0.68257986800E+01  0.54367062148E+02  0.39999949779E+02 0.  0.
         12    1    3    3    0    0 -0.28400828671E+02 -0.22418360054E+02 -0.68257986800E+01  0.36820937852E+02  0.00000000000E+00 0. -1.
         11    1    4    4    0    0 -0.19895523439E+01 -0.49989537698E+01  0.10102361068E+01  0.54743433008E+01  0.51100000000E-03 0.  1.
        -11    1    4    4    0    0  0.23350651391E+02  0.16358144097E+02 -0.82351572433E+01  0.29675909654E+02  0.51100000000E-03 0. -1.
        -12    1    4    4    0    0  0.70397296232E+01  0.11059169727E+02  0.14050719816E+02  0.19216809194E+02  0.00000000000E+00 0.  1.
</event>
<event>
 8    1  0.2401501E-006  0.9118800E+02  0.7816164E-02  0.1184000E+00
        -11   -1    0    0    0    0  0.00000000000E+00  0.00000000000E+00  0.45593999997E+02  0.45594000000E+02  0.51100000000E-03 0. -1.
         11   -1    0    0    0    0 -0.00000000000E+00 -0.00000000000E+00 -0.45593999997E+02  0.45594000000E+02  0.51100000000E-03 0.  1.
         23    2    1    2    0    0  0.35527136788E-14 -0.35527136788E-14  0.88817841970E-15  0.91188000000E+02  0.91188000000E+02 0.  0.
    9900012    2    3    3    0    0 -0.28721029000E+02 -0.22598077579E+02  0.44955154468E+01  0.54367078282E+02  0.39999986559E+02 0.  0.
        -12    1    3    3    0    0  0.28721029000E+02  0.22598077579E+02 -0.44955154468E+01  0.36820921718E+02  0.00000000000E+00 0.  1.
         11    1    4    4    0    0  0.69448611151E+01 -0.21470989681E+01  0.34979603737E+01  0.80670228042E+01  0.51100000000E-03 0. -1.
        -11    1    4    4    0    0 -0.11111448822E+02 -0.99630877445E+01 -0.94098653408E+01  0.17642929981E+02  0.51100000000E-03 0.  1.
         12    1    4    4    0    0 -0.24554441293E+02 -0.10487890866E+02  0.10407420414E+02  0.28657125496E+02  0.00000000000E+00 0. -1.
</event>
<event>
 8    1  0.2401501E-006  0.9118800E+02  0.7816164E-02  0.1184000E+00
        -11   -1    0    0    0    0  0.00000000000E+00  0.00000000000E+00  0.45593999997E+02  0.45594000000E+02  0.51100000000E-03 0. -1.
         11   -1    0    0    0    0 -0.00000000000E+00 -0.00000000000E+00 -0.45593999997E+02  0.45594000000E+02  0.51100000000E-03 0.  1.
         23    2    1    2    0    0 -0.88817841970E-15  0.00000000000E+00  0.35527136788E-14  0.91188000000E+02  0.91188000000E+02 0.  0.
    9900012    2    3    3    0    0  0.66656956312E+01 -0.23276764128E+02 -0.27740598900E+02  0.54367081029E+02  0.39999992822E+02 0.  0.
         12    1    3    3    0    0 -0.66656956312E+01  0.23276764128E+02  0.27740598900E+02  0.36820918971E+02  0.00000000000E+00 0. -1.
         11    1    4    4    0    0  0.14518129268E+01 -0.10373982863E+02  0.56086424467E+01  0.11882093737E+02  0.51100000000E-03 0. -1.
        -11    1    4    4    0    0  0.42303945250E+01  0.48021471507E+01 -0.24371999416E+01  0.68481237511E+01  0.51100000000E-03 0.  1.
        -12    1    4    4    0    0  0.98348817948E+00 -0.17704928415E+02 -0.30912041405E+02  0.35636863541E+02  0.00000000000E+00 0.  1.
</event>
<event>
 8    1  0.2401501E-006  0.9118800E+02  0.7816164E-02  0.1184000E+00
        -11   -1    0    0    0    0  0.00000000000E+00  0.00000000000E+00  0.45593999997E+02  0.45594000000E+02  0.51100000000E-03 0.  1.
         11   -1    0    0    0    0 -0.00000000000E+00 -0.00000000000E+00 -0.45593999997E+02  0.45594000000E+02  0.51100000000E-03 0. -1.
         23    2    1    2    0    0  0.00000000000E+00 -0.17763568394E-14  0.00000000000E+00  0.91188000000E+02  0.91188000000E+02 0.  0.
    9900012    2    3    3    0    0  0.81763586483E+01 -0.15052970848E+02  0.32593429325E+02  0.54367130819E+02  0.40000106327E+02 0.  0.
         12    1    3    3    0    0 -0.81763586483E+01  0.15052970848E+02 -0.32593429325E+02  0.36820869181E+02  0.00000000000E+00 0. -1.
         11    1    4    4    0    0  0.98305356044E-01 -0.10257231553E+02  0.47262572466E+01  0.11294156493E+02  0.51100000000E-03 0. -1.
        -11    1    4    4    0    0  0.54242757520E+01 -0.14423569771E+02  0.29181155667E+02  0.33000029981E+02  0.51100000000E-03 0.  1.
         12    1    4    4    0    0  0.26537775403E+01  0.96278304758E+01 -0.13139835889E+01  0.10072944345E+02  0.00000000000E+00 0. -1.
</event>
<event>
 8    1  0.2401501E-006  0.9118800E+02  0.7816164E-02  0.1184000E+00
        -11   -1    0    0    0    0  0.00000000000E+00  0.00000000000E+00  0.45593999997E+02  0.45594000000E+02  0.51100000000E-03 0. -1.
         11   -1    0    0    0    0 -0.00000000000E+00 -0.00000000000E+00 -0.45593999997E+02  0.45594000000E+02  0.51100000000E-03 0.  1.
         23    2    1    2    0    0 -0.17763568394E-14  0.00000000000E+00  0.35527136788E-14  0.91188000000E+02  0.91188000000E+02 0.  0.
    9900012    2    3    3    0    0  0.82545038361E+01 -0.19984848951E+02 -0.29803501180E+02  0.54367086054E+02  0.40000004278E+02 0.  0.
         12    1    3    3    0    0 -0.82545038361E+01  0.19984848951E+02  0.29803501180E+02  0.36820913946E+02  0.00000000000E+00 0. -1.
         11    1    4    4    0    0  0.11945566596E+02 -0.19940290958E+02 -0.13949705024E+02  0.27109150399E+02  0.51100000000E-03 0. -1.
        -11    1    4    4    0    0 -0.60422675475E+01 -0.99162269435E+01 -0.11054180715E+02  0.16032325641E+02  0.51100000000E-03 0.  1.
         12    1    4    4    0    0  0.23512047872E+01  0.98716689507E+01 -0.47996154406E+01  0.11225610015E+02  0.00000000000E+00 0. -1.
</event>
<event>
 8    1  0.2401501E-006  0.9118800E+02  0.7816164E-02  0.1184000E+00
        -11   -1    0    0    0    0  0.00000000000E+00  0.00000000000E+00  0.45593999997E+02  0.45594000000E+02  0.51100000000E-03 0. -1.
         11   -1    0    0    0    0 -0.00000000000E+00 -0.00000000000E+00 -0.45593999997E+02  0.45594000000E+02  0.51100000000E-03 0.  1.
         23    2    1    2    0    0  0.00000000000E+00  0.00000000000E+00  0.00000000000E+00  0.91188000000E+02  0.91188000000E+02 0.  0.
    9900012    2    3    3    0    0 -0.18094975507E+02  0.31548269763E+02  0.57496770027E+01  0.54367078648E+02  0.39999987393E+02 0.  0.
        -12    1    3    3    0    0  0.18094975507E+02 -0.31548269763E+02 -0.57496770027E+01  0.36820921352E+02  0.00000000000E+00 0.  1.
         11    1    4    4    0    0 -0.26082919187E+02  0.17826337729E+02 -0.22836631611E+01  0.31675102334E+02  0.51100000000E-03 0. -1.
        -11    1    4    4    0    0  0.42873043224E+01  0.14882576063E+02  0.21371252917E+01  0.15634556386E+02  0.51100000000E-03 0.  1.
         12    1    4    4    0    0  0.37006393580E+01 -0.11606440294E+01  0.58962148722E+01  0.70574199279E+01  0.00000000000E+00 0. -1.
</event>
<event>
 8    1  0.2401501E-006  0.9118800E+02  0.7816164E-02  0.1184000E+00
        -11   -1    0    0    0    0  0.00000000000E+00  0.00000000000E+00  0.45593999997E+02  0.45594000000E+02  0.51100000000E-03 0. -1.
         11   -1    0    0    0    0 -0.00000000000E+00 -0.00000000000E+00 -0.45593999997E+02  0.45594000000E+02  0.51100000000E-03 0.  1.
         23    2    1    2    0    0  0.35527136788E-14  0.00000000000E+00 -0.88817841970E-15  0.91188000000E+02  0.91188000000E+02 0.  0.
    9900012    2    3    3    0    0 -0.26236659219E+02  0.24584694768E+02 -0.79376877499E+01  0.54367131044E+02  0.40000106842E+02 0.  0.
         12    1    3    3    0    0  0.26236659219E+02 -0.24584694768E+02  0.79376877499E+01  0.36820868956E+02  0.00000000000E+00 0. -1.
         11    1    4    4    0    0 -0.57910691213E+01 -0.46328262045E+01 -0.30317517537E+01  0.80119335473E+01  0.51100000000E-03 0.  1.
        -11    1    4    4    0    0 -0.78070566692E+01  0.32000433733E+02 -0.14996496952E+01  0.32973123031E+02  0.51100000000E-03 0. -1.
         12    1    4    4    0    0 -0.12638533428E+02 -0.27829127604E+01 -0.34062863011E+01  0.13382074466E+02  0.00000000000E+00 0. -1.
</event>
<event>
 8    1  0.2401501E-006  0.9118800E+02  0.7816164E-02  0.1184000E+00
        -11   -1    0    0    0    0  0.00000000000E+00  0.00000000000E+00  0.45593999997E+02  0.45594000000E+02  0.51100000000E-03 0.  1.
         11   -1    0    0    0    0 -0.00000000000E+00 -0.00000000000E+00 -0.45593999997E+02  0.45594000000E+02  0.51100000000E-03 0. -1.
         23    2    1    2    0    0  0.00000000000E+00  0.17763568394E-14 -0.35527136788E-14  0.91188000000E+02  0.91188000000E+02 0.  0.
    9900012    2    3    3    0    0  0.23240552350E+02  0.15368897630E+02 -0.24071796077E+02  0.54367113885E+02  0.40000067724E+02 0.  0.
        -12    1    3    3    0    0 -0.23240552350E+02 -0.15368897630E+02  0.24071796077E+02  0.36820886115E+02  0.00000000000E+00 0.  1.
         11    1    4    4    0    0  0.20136189359E+02  0.13996369013E+02 -0.52153823978E+01  0.25071192259E+02  0.51100000000E-03 0. -1.
        -11    1    4    4    0    0  0.10842391253E+01 -0.99401089189E+01 -0.12992408659E+02  0.16394633965E+02  0.51100000000E-03 0.  1.
         12    1    4    4    0    0  0.20201238650E+01  0.11312637536E+02 -0.58640050201E+01  0.12901287662E+02  0.00000000000E+00 0. -1.
</event>
<event>
 8    1  0.2401501E-006  0.9118800E+02  0.7816164E-02  0.1184000E+00
        -11   -1    0    0    0    0  0.00000000000E+00  0.00000000000E+00  0.45593999997E+02  0.45594000000E+02  0.51100000000E-03 0.  1.
         11   -1    0    0    0    0 -0.00000000000E+00 -0.00000000000E+00 -0.45593999997E+02  0.45594000000E+02  0.51100000000E-03 0. -1.
         23    2    1    2    0    0  0.17763568394E-14  0.17763568394E-14  0.00000000000E+00  0.91188000000E+02  0.91188000000E+02 0.  0.
    9900012    2    3    3    0    0  0.10717900857E+02  0.47351224821E+01  0.34906794025E+02  0.54367094895E+02  0.40000024431E+02 0.  0.
         12    1    3    3    0    0 -0.10717900857E+02 -0.47351224821E+01 -0.34906794025E+02  0.36820905105E+02  0.00000000000E+00 0. -1.
         11    1    4    4    0    0 -0.41936479513E+01 -0.51565016337E+00  0.10034410542E+01  0.43427494103E+01  0.51100000000E-03 0. -1.
        -11    1    4    4    0    0  0.91572495834E+01 -0.94907780091E+00  0.39051592694E+02  0.40122099407E+02  0.51100000000E-03 0.  1.
         12    1    4    4    0    0  0.57542992244E+01  0.61998504464E+01 -0.51482397239E+01  0.99022460774E+01  0.00000000000E+00 0. -1.
</event>
<event>
 8    1  0.2401501E-006  0.9118800E+02  0.7816164E-02  0.1184000E+00
        -11   -1    0    0    0    0  0.00000000000E+00  0.00000000000E+00  0.45593999997E+02  0.45594000000E+02  0.51100000000E-03 0. -1.
         11   -1    0    0    0    0 -0.00000000000E+00 -0.00000000000E+00 -0.45593999997E+02  0.45594000000E+02  0.51100000000E-03 0.  1.
         23    2    1    2    0    0 -0.17763568394E-14 -0.35527136788E-14  0.00000000000E+00  0.91188000000E+02  0.91188000000E+02 0.  0.
    9900012    2    3    3    0    0 -0.85793242599E+01 -0.16402996585E+02 -0.31829488950E+02  0.54367089249E+02  0.40000011560E+02 0.  0.
         12    1    3    3    0    0  0.85793242599E+01  0.16402996585E+02  0.31829488950E+02  0.36820910751E+02  0.00000000000E+00 0. -1.
         11    1    4    4    0    0  0.97108796002E+01  0.32158045804E+01  0.61955727922E+00  0.10248240493E+02  0.51100000000E-03 0. -1.
        -11    1    4    4    0    0 -0.12945245118E+02 -0.14993869507E+02 -0.31176042636E+02  0.36936988624E+02  0.51100000000E-03 0.  1.
         12    1    4    4    0    0 -0.53449587422E+01 -0.46249316588E+01 -0.12730035939E+01  0.71818601319E+01  0.00000000000E+00 0. -1.
</event>
<event>
 8    1  0.2401501E-006  0.9118800E+02  0.7816164E-02  0.1184000E+00
        -11   -1    0    0    0    0  0.00000000000E+00  0.00000000000E+00  0.45593999997E+02  0.45594000000E+02  0.51100000000E-03 0. -1.
         11   -1    0    0    0    0 -0.00000000000E+00 -0.00000000000E+00 -0.45593999997E+02  0.45594000000E+02  0.51100000000E-03 0.  1.
         23    2    1    2    0    0  0.00000000000E+00  0.00000000000E+00  0.00000000000E+00  0.91188000000E+02  0.91188000000E+02 0.  0.
    9900012    2    3    3    0    0 -0.19649035795E+02 -0.20124858577E+02  0.23763107943E+02  0.54367084211E+02  0.40000000076E+02 0.  0.
        -12    1    3    3    0    0  0.19649035795E+02  0.20124858577E+02 -0.23763107943E+02  0.36820915789E+02  0.00000000000E+00 0.  1.
         11    1    4    4    0    0 -0.22723301913E+01 -0.23338758238E+02  0.79436617426E+01  0.24758087219E+02  0.51100000000E-03 0. -1.
        -11    1    4    4    0    0 -0.32439995003E+01  0.81024533980E+01  0.14077175007E+01  0.88405289801E+01  0.51100000000E-03 0.  1.
         12    1    4    4    0    0 -0.14132706103E+02 -0.48885537372E+01  0.14411728700E+02  0.20768468012E+02  0.00000000000E+00 0. -1.
</event>
<event>
 8    1  0.2401501E-006  0.9118800E+02  0.7816164E-02  0.1184000E+00
        -11   -1    0    0    0    0  0.00000000000E+00  0.00000000000E+00  0.45593999997E+02  0.45594000000E+02  0.51100000000E-03 0. -1.
         11   -1    0    0    0    0 -0.00000000000E+00 -0.00000000000E+00 -0.45593999997E+02  0.45594000000E+02  0.51100000000E-03 0.  1.
         23    2    1    2    0    0  0.00000000000E+00 -0.35527136788E-14  0.00000000000E+00  0.91188000000E+02  0.91188000000E+02 0.  0.
    9900012    2    3    3    0    0 -0.27731444700E+02 -0.23725837165E+02 -0.48817557721E+01  0.54367083203E+02  0.39999997778E+02 0.  0.
         12    1    3    3    0    0  0.27731444700E+02  0.23725837165E+02  0.48817557721E+01  0.36820916797E+02  0.00000000000E+00 0. -1.
         11    1    4    4    0    0 -0.42204532951E-01  0.97396745639E+01 -0.18443305103E+01  0.99128501011E+01  0.51100000000E-03 0. -1.
        -11    1    4    4    0    0 -0.17752465646E+02 -0.18026107288E+02 -0.56090801405E+01  0.25914327326E+02  0.51100000000E-03 0.  1.
         12    1    4    4    0    0 -0.99367745215E+01 -0.15439404441E+02  0.25716548787E+01  0.18539905777E+02  0.00000000000E+00 0. -1.
</event>
<event>
 8    1  0.2401501E-006  0.9118800E+02  0.7816164E-02  0.1184000E+00
        -11   -1    0    0    0    0  0.00000000000E+00  0.00000000000E+00  0.45593999997E+02  0.45594000000E+02  0.51100000000E-03 0.  1.
         11   -1    0    0    0    0 -0.00000000000E+00 -0.00000000000E+00 -0.45593999997E+02  0.45594000000E+02  0.51100000000E-03 0. -1.
         23    2    1    2    0    0  0.00000000000E+00  0.88817841970E-15  0.00000000000E+00  0.91188000000E+02  0.91188000000E+02 0.  0.
    9900012    2    3    3    0    0 -0.35135817359E+02 -0.37861116728E+01  0.10339795215E+02  0.54367195172E+02  0.40000253033E+02 0.  0.
        -12    1    3    3    0    0  0.35135817359E+02  0.37861116728E+01 -0.10339795215E+02  0.36820804828E+02  0.00000000000E+00 0.  1.
         11    1    4    4    0    0 -0.36575686245E+02 -0.88293818349E+01  0.42965509945E+01  0.37870821996E+02  0.51100000000E-03 0. -1.
        -11    1    4    4    0    0 -0.84858425752E+00 -0.49786405149E+01  0.23819043461E+01  0.55839435164E+01  0.51100000000E-03 0.  1.
         12    1    4    4    0    0  0.22884531437E+01  0.10021910677E+02  0.36613398745E+01  0.10912429660E+02  0.00000000000E+00 0. -1.
</event>
<event>
 8    1  0.2401501E-006  0.9118800E+02  0.7816164E-02  0.1184000E+00
        -11   -1    0    0    0    0  0.00000000000E+00  0.00000000000E+00  0.45593999997E+02  0.45594000000E+02  0.51100000000E-03 0.  1.
         11   -1    0    0    0    0 -0.00000000000E+00 -0.00000000000E+00 -0.45593999997E+02  0.45594000000E+02  0.51100000000E-03 0. -1.
         23    2    1    2    0    0 -0.71054273576E-14  0.17763568394E-14  0.35527136788E-14  0.91188000000E+02  0.91188000000E+02 0.  0.
    9900012    2    3    3    0    0  0.26483428903E+02 -0.15388052740E+02 -0.20435629742E+02  0.54367093757E+02  0.40000021838E+02 0.  0.
        -12    1    3    3    0    0 -0.26483428903E+02  0.15388052740E+02  0.20435629742E+02  0.36820906243E+02  0.00000000000E+00 0.  1.
         11    1    4    4    0    0 -0.21370588752E+01 -0.30382036598E+01 -0.22735867073E+02  0.23037303530E+02  0.51100000000E-03 0. -1.
        -11    1    4    4    0    0  0.20745191847E+02 -0.85852845748E+01  0.74750970753E+00  0.22463945936E+02  0.51100000000E-03 0.  1.
         12    1    4    4    0    0  0.78752959313E+01 -0.37645645049E+01  0.15527276228E+01  0.88658442908E+01  0.00000000000E+00 0. -1.
</event>
<event>
 8    1  0.2401501E-006  0.9118800E+02  0.7816164E-02  0.1184000E+00
        -11   -1    0    0    0    0  0.00000000000E+00  0.00000000000E+00  0.45593999997E+02  0.45594000000E+02  0.51100000000E-03 0.  1.
         11   -1    0    0    0    0 -0.00000000000E+00 -0.00000000000E+00 -0.45593999997E+02  0.45594000000E+02  0.51100000000E-03 0. -1.
         23    2    1    2    0    0  0.00000000000E+00  0.00000000000E+00  0.35527136788E-14  0.91188000000E+02  0.91188000000E+02 0.  0.
    9900012    2    3    3    0    0 -0.32609083821E+02  0.31723934359E+01 -0.16803667916E+02  0.54367086334E+02  0.40000004915E+02 0.  0.
        -12    1    3    3    0    0  0.32609083821E+02 -0.31723934359E+01  0.16803667916E+02  0.36820913666E+02  0.00000000000E+00 0.  1.
         11    1    4    4    0    0 -0.11614425920E+02  0.42883727516E+01  0.63252207492E+01  0.13903001406E+02  0.51100000000E-03 0. -1.
        -11    1    4    4    0    0 -0.71879210274E+01  0.12801408872E+01  0.51289331333E+01  0.89224954320E+01  0.51100000000E-03 0.  1.
         12    1    4    4    0    0 -0.13806736874E+02 -0.23961202029E+01 -0.28257821799E+02  0.31541589496E+02  0.00000000000E+00 0. -1.
</event>
<event>
 8    1  0.2401501E-006  0.9118800E+02  0.7816164E-02  0.1184000E+00
        -11   -1    0    0    0    0  0.00000000000E+00  0.00000000000E+00  0.45593999997E+02  0.45594000000E+02  0.51100000000E-03 0.  1.
         11   -1    0    0    0    0 -0.00000000000E+00 -0.00000000000E+00 -0.45593999997E+02  0.45594000000E+02  0.51100000000E-03 0. -1.
         23    2    1    2    0    0  0.00000000000E+00  0.35527136788E-14  0.00000000000E+00  0.91188000000E+02  0.91188000000E+02 0.  0.
    9900012    2    3    3    0    0  0.27655271379E+02  0.12792284896E+02 -0.20671748242E+02  0.54367112405E+02  0.40000064350E+02 0.  0.
        -12    1    3    3    0    0 -0.27655271379E+02 -0.12792284896E+02  0.20671748242E+02  0.36820887595E+02  0.00000000000E+00 0.  1.
         11    1    4    4    0    0  0.75091967753E+01  0.54815950513E+01  0.98855912521E+01  0.13570587135E+02  0.51100000000E-03 0. -1.
        -11    1    4    4    0    0  0.33976200092E+01 -0.50175805993E+01 -0.89361614694E+01  0.10796986564E+02  0.51100000000E-03 0.  1.
         12    1    4    4    0    0  0.16748454594E+02  0.12328270444E+02 -0.21621178024E+02  0.29999538706E+02  0.00000000000E+00 0. -1.
</event>
<event>
 8    1  0.2401501E-006  0.9118800E+02  0.7816164E-02  0.1184000E+00
        -11   -1    0    0    0    0  0.00000000000E+00  0.00000000000E+00  0.45593999997E+02  0.45594000000E+02  0.51100000000E-03 0.  1.
         11   -1    0    0    0    0 -0.00000000000E+00 -0.00000000000E+00 -0.45593999997E+02  0.45594000000E+02  0.51100000000E-03 0. -1.
         23    2    1    2    0    0  0.35527136788E-14 -0.35527136788E-14  0.00000000000E+00  0.91188000000E+02  0.91188000000E+02 0.  0.
    9900012    2    3    3    0    0 -0.25871969215E+02  0.11437074678E+02  0.23571430348E+02  0.54367111949E+02  0.40000063310E+02 0.  0.
        -12    1    3    3    0    0  0.25871969215E+02 -0.11437074678E+02 -0.23571430348E+02  0.36820888051E+02  0.00000000000E+00 0.  1.
         11    1    4    4    0    0 -0.21127216324E+02 -0.74733905935E+01  0.15592256622E+02  0.27300719833E+02  0.51100000000E-03 0. -1.
        -11    1    4    4    0    0 -0.93526679101E+01  0.19028434942E+02  0.58897891848E+01  0.22005529993E+02  0.51100000000E-03 0.  1.
        -12    1    4    4    0    0  0.46079150195E+01 -0.11796967045E+00  0.20893845414E+01  0.50608621234E+01  0.00000000000E+00 0.  1.
</event>
<event>
 8    1  0.2401501E-006  0.9118800E+02  0.7816164E-02  0.1184000E+00
        -11   -1    0    0    0    0  0.00000000000E+00  0.00000000000E+00  0.45593999997E+02  0.45594000000E+02  0.51100000000E-03 0. -1.
         11   -1    0    0    0    0 -0.00000000000E+00 -0.00000000000E+00 -0.45593999997E+02  0.45594000000E+02  0.51100000000E-03 0.  1.
         23    2    1    2    0    0  0.26645352591E-14  0.88817841970E-15  0.00000000000E+00  0.91188000000E+02  0.91188000000E+02 0.  0.
    9900012    2    3    3    0    0 -0.46993018967E+01 -0.74855580667E+01 -0.35744429502E+02  0.54367064945E+02  0.39999956156E+02 0.  0.
         12    1    3    3    0    0  0.46993018967E+01  0.74855580667E+01  0.35744429502E+02  0.36820935055E+02  0.00000000000E+00 0. -1.
         11    1    4    4    0    0 -0.14072234642E+02 -0.16704356982E+02 -0.13776523630E+02  0.25823553852E+02  0.51100000000E-03 0. -1.
        -11    1    4    4    0    0  0.10132599459E+02  0.10022340450E+02 -0.22982501516E+02  0.27042785657E+02  0.51100000000E-03 0.  1.
        -12    1    4    4    0    0 -0.75966671397E+00 -0.80354153439E+00  0.10145956438E+01  0.15007254360E+01  0.00000000000E+00 0.  1.
</event>
<event>
 8    1  0.2401501E-006  0.9118800E+02  0.7816164E-02  0.1184000E+00
        -11   -1    0    0    0    0  0.00000000000E+00  0.00000000000E+00  0.45593999997E+02  0.45594000000E+02  0.51100000000E-03 0.  1.
         11   -1    0    0    0    0 -0.00000000000E+00 -0.00000000000E+00 -0.45593999997E+02  0.45594000000E+02  0.51100000000E-03 0. -1.
         23    2    1    2    0    0  0.00000000000E+00  0.00000000000E+00 -0.17763568394E-14  0.91188000000E+02  0.91188000000E+02 0.  0.
    9900012    2    3    3    0    0  0.98683550985E+01 -0.32726599513E+02  0.13688091903E+02  0.54367100935E+02  0.40000038202E+02 0.  0.
         12    1    3    3    0    0 -0.98683550985E+01  0.32726599513E+02 -0.13688091903E+02  0.36820899065E+02  0.00000000000E+00 0. -1.
         11    1    4    4    0    0  0.15042012252E+01 -0.22969552926E+02 -0.41805656952E+01  0.23395301082E+02  0.51100000000E-03 0. -1.
        -11    1    4    4    0    0 -0.22803430179E+01 -0.13331356794E+02  0.12908770586E+02  0.18696561089E+02  0.51100000000E-03 0.  1.
        -12    1    4    4    0    0  0.10644496891E+02  0.35743102077E+01  0.49598870123E+01  0.12275238764E+02  0.00000000000E+00 0.  1.
</event>
<event>
 8    1  0.2401501E-006  0.9118800E+02  0.7816164E-02  0.1184000E+00
        -11   -1    0    0    0    0  0.00000000000E+00  0.00000000000E+00  0.45593999997E+02  0.45594000000E+02  0.51100000000E-03 0.  1.
         11   -1    0    0    0    0 -0.00000000000E+00 -0.00000000000E+00 -0.45593999997E+02  0.45594000000E+02  0.51100000000E-03 0. -1.
         23    2    1    2    0    0 -0.35527136788E-14  0.71054273576E-14  0.88817841970E-15  0.91188000000E+02  0.91188000000E+02 0.  0.
    9900012    2    3    3    0    0 -0.25519679757E+02 -0.25656290677E+02  0.68030236662E+01  0.54367076095E+02  0.39999981574E+02 0.  0.
        -12    1    3    3    0    0  0.25519679757E+02  0.25656290677E+02 -0.68030236662E+01  0.36820923905E+02  0.00000000000E+00 0.  1.
         11    1    4    4    0    0 -0.62392069969E+01  0.70643235480E+01 -0.32505335354E+01  0.99698715973E+01  0.51100000000E-03 0. -1.
        -11    1    4    4    0    0  0.10441636904E+01 -0.77391164167E+01  0.93529882647E+01  0.12184522578E+02  0.51100000000E-03 0.  1.
         12    1    4    4    0    0 -0.20324636450E+02 -0.24981497809E+02  0.70056893697E+00  0.32212681919E+02  0.00000000000E+00 0. -1.
</event>
<event>
 8    1  0.2401501E-006  0.9118800E+02  0.7816164E-02  0.1184000E+00
        -11   -1    0    0    0    0  0.00000000000E+00  0.00000000000E+00  0.45593999997E+02  0.45594000000E+02  0.51100000000E-03 0.  1.
         11   -1    0    0    0    0 -0.00000000000E+00 -0.00000000000E+00 -0.45593999997E+02  0.45594000000E+02  0.51100000000E-03 0. -1.
         23    2    1    2    0    0  0.00000000000E+00  0.00000000000E+00  0.00000000000E+00  0.91188000000E+02  0.91188000000E+02 0.  0.
    9900012    2    3    3    0    0  0.25205185347E+02 -0.17030477034E+02  0.20747083122E+02  0.54367082379E+02  0.39999995900E+02 0.  0.
        -12    1    3    3    0    0 -0.25205185347E+02  0.17030477034E+02 -0.20747083122E+02  0.36820917621E+02  0.00000000000E+00 0.  1.
         11    1    4    4    0    0  0.57744539593E+01  0.84156521270E+01  0.47805072226E+01  0.11270349099E+02  0.51100000000E-03 0. -1.
        -11    1    4    4    0    0  0.33417022410E+01 -0.12502398454E+02  0.18194521738E+02  0.22327506858E+02  0.51100000000E-03 0.  1.
         12    1    4    4    0    0  0.16089029147E+02 -0.12943730707E+02 -0.22279458388E+01  0.20769226422E+02  0.00000000000E+00 0. -1.
</event>
<event>
 8    1  0.2401501E-006  0.9118800E+02  0.7816164E-02  0.1184000E+00
        -11   -1    0    0    0    0  0.00000000000E+00  0.00000000000E+00  0.45593999997E+02  0.45594000000E+02  0.51100000000E-03 0.  1.
         11   -1    0    0    0    0 -0.00000000000E+00 -0.00000000000E+00 -0.45593999997E+02  0.45594000000E+02  0.51100000000E-03 0. -1.
         23    2    1    2    0    0  0.00000000000E+00  0.13322676296E-14  0.00000000000E+00  0.91188000000E+02  0.91188000000E+02 0.  0.
    9900012    2    3    3    0    0  0.22540828266E+01  0.25326313186E+01 -0.36664726014E+02  0.54366847866E+02  0.39999461276E+02 0.  0.
        -12    1    3    3    0    0 -0.22540828266E+01 -0.25326313186E+01  0.36664726014E+02  0.36821152134E+02  0.00000000000E+00 0.  1.
         11    1    4    4    0    0  0.10612503864E+02 -0.19468006400E+01 -0.24831823279E+01  0.11071651446E+02  0.51100000000E-03 0. -1.
        -11    1    4    4    0    0 -0.34982433655E+01 -0.76378511937E+00  0.34608966723E+01  0.49798474264E+01  0.51100000000E-03 0.  1.
         12    1    4    4    0    0 -0.48601776723E+01  0.52432170779E+01 -0.37642440359E+02  0.38315348994E+02  0.00000000000E+00 0. -1.
</event>
<event>
 8    1  0.2401501E-006  0.9118800E+02  0.7816164E-02  0.1184000E+00
        -11   -1    0    0    0    0  0.00000000000E+00  0.00000000000E+00  0.45593999997E+02  0.45594000000E+02  0.51100000000E-03 0.  1.
         11   -1    0    0    0    0 -0.00000000000E+00 -0.00000000000E+00 -0.45593999997E+02  0.45594000000E+02  0.51100000000E-03 0. -1.
         23    2    1    2    0    0  0.00000000000E+00  0.00000000000E+00 -0.44408920985E-15  0.91188000000E+02  0.91188000000E+02 0.  0.
    9900012    2    3    3    0    0 -0.33841622103E+02 -0.14068324775E+02  0.35504899927E+01  0.54367093877E+02  0.40000022111E+02 0.  0.
         12    1    3    3    0    0  0.33841622103E+02  0.14068324775E+02 -0.35504899927E+01  0.36820906123E+02  0.00000000000E+00 0. -1.
         11    1    4    4    0    0 -0.47864186174E+01  0.10513547013E+01 -0.14161201642E+02  0.14985152054E+02  0.51100000000E-03 0. -1.
        -11    1    4    4    0    0 -0.16674560234E+02 -0.19984003198E+01  0.58145671567E+01  0.17771993538E+02  0.51100000000E-03 0.  1.
         12    1    4    4    0    0 -0.12380643251E+02 -0.13121279157E+02  0.11897124477E+02  0.21609948284E+02  0.00000000000E+00 0. -1.
</event>
<event>
 8    1  0.3567422E-006  0.9118800E+02  0.7816164E-02  0.1184000E+00
        -11   -1    0    0    0    0  0.00000000000E+00  0.00000000000E+00  0.45593999997E+02  0.45594000000E+02  0.51100000000E-03 0.  1.
         11   -1    0    0    0    0 -0.00000000000E+00 -0.00000000000E+00 -0.45593999997E+02  0.45594000000E+02  0.51100000000E-03 0. -1.
         23    2    1    2    0    0  0.00000000000E+00 -0.44408920985E-15 -0.35527136788E-14  0.91188000000E+02  0.91188000000E+02 0.  0.
    9900012    2    3    3    0    0  0.21464584563E+02 -0.31573230883E+01  0.29750341530E+02  0.54367083381E+02  0.39999998183E+02 0.  0.
         12    1    3    3    0    0 -0.21464584563E+02  0.31573230883E+01 -0.29750341530E+02  0.36820916619E+02  0.00000000000E+00 0. -1.
         11    1    4    4    0    0  0.11296415979E+02  0.90595886727E+00 -0.21225713348E+00  0.11334673740E+02  0.51100000000E-03 0. -1.
        -11    1    4    4    0    0  0.19227361912E+02  0.94714777929E+00  0.13238249653E+02  0.23363214444E+02  0.51100000000E-03 0.  1.
        -12    1    4    4    0    0 -0.90591933282E+01 -0.50104297348E+01  0.16724349010E+02  0.19669195197E+02  0.00000000000E+00 0.  1.
</event>
<event>
 8    1  0.2401501E-006  0.9118800E+02  0.7816164E-02  0.1184000E+00
        -11   -1    0    0    0    0  0.00000000000E+00  0.00000000000E+00  0.45593999997E+02  0.45594000000E+02  0.51100000000E-03 0. -1.
         11   -1    0    0    0    0 -0.00000000000E+00 -0.00000000000E+00 -0.45593999997E+02  0.45594000000E+02  0.51100000000E-03 0.  1.
         23    2    1    2    0    0  0.00000000000E+00  0.00000000000E+00  0.00000000000E+00  0.91188000000E+02  0.91188000000E+02 0.  0.
    9900012    2    3    3    0    0  0.55934497429E+01  0.16640416482E+02 -0.32366495409E+02  0.54367079781E+02  0.39999989976E+02 0.  0.
         12    1    3    3    0    0 -0.55934497429E+01 -0.16640416482E+02  0.32366495409E+02  0.36820920219E+02  0.00000000000E+00 0. -1.
         11    1    4    4    0    0 -0.28522304145E+01  0.55931230965E-01 -0.20890942301E+01  0.35359102935E+01  0.51100000000E-03 0. -1.
        -11    1    4    4    0    0  0.19537516293E+02  0.10007543801E+02 -0.50886925064E+01  0.22533536507E+02  0.51100000000E-03 0.  1.
        -12    1    4    4    0    0 -0.11091836136E+02  0.65769414506E+01 -0.25188708672E+02  0.28297632980E+02  0.00000000000E+00 0.  1.
</event>
<event>
 8    1  0.2401501E-006  0.9118800E+02  0.7816164E-02  0.1184000E+00
        -11   -1    0    0    0    0  0.00000000000E+00  0.00000000000E+00  0.45593999997E+02  0.45594000000E+02  0.51100000000E-03 0.  1.
         11   -1    0    0    0    0 -0.00000000000E+00 -0.00000000000E+00 -0.45593999997E+02  0.45594000000E+02  0.51100000000E-03 0. -1.
         23    2    1    2    0    0  0.35527136788E-14 -0.35527136788E-14  0.13322676296E-14  0.91188000000E+02  0.91188000000E+02 0.  0.
    9900012    2    3    3    0    0  0.30979862910E+02 -0.19659000904E+02 -0.30906024704E+01  0.54367081406E+02  0.39999993682E+02 0.  0.
         12    1    3    3    0    0 -0.30979862910E+02  0.19659000904E+02  0.30906024704E+01  0.36820918594E+02  0.00000000000E+00 0. -1.
         11    1    4    4    0    0  0.36460413991E+01 -0.66610931920E+01  0.14835427882E+02  0.16665944350E+02  0.51100000000E-03 0.  1.
        -11    1    4    4    0    0  0.80049885225E+01 -0.36605530511E+01  0.12830419473E+01  0.88952620413E+01  0.51100000000E-03 0. -1.
         12    1    4    4    0    0  0.19328832988E+02 -0.93373546609E+01 -0.19209072299E+02  0.28805875015E+02  0.00000000000E+00 0. -1.
</event>
<event>
 8    1  0.2401501E-006  0.9118800E+02  0.7816164E-02  0.1184000E+00
        -11   -1    0    0    0    0  0.00000000000E+00  0.00000000000E+00  0.45593999997E+02  0.45594000000E+02  0.51100000000E-03 0.  1.
         11   -1    0    0    0    0 -0.00000000000E+00 -0.00000000000E+00 -0.45593999997E+02  0.45594000000E+02  0.51100000000E-03 0. -1.
         23    2    1    2    0    0 -0.17763568394E-14  0.35527136788E-14  0.00000000000E+00  0.91188000000E+02  0.91188000000E+02 0.  0.
    9900012    2    3    3    0    0 -0.15924970666E+02  0.30776410092E+02  0.12449410562E+02  0.54367082953E+02  0.39999997208E+02 0.  0.
         12    1    3    3    0    0  0.15924970666E+02 -0.30776410092E+02 -0.12449410562E+02  0.36820917047E+02  0.00000000000E+00 0. -1.
         11    1    4    4    0    0 -0.53540933002E+01  0.18726700910E+02  0.74512065763E+00  0.19491301831E+02  0.51100000000E-03 0. -1.
        -11    1    4    4    0    0 -0.13372800324E+02  0.14423761621E+02 -0.28416634715E+01  0.19873392749E+02  0.51100000000E-03 0.  1.
        -12    1    4    4    0    0  0.28019229583E+01 -0.23740524394E+01  0.14545953376E+02  0.15002388372E+02  0.00000000000E+00 0.  1.
</event>
<event>
 8    1  0.2401501E-006  0.9118800E+02  0.7816164E-02  0.1184000E+00
        -11   -1    0    0    0    0  0.00000000000E+00  0.00000000000E+00  0.45593999997E+02  0.45594000000E+02  0.51100000000E-03 0. -1.
         11   -1    0    0    0    0 -0.00000000000E+00 -0.00000000000E+00 -0.45593999997E+02  0.45594000000E+02  0.51100000000E-03 0.  1.
         23    2    1    2    0    0  0.00000000000E+00  0.00000000000E+00  0.00000000000E+00  0.91188000000E+02  0.91188000000E+02 0.  0.
    9900012    2    3    3    0    0  0.27235448464E+02  0.87244708515E+01 -0.23192510895E+02  0.54367100958E+02  0.40000038253E+02 0.  0.
         12    1    3    3    0    0 -0.27235448464E+02 -0.87244708515E+01  0.23192510895E+02  0.36820899042E+02  0.00000000000E+00 0. -1.
         11    1    4    4    0    0  0.14348331958E+01  0.41197889332E+00  0.49811076360E+01  0.51999910049E+01  0.51100000000E-03 0. -1.
        -11    1    4    4    0    0  0.14039445437E+02 -0.86313517796E+01 -0.22285704078E+02  0.27717483079E+02  0.51100000000E-03 0.  1.
         12    1    4    4    0    0  0.11761169832E+02  0.16943843738E+02 -0.58879144522E+01  0.21449626874E+02  0.00000000000E+00 0. -1.
</event>
<event>
 8    1  0.2401501E-006  0.9118800E+02  0.7816164E-02  0.1184000E+00
        -11   -1    0    0    0    0  0.00000000000E+00  0.00000000000E+00  0.45593999997E+02  0.45594000000E+02  0.51100000000E-03 0.  1.
         11   -1    0    0    0    0 -0.00000000000E+00 -0.00000000000E+00 -0.45593999997E+02  0.45594000000E+02  0.51100000000E-03 0. -1.
         23    2    1    2    0    0  0.00000000000E+00  0.88817841970E-15  0.35527136788E-14  0.91188000000E+02  0.91188000000E+02 0.  0.
    9900012    2    3    3    0    0  0.18218692658E+02 -0.67397670297E+01  0.31279954642E+02  0.54367071383E+02  0.39999970833E+02 0.  0.
         12    1    3    3    0    0 -0.18218692658E+02  0.67397670297E+01 -0.31279954642E+02  0.36820928617E+02  0.00000000000E+00 0. -1.
         11    1    4    4    0    0  0.36931864643E+01  0.15109810322E+02  0.63806615751E+01  0.16812460755E+02  0.51100000000E-03 0. -1.
        -11    1    4    4    0    0  0.40394899751E+01 -0.73450322055E+01  0.14786297549E+02  0.16997104836E+02  0.51100000000E-03 0.  1.
         12    1    4    4    0    0  0.10486016219E+02 -0.14504545146E+02  0.10112995518E+02  0.20557505792E+02  0.00000000000E+00 0. -1.
</event>
<event>
 8    1  0.2401501E-006  0.9118800E+02  0.7816164E-02  0.1184000E+00
        -11   -1    0    0    0    0  0.00000000000E+00  0.00000000000E+00  0.45593999997E+02  0.45594000000E+02  0.51100000000E-03 0.  1.
         11   -1    0    0    0    0 -0.00000000000E+00 -0.00000000000E+00 -0.45593999997E+02  0.45594000000E+02  0.51100000000E-03 0. -1.
         23    2    1    2    0    0 -0.35527136788E-14 -0.35527136788E-14 -0.35527136788E-14  0.91188000000E+02  0.91188000000E+02 0.  0.
    9900012    2    3    3    0    0  0.28536226607E+02  0.22201003239E+02  0.69701382487E+01  0.54367033133E+02  0.39999883634E+02 0.  0.
        -12    1    3    3    0    0 -0.28536226607E+02 -0.22201003239E+02 -0.69701382487E+01  0.36820966867E+02  0.00000000000E+00 0.  1.
         11    1    4    4    0    0  0.16909828990E+02  0.18574521595E+02  0.20769173718E+02  0.32593154897E+02  0.51100000000E-03 0. -1.
        -11    1    4    4    0    0  0.34093718228E+01  0.25883162553E+00 -0.12301886570E+02  0.12768211444E+02  0.51100000000E-03 0.  1.
        -12    1    4    4    0    0  0.82170257940E+01  0.33676500191E+01 -0.14971488997E+01  0.90056667925E+01  0.00000000000E+00 0.  1.
</event>
<event>
 8    1  0.2401501E-006  0.9118800E+02  0.7816164E-02  0.1184000E+00
        -11   -1    0    0    0    0  0.00000000000E+00  0.00000000000E+00  0.45593999997E+02  0.45594000000E+02  0.51100000000E-03 0.  1.
         11   -1    0    0    0    0 -0.00000000000E+00 -0.00000000000E+00 -0.45593999997E+02  0.45594000000E+02  0.51100000000E-03 0. -1.
         23    2    1    2    0    0  0.44408920985E-15  0.00000000000E+00  0.35527136788E-14  0.91188000000E+02  0.91188000000E+02 0.  0.
    9900012    2    3    3    0    0 -0.31511858799E+01  0.19848625897E+02 -0.30852587255E+02  0.54367081180E+02  0.39999993166E+02 0.  0.
        -12    1    3    3    0    0  0.31511858799E+01 -0.19848625897E+02  0.30852587255E+02  0.36820918820E+02  0.00000000000E+00 0.  1.
         11    1    4    4    0    0 -0.42176242459E+01  0.24904373830E+01 -0.11405806837E+02  0.12413019879E+02  0.51100000000E-03 0. -1.
        -11    1    4    4    0    0 -0.50655785076E+01 -0.57481512064E+01 -0.16079968162E+02  0.17811982042E+02  0.51100000000E-03 0.  1.
         12    1    4    4    0    0  0.61320168736E+01  0.23106339720E+02 -0.33668122559E+01  0.24142079260E+02  0.00000000000E+00 0. -1.
</event>
<event>
 8    1  0.2401501E-006  0.9118800E+02  0.7816164E-02  0.1184000E+00
        -11   -1    0    0    0    0  0.00000000000E+00  0.00000000000E+00  0.45593999997E+02  0.45594000000E+02  0.51100000000E-03 0.  1.
         11   -1    0    0    0    0 -0.00000000000E+00 -0.00000000000E+00 -0.45593999997E+02  0.45594000000E+02  0.51100000000E-03 0. -1.
         23    2    1    2    0    0  0.77715611724E-15  0.00000000000E+00 -0.88817841970E-15  0.91188000000E+02  0.91188000000E+02 0.  0.
    9900012    2    3    3    0    0  0.73614070137E+00  0.36233449826E+02  0.65096506976E+01  0.54367077393E+02  0.39999984534E+02 0.  0.
         12    1    3    3    0    0 -0.73614070137E+00 -0.36233449826E+02 -0.65096506976E+01  0.36820922607E+02  0.00000000000E+00 0. -1.
         11    1    4    4    0    0  0.81544646762E+01  0.20318406523E+02  0.14559957004E+02  0.26293065360E+02  0.51100000000E-03 0.  1.
        -11    1    4    4    0    0  0.16956266245E+01 -0.20536041206E+01 -0.74560429415E+01  0.79173869516E+01  0.51100000000E-03 0. -1.
         12    1    4    4    0    0 -0.91139505994E+01  0.17968647423E+02 -0.59426336526E+00  0.20156625082E+02  0.00000000000E+00 0. -1.
</event>
<event>
 8    1  0.2401501E-006  0.9118800E+02  0.7816164E-02  0.1184000E+00
        -11   -1    0    0    0    0  0.00000000000E+00  0.00000000000E+00  0.45593999997E+02  0.45594000000E+02  0.51100000000E-03 0.  1.
         11   -1    0    0    0    0 -0.00000000000E+00 -0.00000000000E+00 -0.45593999997E+02  0.45594000000E+02  0.51100000000E-03 0. -1.
         23    2    1    2    0    0  0.00000000000E+00  0.00000000000E+00  0.00000000000E+00  0.91188000000E+02  0.91188000000E+02 0.  0.
    9900012    2    3    3    0    0 -0.25579132432E+02 -0.24496279154E+02 -0.10070769522E+02  0.54367080577E+02  0.39999991793E+02 0.  0.
        -12    1    3    3    0    0  0.25579132432E+02  0.24496279154E+02  0.10070769522E+02  0.36820919423E+02  0.00000000000E+00 0.  1.
         11    1    4    4    0    0 -0.20420389865E+02 -0.17776542261E+02 -0.15472987171E+01  0.27118110380E+02  0.51100000000E-03 0. -1.
        -11    1    4    4    0    0 -0.56993988450E+01  0.87005578837E+01 -0.25989966297E+01  0.10720897277E+02  0.51100000000E-03 0.  1.
        -12    1    4    4    0    0  0.54065627840E+00 -0.15420294777E+02 -0.59244741751E+01  0.16528072920E+02  0.00000000000E+00 0.  1.
</event>
<event>
 8    1  0.2401501E-006  0.9118800E+02  0.7816164E-02  0.1184000E+00
        -11   -1    0    0    0    0  0.00000000000E+00  0.00000000000E+00  0.45593999997E+02  0.45594000000E+02  0.51100000000E-03 0. -1.
         11   -1    0    0    0    0 -0.00000000000E+00 -0.00000000000E+00 -0.45593999997E+02  0.45594000000E+02  0.51100000000E-03 0.  1.
         23    2    1    2    0    0 -0.61062266354E-15  0.00000000000E+00 -0.17763568394E-14  0.91188000000E+02  0.91188000000E+02 0.  0.
    9900012    2    3    3    0    0 -0.20566694547E+00 -0.35391681487E+02 -0.10157112352E+02  0.54367077297E+02  0.39999984313E+02 0.  0.
        -12    1    3    3    0    0  0.20566694547E+00  0.35391681487E+02  0.10157112352E+02  0.36820922703E+02  0.00000000000E+00 0.  1.
         11    1    4    4    0    0 -0.17290901291E+02 -0.12385205679E+02 -0.16476528775E+01  0.21332682612E+02  0.51100000000E-03 0. -1.
        -11    1    4    4    0    0  0.84160834071E+01 -0.11803771361E+02 -0.11563261773E+02  0.18543691686E+02  0.51100000000E-03 0.  1.
         12    1    4    4    0    0  0.86691509380E+01 -0.11202704447E+02  0.30538022986E+01  0.14490702999E+02  0.00000000000E+00 0. -1.
</event>
<event>
 8    1  0.2401501E-006  0.9118800E+02  0.7816164E-02  0.1184000E+00
        -11   -1    0    0    0    0  0.00000000000E+00  0.00000000000E+00  0.45593999997E+02  0.45594000000E+02  0.51100000000E-03 0.  1.
         11   -1    0    0    0    0 -0.00000000000E+00 -0.00000000000E+00 -0.45593999997E+02  0.45594000000E+02  0.51100000000E-03 0. -1.
         23    2    1    2    0    0  0.00000000000E+00  0.88817841970E-15  0.00000000000E+00  0.91188000000E+02  0.91188000000E+02 0.  0.
    9900012    2    3    3    0    0  0.35035625345E+02  0.62222635120E+01  0.94640942250E+01  0.54367072716E+02  0.39999973871E+02 0.  0.
         12    1    3    3    0    0 -0.35035625345E+02 -0.62222635120E+01 -0.94640942250E+01  0.36820927284E+02  0.00000000000E+00 0. -1.
         11    1    4    4    0    0  0.11751933276E+02  0.89692027118E+01  0.80098572313E+01  0.16814052044E+02  0.51100000000E-03 0. -1.
        -11    1    4    4    0    0  0.10756558059E+02 -0.98929987231E+01  0.12623745782E+02  0.19311497167E+02  0.51100000000E-03 0.  1.
        -12    1    4    4    0    0  0.12527134011E+02  0.71460595233E+01 -0.11169508788E+02  0.18241523505E+02  0.00000000000E+00 0.  1.
</event>
<event>
 8    1  0.2401501E-006  0.9118800E+02  0.7816164E-02  0.1184000E+00
        -11   -1    0    0    0    0  0.00000000000E+00  0.00000000000E+00  0.45593999997E+02  0.45594000000E+02  0.51100000000E-03 0.  1.
         11   -1    0    0    0    0 -0.00000000000E+00 -0.00000000000E+00 -0.45593999997E+02  0.45594000000E+02  0.51100000000E-03 0. -1.
         23    2    1    2    0    0 -0.71054273576E-14  0.35527136788E-14 -0.44408920985E-15  0.91188000000E+02  0.91188000000E+02 0.  0.
    9900012    2    3    3    0    0  0.30209284887E+02 -0.20796267145E+02  0.32703452179E+01  0.54367071462E+02  0.39999971012E+02 0.  0.
         12    1    3    3    0    0 -0.30209284887E+02  0.20796267145E+02 -0.32703452179E+01  0.36820928538E+02  0.00000000000E+00 0. -1.
         11    1    4    4    0    0  0.10633047326E+02  0.62216834947E+01  0.11777876041E+02  0.17043749741E+02  0.51100000000E-03 0. -1.
        -11    1    4    4    0    0  0.13042492327E+02 -0.15755525090E+02  0.20562273009E+01  0.20556537839E+02  0.51100000000E-03 0.  1.
        -12    1    4    4    0    0  0.65337452345E+01 -0.11262425550E+02 -0.10563758124E+02  0.16766783882E+02  0.00000000000E+00 0.  1.
</event>
<event>
 8    1  0.2401501E-006  0.9118800E+02  0.7816164E-02  0.1184000E+00
        -11   -1    0    0    0    0  0.00000000000E+00  0.00000000000E+00  0.45593999997E+02  0.45594000000E+02  0.51100000000E-03 0.  1.
         11   -1    0    0    0    0 -0.00000000000E+00 -0.00000000000E+00 -0.45593999997E+02  0.45594000000E+02  0.51100000000E-03 0. -1.
         23    2    1    2    0    0  0.00000000000E+00 -0.35527136788E-14  0.00000000000E+00  0.91188000000E+02  0.91188000000E+02 0.  0.
    9900012    2    3    3    0    0  0.30352870049E+02 -0.17044186159E+02 -0.11998997565E+02  0.54367123523E+02  0.40000089694E+02 0.  0.
        -12    1    3    3    0    0 -0.30352870049E+02  0.17044186159E+02  0.11998997565E+02  0.36820876477E+02  0.00000000000E+00 0.  1.
         11    1    4    4    0    0  0.18550672258E+02  0.28568287128E+01  0.19881287739E+00  0.18770413910E+02  0.51100000000E-03 0. -1.
        -11    1    4    4    0    0  0.90785891687E+01 -0.20118469528E+02  0.10237943716E+01  0.22095740599E+02  0.51100000000E-03 0.  1.
        -12    1    4    4    0    0  0.27236086214E+01  0.21745465596E+00 -0.13221604814E+02  0.13500969014E+02  0.00000000000E+00 0.  1.
</event>
<event>
 8    1  0.2401501E-006  0.9118800E+02  0.7816164E-02  0.1184000E+00
        -11   -1    0    0    0    0  0.00000000000E+00  0.00000000000E+00  0.45593999997E+02  0.45594000000E+02  0.51100000000E-03 0.  1.
         11   -1    0    0    0    0 -0.00000000000E+00 -0.00000000000E+00 -0.45593999997E+02  0.45594000000E+02  0.51100000000E-03 0. -1.
         23    2    1    2    0    0  0.17763568394E-14  0.00000000000E+00 -0.71054273576E-14  0.91188000000E+02  0.91188000000E+02 0.  0.
    9900012    2    3    3    0    0 -0.12911544189E+02  0.50744582730E+01  0.34107517698E+02  0.54367070305E+02  0.39999968375E+02 0.  0.
         12    1    3    3    0    0  0.12911544189E+02 -0.50744582730E+01 -0.34107517698E+02  0.36820929695E+02  0.00000000000E+00 0. -1.
         11    1    4    4    0    0  0.10528311489E+02 -0.58481981246E+01  0.19325729324E+02  0.22771266506E+02  0.51100000000E-03 0. -1.
        -11    1    4    4    0    0 -0.20899643977E+02  0.99102074138E+01  0.83232007719E+01  0.24582168348E+02  0.51100000000E-03 0.  1.
         12    1    4    4    0    0 -0.25402117016E+01  0.10124489837E+01  0.64585876013E+01  0.70136354508E+01  0.00000000000E+00 0. -1.
</event>
<event>
 8    1  0.2401501E-006  0.9118800E+02  0.7816164E-02  0.1184000E+00
        -11   -1    0    0    0    0  0.00000000000E+00  0.00000000000E+00  0.45593999997E+02  0.45594000000E+02  0.51100000000E-03 0.  1.
         11   -1    0    0    0    0 -0.00000000000E+00 -0.00000000000E+00 -0.45593999997E+02  0.45594000000E+02  0.51100000000E-03 0. -1.
         23    2    1    2    0    0  0.00000000000E+00 -0.17763568394E-14  0.00000000000E+00  0.91188000000E+02  0.91188000000E+02 0.  0.
    9900012    2    3    3    0    0 -0.10757304379E+02 -0.90865531397E+01  0.34021985453E+02  0.54367074705E+02  0.39999978404E+02 0.  0.
         12    1    3    3    0    0  0.10757304379E+02  0.90865531397E+01 -0.34021985453E+02  0.36820925295E+02  0.00000000000E+00 0. -1.
         11    1    4    4    0    0 -0.10954572700E+02  0.18917164178E+01 -0.42368134344E+00  0.11124781355E+02  0.51100000000E-03 0. -1.
        -11    1    4    4    0    0 -0.11514227685E+02 -0.60557030642E+01  0.21318027776E+02  0.24974132363E+02  0.51100000000E-03 0.  1.
         12    1    4    4    0    0  0.11711496006E+02 -0.49225664933E+01  0.13127639021E+02  0.18268160987E+02  0.00000000000E+00 0. -1.
</event>
<event>
 8    1  0.2401501E-006  0.9118800E+02  0.7816164E-02  0.1184000E+00
        -11   -1    0    0    0    0  0.00000000000E+00  0.00000000000E+00  0.45593999997E+02  0.45594000000E+02  0.51100000000E-03 0.  1.
         11   -1    0    0    0    0 -0.00000000000E+00 -0.00000000000E+00 -0.45593999997E+02  0.45594000000E+02  0.51100000000E-03 0. -1.
         23    2    1    2    0    0 -0.44408920985E-15  0.35527136788E-14  0.00000000000E+00  0.91188000000E+02  0.91188000000E+02 0.  0.
    9900012    2    3    3    0    0  0.35197874891E+01 -0.30961677703E+02 -0.19615435958E+02  0.54367085862E+02  0.40000003839E+02 0.  0.
        -12    1    3    3    0    0 -0.35197874891E+01  0.30961677703E+02  0.19615435958E+02  0.36820914138E+02  0.00000000000E+00 0.  1.
         11    1    4    4    0    0  0.36606579354E+01 -0.15083669184E+02 -0.15363001799E+02  0.21838940384E+02  0.51100000000E-03 0. -1.
        -11    1    4    4    0    0  0.11710506992E+02 -0.16347952612E+02 -0.60235010009E+00  0.20118507760E+02  0.51100000000E-03 0.  1.
        -12    1    4    4    0    0 -0.11851377438E+02  0.46994409248E+00 -0.36500840591E+01  0.12409637717E+02  0.00000000000E+00 0.  1.
</event>
<event>
 8    1  0.2401501E-006  0.9118800E+02  0.7816164E-02  0.1184000E+00
        -11   -1    0    0    0    0  0.00000000000E+00  0.00000000000E+00  0.45593999997E+02  0.45594000000E+02  0.51100000000E-03 0.  1.
         11   -1    0    0    0    0 -0.00000000000E+00 -0.00000000000E+00 -0.45593999997E+02  0.45594000000E+02  0.51100000000E-03 0. -1.
         23    2    1    2    0    0 -0.71054273576E-14 -0.88817841970E-15 -0.88817841970E-15  0.91188000000E+02  0.91188000000E+02 0.  0.
    9900012    2    3    3    0    0 -0.36257770320E+02 -0.62897736770E+01 -0.12616592499E+01  0.54367096351E+02  0.40000027751E+02 0.  0.
        -12    1    3    3    0    0  0.36257770320E+02  0.62897736770E+01  0.12616592499E+01  0.36820903649E+02  0.00000000000E+00 0.  1.
         11    1    4    4    0    0 -0.71106218933E+01  0.21515825441E+01  0.91963165482E+01  0.11822118654E+02  0.51100000000E-03 0. -1.
        -11    1    4    4    0    0  0.28026443083E+01  0.54859380531E+01 -0.32076491553E+01  0.69454549748E+01  0.51100000000E-03 0.  1.
         12    1    4    4    0    0 -0.31949792735E+02 -0.13927294274E+02 -0.72503266429E+01  0.35599522722E+02  0.00000000000E+00 0. -1.
</event>
<event>
 8    1  0.2401501E-006  0.9118800E+02  0.7816164E-02  0.1184000E+00
        -11   -1    0    0    0    0  0.00000000000E+00  0.00000000000E+00  0.45593999997E+02  0.45594000000E+02  0.51100000000E-03 0.  1.
         11   -1    0    0    0    0 -0.00000000000E+00 -0.00000000000E+00 -0.45593999997E+02  0.45594000000E+02  0.51100000000E-03 0. -1.
         23    2    1    2    0    0 -0.35527136788E-14 -0.17763568394E-14 -0.71054273576E-14  0.91188000000E+02  0.91188000000E+02 0.  0.
    9900012    2    3    3    0    0 -0.21471890809E+02 -0.97015870947E+01 -0.28295186034E+02  0.54367076060E+02  0.39999981495E+02 0.  0.
        -12    1    3    3    0    0  0.21471890809E+02  0.97015870947E+01  0.28295186034E+02  0.36820923940E+02  0.00000000000E+00 0.  1.
         11    1    4    4    0    0 -0.32601401127E+00 -0.20489228528E+02 -0.12467457186E+02  0.23986501616E+02  0.51100000000E-03 0. -1.
        -11    1    4    4    0    0 -0.67203329886E+01 -0.61126371238E-02 -0.87279466658E+01  0.11015442166E+02  0.51100000000E-03 0.  1.
        -12    1    4    4    0    0 -0.14425543810E+02  0.10793754071E+02 -0.70997821818E+01  0.19365132279E+02  0.00000000000E+00 0.  1.
</event>
<event>
 8    1  0.2401501E-006  0.9118800E+02  0.7816164E-02  0.1184000E+00
        -11   -1    0    0    0    0  0.00000000000E+00  0.00000000000E+00  0.45593999997E+02  0.45594000000E+02  0.51100000000E-03 0.  1.
         11   -1    0    0    0    0 -0.00000000000E+00 -0.00000000000E+00 -0.45593999997E+02  0.45594000000E+02  0.51100000000E-03 0. -1.
         23    2    1    2    0    0  0.71054273576E-14  0.88817841970E-15 -0.17763568394E-14  0.91188000000E+02  0.91188000000E+02 0.  0.
    9900012    2    3    3    0    0  0.33025219307E+02  0.40677048328E+01 -0.15766000648E+02  0.54367107706E+02  0.40000053638E+02 0.  0.
        -12    1    3    3    0    0 -0.33025219307E+02 -0.40677048328E+01  0.15766000648E+02  0.36820892294E+02  0.00000000000E+00 0.  1.
         11    1    4    4    0    0  0.29045034957E+01 -0.10808489964E+02 -0.67288797762E+01  0.13058997633E+02  0.51100000000E-03 0. -1.
        -11    1    4    4    0    0 -0.29048623489E+01  0.66942826509E+00  0.21280362866E+01  0.36626354127E+01  0.51100000000E-03 0.  1.
        -12    1    4    4    0    0  0.33025578160E+02  0.14206766532E+02 -0.11165157159E+02  0.37645474661E+02  0.00000000000E+00 0.  1.
</event>
<event>
 8    1  0.2401501E-006  0.9118800E+02  0.7816164E-02  0.1184000E+00
        -11   -1    0    0    0    0  0.00000000000E+00  0.00000000000E+00  0.45593999997E+02  0.45594000000E+02  0.51100000000E-03 0.  1.
         11   -1    0    0    0    0 -0.00000000000E+00 -0.00000000000E+00 -0.45593999997E+02  0.45594000000E+02  0.51100000000E-03 0. -1.
         23    2    1    2    0    0  0.00000000000E+00  0.00000000000E+00  0.00000000000E+00  0.91188000000E+02  0.91188000000E+02 0.  0.
    9900012    2    3    3    0    0 -0.36587568007E+02 -0.40363132347E+01  0.91511102425E+00  0.54367090378E+02  0.40000014135E+02 0.  0.
         12    1    3    3    0    0  0.36587568007E+02  0.40363132347E+01 -0.91511102425E+00  0.36820909622E+02  0.00000000000E+00 0. -1.
         11    1    4    4    0    0 -0.33886941069E+01  0.80847881001E+01 -0.15874177401E+01  0.89088125873E+01  0.51100000000E-03 0. -1.
        -11    1    4    4    0    0 -0.20704112530E+02 -0.44170131623E+01 -0.12405039128E+02  0.24536814727E+02  0.51100000000E-03 0.  1.
        -12    1    4    4    0    0 -0.12494761371E+02 -0.77040881725E+01  0.14907567892E+02  0.20921463064E+02  0.00000000000E+00 0.  1.
</event>
<event>
 8    1  0.2401501E-006  0.9118800E+02  0.7816164E-02  0.1184000E+00
        -11   -1    0    0    0    0  0.00000000000E+00  0.00000000000E+00  0.45593999997E+02  0.45594000000E+02  0.51100000000E-03 0.  1.
         11   -1    0    0    0    0 -0.00000000000E+00 -0.00000000000E+00 -0.45593999997E+02  0.45594000000E+02  0.51100000000E-03 0. -1.
         23    2    1    2    0    0  0.17763568394E-14  0.00000000000E+00  0.00000000000E+00  0.91188000000E+02  0.91188000000E+02 0.  0.
    9900012    2    3    3    0    0 -0.87672020621E+01 -0.14464877903E+02  0.32705973983E+02  0.54367119254E+02  0.40000079964E+02 0.  0.
         12    1    3    3    0    0  0.87672020621E+01  0.14464877903E+02 -0.32705973983E+02  0.36820880746E+02  0.00000000000E+00 0. -1.
         11    1    4    4    0    0 -0.10015613528E+02 -0.68768532834E+01  0.56334422017E+01  0.13391762271E+02  0.51100000000E-03 0. -1.
        -11    1    4    4    0    0 -0.11839568768E+02 -0.56765006764E+01  0.24060421733E+02  0.27409887683E+02  0.51100000000E-03 0.  1.
         12    1    4    4    0    0  0.13087980234E+02 -0.19115239433E+01  0.30121100476E+01  0.13565469300E+02  0.00000000000E+00 0. -1.
</event>
<event>
 8    1  0.2401501E-006  0.9118800E+02  0.7816164E-02  0.1184000E+00
        -11   -1    0    0    0    0  0.00000000000E+00  0.00000000000E+00  0.45593999997E+02  0.45594000000E+02  0.51100000000E-03 0. -1.
         11   -1    0    0    0    0 -0.00000000000E+00 -0.00000000000E+00 -0.45593999997E+02  0.45594000000E+02  0.51100000000E-03 0.  1.
         23    2    1    2    0    0  0.00000000000E+00  0.00000000000E+00  0.00000000000E+00  0.91188000000E+02  0.91188000000E+02 0.  0.
    9900012    2    3    3    0    0 -0.19774361753E+02  0.25826552989E+02 -0.17255269783E+02  0.54367074464E+02  0.39999977856E+02 0.  0.
         12    1    3    3    0    0  0.19774361753E+02 -0.25826552989E+02  0.17255269783E+02  0.36820925536E+02  0.00000000000E+00 0. -1.
         11    1    4    4    0    0 -0.11138667418E+02  0.19702491363E+02  0.41329555374E-01  0.22633156787E+02  0.51100000000E-03 0. -1.
        -11    1    4    4    0    0 -0.11610087115E+02  0.11239207228E+02 -0.32371628295E+01  0.16480082687E+02  0.51100000000E-03 0.  1.
        -12    1    4    4    0    0  0.29743927808E+01 -0.51151456015E+01 -0.14059436509E+02  0.15253834990E+02  0.00000000000E+00 0.  1.
</event>
<event>
 8    1  0.2401501E-006  0.9118800E+02  0.7816164E-02  0.1184000E+00
        -11   -1    0    0    0    0  0.00000000000E+00  0.00000000000E+00  0.45593999997E+02  0.45594000000E+02  0.51100000000E-03 0.  1.
         11   -1    0    0    0    0 -0.00000000000E+00 -0.00000000000E+00 -0.45593999997E+02  0.45594000000E+02  0.51100000000E-03 0. -1.
         23    2    1    2    0    0  0.00000000000E+00  0.00000000000E+00  0.00000000000E+00  0.91188000000E+02  0.91188000000E+02 0.  0.
    9900012    2    3    3    0    0  0.34719469835E+02  0.30559163869E+01  0.11874387880E+02  0.54367064404E+02  0.39999954923E+02 0.  0.
         12    1    3    3    0    0 -0.34719469835E+02 -0.30559163869E+01 -0.11874387880E+02  0.36820935596E+02  0.00000000000E+00 0. -1.
         11    1    4    4    0    0  0.10669341788E+02  0.57314068173E+01 -0.62676305390E+01  0.13636974413E+02  0.51100000000E-03 0. -1.
        -11    1    4    4    0    0  0.23862414157E+02  0.74645239927E+01  0.76714125882E+01  0.26153097316E+02  0.51100000000E-03 0.  1.
         12    1    4    4    0    0  0.18771388960E+00 -0.10140014423E+02  0.10470605831E+02  0.14576992676E+02  0.00000000000E+00 0. -1.
</event>
<event>
 8    1  0.2401501E-006  0.9118800E+02  0.7816164E-02  0.1184000E+00
        -11   -1    0    0    0    0  0.00000000000E+00  0.00000000000E+00  0.45593999997E+02  0.45594000000E+02  0.51100000000E-03 0. -1.
         11   -1    0    0    0    0 -0.00000000000E+00 -0.00000000000E+00 -0.45593999997E+02  0.45594000000E+02  0.51100000000E-03 0.  1.
         23    2    1    2    0    0  0.00000000000E+00 -0.17763568394E-14  0.00000000000E+00  0.91188000000E+02  0.91188000000E+02 0.  0.
    9900012    2    3    3    0    0 -0.29850218459E+02  0.14338309677E+02  0.16098403508E+02  0.54367064896E+02  0.39999956042E+02 0.  0.
        -12    1    3    3    0    0  0.29850218459E+02 -0.14338309677E+02 -0.16098403508E+02  0.36820935104E+02  0.00000000000E+00 0.  1.
         11    1    4    4    0    0 -0.36190149675E+01 -0.53778637818E+01 -0.75155951320E+01  0.99248606358E+01  0.51100000000E-03 0. -1.
        -11    1    4    4    0    0 -0.55767381450E+01  0.85042206068E+00 -0.25032469823E+01  0.61716668522E+01  0.51100000000E-03 0.  1.
         12    1    4    4    0    0 -0.20654465347E+02  0.18865751398E+02  0.26117245622E+02  0.38270537408E+02  0.00000000000E+00 0. -1.
</event>
<event>
 8    1  0.2401501E-006  0.9118800E+02  0.7816164E-02  0.1184000E+00
        -11   -1    0    0    0    0  0.00000000000E+00  0.00000000000E+00  0.45593999997E+02  0.45594000000E+02  0.51100000000E-03 0.  1.
         11   -1    0    0    0    0 -0.00000000000E+00 -0.00000000000E+00 -0.45593999997E+02  0.45594000000E+02  0.51100000000E-03 0. -1.
         23    2    1    2    0    0  0.17763568394E-14 -0.53290705182E-14  0.00000000000E+00  0.91188000000E+02  0.91188000000E+02 0.  0.
    9900012    2    3    3    0    0  0.60732942400E+01 -0.13982354277E+02 -0.33517003134E+02  0.54367073435E+02  0.39999975509E+02 0.  0.
        -12    1    3    3    0    0 -0.60732942400E+01  0.13982354277E+02  0.33517003134E+02  0.36820926565E+02  0.00000000000E+00 0.  1.
         11    1    4    4    0    0 -0.25633953067E+00  0.10679657193E+02 -0.20648487337E+02  0.23248243316E+02  0.51100000000E-03 0. -1.
        -11    1    4    4    0    0 -0.35285438667E+01 -0.90052390754E+01 -0.28727545438E+01  0.10089483215E+02  0.51100000000E-03 0.  1.
         12    1    4    4    0    0  0.98581776373E+01 -0.15656772394E+02 -0.99957612531E+01  0.21029346903E+02  0.00000000000E+00 0. -1.
</event>
<event>
 8    1  0.2401501E-006  0.9118800E+02  0.7816164E-02  0.1184000E+00
        -11   -1    0    0    0    0  0.00000000000E+00  0.00000000000E+00  0.45593999997E+02  0.45594000000E+02  0.51100000000E-03 0. -1.
         11   -1    0    0    0    0 -0.00000000000E+00 -0.00000000000E+00 -0.45593999997E+02  0.45594000000E+02  0.51100000000E-03 0.  1.
         23    2    1    2    0    0  0.00000000000E+00 -0.44408920985E-15  0.00000000000E+00  0.91188000000E+02  0.91188000000E+02 0.  0.
    9900012    2    3    3    0    0  0.35952426483E+02  0.34760250946E+01 -0.71498860964E+01  0.54367073998E+02  0.39999976792E+02 0.  0.
         12    1    3    3    0    0 -0.35952426483E+02 -0.34760250946E+01  0.71498860964E+01  0.36820926002E+02  0.00000000000E+00 0. -1.
         11    1    4    4    0    0  0.26083443356E+02  0.16029524449E+02 -0.55234557725E+01  0.31109487867E+02  0.51100000000E-03 0. -1.
        -11    1    4    4    0    0  0.93635606831E+01 -0.23933523793E+01 -0.68269363901E+01  0.11832644041E+02  0.51100000000E-03 0.  1.
         12    1    4    4    0    0  0.50542244367E+00 -0.10160146975E+02  0.52005060662E+01  0.11424942089E+02  0.00000000000E+00 0. -1.
</event>
<event>
 8    1  0.2401501E-006  0.9118800E+02  0.7816164E-02  0.1184000E+00
        -11   -1    0    0    0    0  0.00000000000E+00  0.00000000000E+00  0.45593999997E+02  0.45594000000E+02  0.51100000000E-03 0. -1.
         11   -1    0    0    0    0 -0.00000000000E+00 -0.00000000000E+00 -0.45593999997E+02  0.45594000000E+02  0.51100000000E-03 0.  1.
         23    2    1    2    0    0  0.00000000000E+00  0.00000000000E+00  0.00000000000E+00  0.91188000000E+02  0.91188000000E+02 0.  0.
    9900012    2    3    3    0    0 -0.15415974937E+02 -0.25455476400E+02  0.21682851859E+02  0.54367087101E+02  0.40000006663E+02 0.  0.
        -12    1    3    3    0    0  0.15415974937E+02  0.25455476400E+02 -0.21682851859E+02  0.36820912899E+02  0.00000000000E+00 0.  1.
         11    1    4    4    0    0 -0.76736625441E+01 -0.10021748016E+02  0.44877587899E+01  0.13396287148E+02  0.51100000000E-03 0. -1.
        -11    1    4    4    0    0 -0.88659400703E+01 -0.14788971907E+02 -0.56072125077E+01  0.18131724015E+02  0.51100000000E-03 0.  1.
         12    1    4    4    0    0  0.11236276774E+01 -0.64475647709E+00  0.22802305576E+02  0.22839075937E+02  0.00000000000E+00 0. -1.
</event>
<event>
 8    1  0.2401501E-006  0.9118800E+02  0.7816164E-02  0.1184000E+00
        -11   -1    0    0    0    0  0.00000000000E+00  0.00000000000E+00  0.45593999997E+02  0.45594000000E+02  0.51100000000E-03 0.  1.
         11   -1    0    0    0    0 -0.00000000000E+00 -0.00000000000E+00 -0.45593999997E+02  0.45594000000E+02  0.51100000000E-03 0. -1.
         23    2    1    2    0    0  0.00000000000E+00  0.00000000000E+00  0.00000000000E+00  0.91188000000E+02  0.91188000000E+02 0.  0.
    9900012    2    3    3    0    0 -0.31961040468E+02 -0.15131703891E+02  0.10261675404E+02  0.54367101688E+02  0.40000039917E+02 0.  0.
         12    1    3    3    0    0  0.31961040468E+02  0.15131703891E+02 -0.10261675404E+02  0.36820898312E+02  0.00000000000E+00 0. -1.
         11    1    4    4    0    0 -0.31758153563E+02 -0.13281068583E+01  0.82829432416E+01  0.32847394639E+02  0.51100000000E-03 0. -1.
        -11    1    4    4    0    0  0.91595305444E+00 -0.12659037519E+02  0.81902352291E+01  0.15105302191E+02  0.51100000000E-03 0.  1.
        -12    1    4    4    0    0 -0.11188399598E+01 -0.11445595138E+01 -0.62115030672E+01  0.64144048586E+01  0.00000000000E+00 0.  1.
</event>
<event>
 8    1  0.2401501E-006  0.9118800E+02  0.7816164E-02  0.1184000E+00
        -11   -1    0    0    0    0  0.00000000000E+00  0.00000000000E+00  0.45593999997E+02  0.45594000000E+02  0.51100000000E-03 0. -1.
         11   -1    0    0    0    0 -0.00000000000E+00 -0.00000000000E+00 -0.45593999997E+02  0.45594000000E+02  0.51100000000E-03 0.  1.
         23    2    1    2    0    0 -0.71054273576E-14 -0.17763568394E-14  0.00000000000E+00  0.91188000000E+02  0.91188000000E+02 0.  0.
    9900012    2    3    3    0    0 -0.34164751388E+02  0.10244206502E+02  0.91436075623E+01  0.54367087959E+02  0.40000008621E+02 0.  0.
         12    1    3    3    0    0  0.34164751388E+02 -0.10244206502E+02 -0.91436075623E+01  0.36820912041E+02  0.00000000000E+00 0. -1.
         11    1    4    4    0    0 -0.25634875423E+02 -0.51182920871E+01  0.29554471585E+01  0.26307383375E+02  0.51100000000E-03 0. -1.
        -11    1    4    4    0    0 -0.14977428677E+02  0.68392701027E+01  0.54638339117E+01  0.17347981629E+02  0.51100000000E-03 0.  1.
         12    1    4    4    0    0  0.64475527127E+01  0.85232284865E+01  0.72432649213E+00  0.10711722956E+02  0.00000000000E+00 0. -1.
</event>
<event>
 8    1  0.2401501E-006  0.9118800E+02  0.7816164E-02  0.1184000E+00
        -11   -1    0    0    0    0  0.00000000000E+00  0.00000000000E+00  0.45593999997E+02  0.45594000000E+02  0.51100000000E-03 0.  1.
         11   -1    0    0    0    0 -0.00000000000E+00 -0.00000000000E+00 -0.45593999997E+02  0.45594000000E+02  0.51100000000E-03 0. -1.
         23    2    1    2    0    0  0.00000000000E+00  0.00000000000E+00  0.00000000000E+00  0.91188000000E+02  0.91188000000E+02 0.  0.
    9900012    2    3    3    0    0  0.12816579204E+02 -0.19165915944E+02  0.28708556368E+02  0.54367105861E+02  0.40000049432E+02 0.  0.
         12    1    3    3    0    0 -0.12816579204E+02  0.19165915944E+02 -0.28708556368E+02  0.36820894139E+02  0.00000000000E+00 0. -1.
         11    1    4    4    0    0  0.93405872175E+01 -0.13708019748E+02  0.84522826210E+01  0.18617128047E+02  0.51100000000E-03 0. -1.
        -11    1    4    4    0    0 -0.83400492052E+01 -0.12946374776E+02  0.11826325919E+02  0.19417183771E+02  0.51100000000E-03 0.  1.
        -12    1    4    4    0    0  0.11816041192E+02  0.74884785793E+01  0.84299478276E+01  0.16332794043E+02  0.00000000000E+00 0.  1.
</event>
<event>
 8    1  0.2401501E-006  0.9118800E+02  0.7816164E-02  0.1184000E+00
        -11   -1    0    0    0    0  0.00000000000E+00  0.00000000000E+00  0.45593999997E+02  0.45594000000E+02  0.51100000000E-03 0.  1.
         11   -1    0    0    0    0 -0.00000000000E+00 -0.00000000000E+00 -0.45593999997E+02  0.45594000000E+02  0.51100000000E-03 0. -1.
         23    2    1    2    0    0  0.00000000000E+00  0.00000000000E+00  0.13322676296E-14  0.91188000000E+02  0.91188000000E+02 0.  0.
    9900012    2    3    3    0    0  0.30678168312E+02  0.20126799724E+02  0.30889577675E+01  0.54367085587E+02  0.40000003212E+02 0.  0.
         12    1    3    3    0    0 -0.30678168312E+02 -0.20126799724E+02 -0.30889577675E+01  0.36820914413E+02  0.00000000000E+00 0. -1.
         11    1    4    4    0    0  0.20815345491E+02  0.17562654098E+02 -0.69969446170E+01  0.28119080019E+02  0.51100000000E-03 0. -1.
        -11    1    4    4    0    0  0.94376492724E+01  0.96133872323E+01 -0.54787501850E+00  0.13482826305E+02  0.51100000000E-03 0.  1.
         12    1    4    4    0    0  0.42517354876E+00 -0.70492416058E+01  0.10633777403E+02  0.12765179263E+02  0.00000000000E+00 0. -1.
</event>
<event>
 8    1  0.2401501E-006  0.9118800E+02  0.7816164E-02  0.1184000E+00
        -11   -1    0    0    0    0  0.00000000000E+00  0.00000000000E+00  0.45593999997E+02  0.45594000000E+02  0.51100000000E-03 0.  1.
         11   -1    0    0    0    0 -0.00000000000E+00 -0.00000000000E+00 -0.45593999997E+02  0.45594000000E+02  0.51100000000E-03 0. -1.
         23    2    1    2    0    0 -0.17763568394E-14  0.17763568394E-14  0.71054273576E-14  0.91188000000E+02  0.91188000000E+02 0.  0.
    9900012    2    3    3    0    0  0.10576657144E+02  0.17864527102E+01  0.35223890156E+02  0.54367088450E+02  0.40000009740E+02 0.  0.
         12    1    3    3    0    0 -0.10576657144E+02 -0.17864527102E+01 -0.35223890156E+02  0.36820911550E+02  0.00000000000E+00 0. -1.
         11    1    4    4    0    0 -0.13634053418E+01  0.88155670212E+01  0.30896525231E+01  0.94402886082E+01  0.51100000000E-03 0. -1.
        -11    1    4    4    0    0  0.10296523733E+02 -0.45463075251E-02  0.35502128477E+02  0.36965112583E+02  0.51100000000E-03 0.  1.
         12    1    4    4    0    0  0.16435387530E+01 -0.70245680035E+01 -0.33678908439E+01  0.79616872587E+01  0.00000000000E+00 0. -1.
</event>
<event>
 8    1  0.2401501E-006  0.9118800E+02  0.7816164E-02  0.1184000E+00
        -11   -1    0    0    0    0  0.00000000000E+00  0.00000000000E+00  0.45593999997E+02  0.45594000000E+02  0.51100000000E-03 0.  1.
         11   -1    0    0    0    0 -0.00000000000E+00 -0.00000000000E+00 -0.45593999997E+02  0.45594000000E+02  0.51100000000E-03 0. -1.
         23    2    1    2    0    0  0.00000000000E+00  0.88817841970E-15  0.00000000000E+00  0.91188000000E+02  0.91188000000E+02 0.  0.
    9900012    2    3    3    0    0 -0.14605482658E+02  0.42720720499E+01  0.33529229389E+02  0.54367082756E+02  0.39999996759E+02 0.  0.
         12    1    3    3    0    0  0.14605482658E+02 -0.42720720499E+01 -0.33529229389E+02  0.36820917244E+02  0.00000000000E+00 0. -1.
         11    1    4    4    0    0  0.80750183625E+01 -0.23448219938E+01  0.19758647997E+02  0.21473432019E+02  0.51100000000E-03 0. -1.
        -11    1    4    4    0    0 -0.23976683582E+02  0.67642692285E+01  0.16491259409E+02  0.29876384167E+02  0.51100000000E-03 0.  1.
        -12    1    4    4    0    0  0.12961825610E+01 -0.14737518483E+00 -0.27206780173E+01  0.30172665694E+01  0.00000000000E+00 0.  1.
</event>
<event>
 8    1  0.2401501E-006  0.9118800E+02  0.7816164E-02  0.1184000E+00
        -11   -1    0    0    0    0  0.00000000000E+00  0.00000000000E+00  0.45593999997E+02  0.45594000000E+02  0.51100000000E-03 0.  1.
         11   -1    0    0    0    0 -0.00000000000E+00 -0.00000000000E+00 -0.45593999997E+02  0.45594000000E+02  0.51100000000E-03 0. -1.
         23    2    1    2    0    0  0.17763568394E-14  0.71054273576E-14  0.22204460493E-15  0.91188000000E+02  0.91188000000E+02 0.  0.
    9900012    2    3    3    0    0  0.14491759657E+02  0.33797535594E+02 -0.18698737098E+01  0.54367069296E+02  0.39999966075E+02 0.  0.
         12    1    3    3    0    0 -0.14491759657E+02 -0.33797535594E+02  0.18698737098E+01  0.36820930704E+02  0.00000000000E+00 0. -1.
         11    1    4    4    0    0  0.87489276298E+01  0.61047541210E+01 -0.94604432116E+00  0.10710124073E+02  0.51100000000E-03 0. -1.
        -11    1    4    4    0    0 -0.46199113663E+01 -0.51856537892E+01  0.51589387828E+01  0.86515452885E+01  0.51100000000E-03 0.  1.
        -12    1    4    4    0    0  0.10362743394E+02  0.32878435262E+02 -0.60827681714E+01  0.35005399934E+02  0.00000000000E+00 0.  1.
</event>
