<event>
 8    1  0.2530183E-006  0.9118800E+02  0.7816164E-02  0.1184000E+00
        -11   -1    0    0    0    0  0.00000000000E+00  0.00000000000E+00  0.45593999997E+02  0.45594000000E+02  0.51100000000E-03 0. -1.
         11   -1    0    0    0    0 -0.00000000000E+00 -0.00000000000E+00 -0.45593999997E+02  0.45594000000E+02  0.51100000000E-03 0.  1.
         23    2    1    2    0    0  0.00000000000E+00  0.17763568394E-14  0.00000000000E+00  0.91188000000E+02  0.91188000000E+02 0.  0.
    9900012    2    3    3    0    0  0.19181185398E+02  0.13881859820E+02  0.28198514993E+02  0.54367079953E+02  0.39999990368E+02 0.  0.
        -12    1    3    3    0    0 -0.19181185398E+02 -0.13881859820E+02 -0.28198514993E+02  0.36820920047E+02  0.00000000000E+00 0.  1.
         11    1    4    4    0    0 -0.17022656736E+01  0.91522761581E-01  0.71479657476E+01  0.73484351688E+01  0.51100000000E-03 0. -1.
        -11    1    4    4    0    0  0.13566793439E+02 -0.57692555474E+00  0.26683508877E+02  0.29939946118E+02  0.51100000000E-03 0.  1.
        -12    1    4    4    0    0  0.73166576327E+01  0.14367262613E+02 -0.56329596316E+01  0.17078698665E+02  0.00000000000E+00 0.  1.
</event>
<event>
 8    1  0.2530183E-006  0.9118800E+02  0.7816164E-02  0.1184000E+00
        -11   -1    0    0    0    0  0.00000000000E+00  0.00000000000E+00  0.45593999997E+02  0.45594000000E+02  0.51100000000E-03 0. -1.
         11   -1    0    0    0    0 -0.00000000000E+00 -0.00000000000E+00 -0.45593999997E+02  0.45594000000E+02  0.51100000000E-03 0.  1.
         23    2    1    2    0    0 -0.35527136788E-14 -0.13322676296E-14  0.00000000000E+00  0.91188000000E+02  0.91188000000E+02 0.  0.
    9900012    2    3    3    0    0 -0.31713294063E+02  0.35030829581E+01  0.18378621286E+02  0.54367104698E+02  0.40000046779E+02 0.  0.
        -12    1    3    3    0    0  0.31713294063E+02 -0.35030829581E+01 -0.18378621286E+02  0.36820895302E+02  0.00000000000E+00 0.  1.
         11    1    4    4    0    0 -0.58971484935E+01 -0.87075803986E+01  0.23135125142E+01  0.10768038687E+02  0.51100000000E-03 0. -1.
        -11    1    4    4    0    0  0.29553831680E+01  0.82476721531E+01 -0.25225190180E+01  0.91170986653E+01  0.51100000000E-03 0.  1.
         12    1    4    4    0    0 -0.28771528737E+02  0.39629912036E+01  0.18587627789E+02  0.34481967345E+02  0.00000000000E+00 0. -1.
</event>
<event>
 8    1  0.2530183E-006  0.9118800E+02  0.7816164E-02  0.1184000E+00
        -11   -1    0    0    0    0  0.00000000000E+00  0.00000000000E+00  0.45593999997E+02  0.45594000000E+02  0.51100000000E-03 0. -1.
         11   -1    0    0    0    0 -0.00000000000E+00 -0.00000000000E+00 -0.45593999997E+02  0.45594000000E+02  0.51100000000E-03 0.  1.
         23    2    1    2    0    0  0.88817841970E-15  0.00000000000E+00  0.00000000000E+00  0.91188000000E+02  0.91188000000E+02 0.  0.
    9900012    2    3    3    0    0  0.28936863648E+01  0.29305619055E+02  0.22103996295E+02  0.54367090435E+02  0.40000014265E+02 0.  0.
        -12    1    3    3    0    0 -0.28936863648E+01 -0.29305619055E+02 -0.22103996295E+02  0.36820909565E+02  0.00000000000E+00 0.  1.
         11    1    4    4    0    0  0.72352614811E+01  0.16888372005E+02  0.12776736967E+02  0.22378809742E+02  0.51100000000E-03 0. -1.
        -11    1    4    4    0    0  0.28806481401E+01  0.53816051617E+01  0.17800485226E+02  0.18817998894E+02  0.51100000000E-03 0.  1.
        -12    1    4    4    0    0 -0.72222232563E+01  0.70356418890E+01 -0.84732258984E+01  0.13170281800E+02  0.00000000000E+00 0.  1.
</event>
<event>
 8    1  0.2530183E-006  0.9118800E+02  0.7816164E-02  0.1184000E+00
        -11   -1    0    0    0    0  0.00000000000E+00  0.00000000000E+00  0.45593999997E+02  0.45594000000E+02  0.51100000000E-03 0. -1.
         11   -1    0    0    0    0 -0.00000000000E+00 -0.00000000000E+00 -0.45593999997E+02  0.45594000000E+02  0.51100000000E-03 0.  1.
         23    2    1    2    0    0  0.44408920985E-15  0.00000000000E+00  0.00000000000E+00  0.91188000000E+02  0.91188000000E+02 0.  0.
    9900012    2    3    3    0    0 -0.26371734269E+01 -0.26917427670E+02  0.24985548907E+02  0.54367078634E+02  0.39999987362E+02 0.  0.
        -12    1    3    3    0    0  0.26371734269E+01  0.26917427670E+02 -0.24985548907E+02  0.36820921366E+02  0.00000000000E+00 0.  1.
         11    1    4    4    0    0 -0.38584392330E+01 -0.35534513185E+02  0.25336828317E+02  0.43812601498E+02  0.51100000000E-03 0. -1.
        -11    1    4    4    0    0  0.24206268730E+01  0.68356900246E+00  0.10870017023E+00  0.25176411633E+01  0.51100000000E-03 0.  1.
         12    1    4    4    0    0 -0.11993610669E+01  0.79335165129E+01 -0.45997957999E+00  0.80368359722E+01  0.00000000000E+00 0. -1.
</event>
<event>
 8    1  0.2530183E-006  0.9118800E+02  0.7816164E-02  0.1184000E+00
        -11   -1    0    0    0    0  0.00000000000E+00  0.00000000000E+00  0.45593999997E+02  0.45594000000E+02  0.51100000000E-03 0.  1.
         11   -1    0    0    0    0 -0.00000000000E+00 -0.00000000000E+00 -0.45593999997E+02  0.45594000000E+02  0.51100000000E-03 0. -1.
         23    2    1    2    0    0  0.00000000000E+00  0.00000000000E+00  0.17763568394E-14  0.91188000000E+02  0.91188000000E+02 0.  0.
    9900012    2    3    3    0    0 -0.75789002078E+01 -0.33878010698E+02 -0.12272814974E+02  0.54367064045E+02  0.39999954103E+02 0.  0.
        -12    1    3    3    0    0  0.75789002078E+01  0.33878010698E+02  0.12272814974E+02  0.36820935955E+02  0.00000000000E+00 0.  1.
         11    1    4    4    0    0 -0.92268864925E+01 -0.99128323532E+01 -0.22251162480E+02  0.26048299591E+02  0.51100000000E-03 0. -1.
        -11    1    4    4    0    0  0.17408458412E+01 -0.92522643438E+01 -0.16589141478E+01  0.95596514655E+01  0.51100000000E-03 0.  1.
        -12    1    4    4    0    0 -0.92859556515E-01 -0.14712914001E+02  0.11637261654E+02  0.18759112988E+02  0.00000000000E+00 0.  1.
</event>
<event>
 8    1  0.2530183E-006  0.9118800E+02  0.7816164E-02  0.1184000E+00
        -11   -1    0    0    0    0  0.00000000000E+00  0.00000000000E+00  0.45593999997E+02  0.45594000000E+02  0.51100000000E-03 0. -1.
         11   -1    0    0    0    0 -0.00000000000E+00 -0.00000000000E+00 -0.45593999997E+02  0.45594000000E+02  0.51100000000E-03 0.  1.
         23    2    1    2    0    0 -0.71054273576E-14  0.17763568394E-14  0.55511151231E-15  0.91188000000E+02  0.91188000000E+02 0.  0.
    9900012    2    3    3    0    0 -0.35595297397E+02  0.93968678467E+01  0.67369733370E+00  0.54367079449E+02  0.39999989220E+02 0.  0.
         12    1    3    3    0    0  0.35595297397E+02 -0.93968678467E+01 -0.67369733370E+00  0.36820920551E+02  0.00000000000E+00 0. -1.
         11    1    4    4    0    0 -0.10968802816E+02 -0.58050694822E+01  0.17327381189E+01  0.12530596497E+02  0.51100000000E-03 0. -1.
        -11    1    4    4    0    0 -0.13658540372E+02 -0.71178772087E+01 -0.59133041595E+01  0.16498092841E+02  0.51100000000E-03 0.  1.
         12    1    4    4    0    0 -0.10967954209E+02  0.22319814538E+02  0.48542633743E+01  0.25338390111E+02  0.00000000000E+00 0. -1.
</event>
<event>
 8    1  0.2530183E-006  0.9118800E+02  0.7816164E-02  0.1184000E+00
        -11   -1    0    0    0    0  0.00000000000E+00  0.00000000000E+00  0.45593999997E+02  0.45594000000E+02  0.51100000000E-03 0.  1.
         11   -1    0    0    0    0 -0.00000000000E+00 -0.00000000000E+00 -0.45593999997E+02  0.45594000000E+02  0.51100000000E-03 0. -1.
         23    2    1    2    0    0  0.26645352591E-14 -0.22204460493E-15  0.71054273576E-14  0.91188000000E+02  0.91188000000E+02 0.  0.
    9900012    2    3    3    0    0  0.49787083246E+01  0.47145911222E+00  0.36479713485E+02  0.54367091453E+02  0.40000016586E+02 0.  0.
         12    1    3    3    0    0 -0.49787083246E+01 -0.47145911222E+00 -0.36479713485E+02  0.36820908547E+02  0.00000000000E+00 0. -1.
         11    1    4    4    0    0 -0.66023894087E+01  0.59239891362E+01  0.33280427709E+02  0.34442300474E+02  0.51100000000E-03 0. -1.
        -11    1    4    4    0    0  0.10491435301E+02  0.15166164817E+01  0.61762436645E+01  0.12268509539E+02  0.51100000000E-03 0.  1.
         12    1    4    4    0    0  0.10896624319E+01 -0.69691465058E+01 -0.29769578884E+01  0.76562814410E+01  0.00000000000E+00 0. -1.
</event>
<event>
 8    1  0.2530183E-006  0.9118800E+02  0.7816164E-02  0.1184000E+00
        -11   -1    0    0    0    0  0.00000000000E+00  0.00000000000E+00  0.45593999997E+02  0.45594000000E+02  0.51100000000E-03 0.  1.
         11   -1    0    0    0    0 -0.00000000000E+00 -0.00000000000E+00 -0.45593999997E+02  0.45594000000E+02  0.51100000000E-03 0. -1.
         23    2    1    2    0    0  0.38857805862E-15  0.00000000000E+00  0.00000000000E+00  0.91188000000E+02  0.91188000000E+02 0.  0.
    9900012    2    3    3    0    0  0.17183734797E+00  0.31688950078E+02  0.18749933528E+02  0.54367094356E+02  0.40000023203E+02 0.  0.
         12    1    3    3    0    0 -0.17183734797E+00 -0.31688950078E+02 -0.18749933528E+02  0.36820905644E+02  0.00000000000E+00 0. -1.
         11    1    4    4    0    0 -0.82347614391E+01  0.10435842892E+02 -0.69459059382E+01  0.14998790698E+02  0.51100000000E-03 0. -1.
        -11    1    4    4    0    0 -0.14611497245E+01  0.18289357819E+02  0.10908563588E+02  0.21345545853E+02  0.51100000000E-03 0.  1.
         12    1    4    4    0    0  0.98677485116E+01  0.29637493668E+01  0.14787275878E+02  0.18022757805E+02  0.00000000000E+00 0. -1.
</event>
<event>
 8    1  0.2530183E-006  0.9118800E+02  0.7816164E-02  0.1184000E+00
        -11   -1    0    0    0    0  0.00000000000E+00  0.00000000000E+00  0.45593999997E+02  0.45594000000E+02  0.51100000000E-03 0. -1.
         11   -1    0    0    0    0 -0.00000000000E+00 -0.00000000000E+00 -0.45593999997E+02  0.45594000000E+02  0.51100000000E-03 0.  1.
         23    2    1    2    0    0  0.10658141036E-13 -0.17763568394E-14  0.17763568394E-14  0.91188000000E+02  0.91188000000E+02 0.  0.
    9900012    2    3    3    0    0  0.29970314431E+02 -0.14717185995E+02  0.15523062800E+02  0.54367071312E+02  0.39999970671E+02 0.  0.
        -12    1    3    3    0    0 -0.29970314431E+02  0.14717185995E+02 -0.15523062800E+02  0.36820928688E+02  0.00000000000E+00 0.  1.
         11    1    4    4    0    0  0.20142719277E+02  0.38601649984E+01 -0.59680406010E+01  0.21359951371E+02  0.51100000000E-03 0. -1.
        -11    1    4    4    0    0  0.22160332506E+01  0.19064404612E+01  0.11142344042E+01  0.31283921059E+01  0.51100000000E-03 0.  1.
        -12    1    4    4    0    0  0.76115619039E+01 -0.20483791454E+02  0.20376868997E+02  0.29878727836E+02  0.00000000000E+00 0.  1.
</event>
<event>
 8    1  0.2530183E-006  0.9118800E+02  0.7816164E-02  0.1184000E+00
        -11   -1    0    0    0    0  0.00000000000E+00  0.00000000000E+00  0.45593999997E+02  0.45594000000E+02  0.51100000000E-03 0.  1.
         11   -1    0    0    0    0 -0.00000000000E+00 -0.00000000000E+00 -0.45593999997E+02  0.45594000000E+02  0.51100000000E-03 0. -1.
         23    2    1    2    0    0  0.00000000000E+00  0.00000000000E+00 -0.35527136788E-14  0.91188000000E+02  0.91188000000E+02 0.  0.
    9900012    2    3    3    0    0  0.17049416569E+02  0.20937342540E+02  0.25034455362E+02  0.54367097333E+02  0.40000029989E+02 0.  0.
        -12    1    3    3    0    0 -0.17049416569E+02 -0.20937342540E+02 -0.25034455362E+02  0.36820902667E+02  0.00000000000E+00 0.  1.
         11    1    4    4    0    0 -0.44146013026E+01 -0.27892161629E+01  0.16147685555E+01  0.54658859495E+01  0.51100000000E-03 0. -1.
        -11    1    4    4    0    0  0.17479111033E+01  0.70722423117E+00  0.18016259370E+02  0.18114661501E+02  0.51100000000E-03 0.  1.
         12    1    4    4    0    0  0.19716106768E+02  0.23019334471E+02  0.54034274367E+01  0.30786549882E+02  0.00000000000E+00 0. -1.
</event>
<event>
 8    1  0.2530183E-006  0.9118800E+02  0.7816164E-02  0.1184000E+00
        -11   -1    0    0    0    0  0.00000000000E+00  0.00000000000E+00  0.45593999997E+02  0.45594000000E+02  0.51100000000E-03 0.  1.
         11   -1    0    0    0    0 -0.00000000000E+00 -0.00000000000E+00 -0.45593999997E+02  0.45594000000E+02  0.51100000000E-03 0. -1.
         23    2    1    2    0    0  0.00000000000E+00 -0.71054273576E-14 -0.88817841970E-15  0.91188000000E+02  0.91188000000E+02 0.  0.
    9900012    2    3    3    0    0  0.16625942884E+02 -0.32029361475E+02 -0.73128490388E+01  0.54367085640E+02  0.40000003333E+02 0.  0.
         12    1    3    3    0    0 -0.16625942884E+02  0.32029361475E+02  0.73128490388E+01  0.36820914360E+02  0.00000000000E+00 0. -1.
         11    1    4    4    0    0  0.11859289349E-01  0.18930575082E+01  0.23302769941E+01  0.30023321772E+01  0.51100000000E-03 0. -1.
        -11    1    4    4    0    0  0.23892656940E+02 -0.11296046283E+02 -0.25002521473E+01  0.26546392944E+02  0.51100000000E-03 0.  1.
        -12    1    4    4    0    0 -0.72785733450E+01 -0.22626372700E+02 -0.71428738856E+01  0.24818360519E+02  0.00000000000E+00 0.  1.
</event>
<event>
 8    1  0.2530183E-006  0.9118800E+02  0.7816164E-02  0.1184000E+00
        -11   -1    0    0    0    0  0.00000000000E+00  0.00000000000E+00  0.45593999997E+02  0.45594000000E+02  0.51100000000E-03 0. -1.
         11   -1    0    0    0    0 -0.00000000000E+00 -0.00000000000E+00 -0.45593999997E+02  0.45594000000E+02  0.51100000000E-03 0.  1.
         23    2    1    2    0    0  0.00000000000E+00  0.17763568394E-14  0.00000000000E+00  0.91188000000E+02  0.91188000000E+02 0.  0.
    9900012    2    3    3    0    0  0.19192727090E+02  0.15336948190E+02  0.27426196515E+02  0.54367095500E+02  0.40000025810E+02 0.  0.
        -12    1    3    3    0    0 -0.19192727090E+02 -0.15336948190E+02 -0.27426196515E+02  0.36820904500E+02  0.00000000000E+00 0.  1.
         11    1    4    4    0    0  0.14619283516E+02 -0.18366673105E+01  0.23876153605E+02  0.28056505636E+02  0.51100000000E-03 0. -1.
        -11    1    4    4    0    0 -0.53730806299E+01  0.23049813546E+01 -0.37974574885E+01  0.69716295182E+01  0.51100000000E-03 0.  1.
         12    1    4    4    0    0  0.99465242040E+01  0.14868634146E+02  0.73475003994E+01  0.19338960345E+02  0.00000000000E+00 0. -1.
</event>
<event>
 8    1  0.2530183E-006  0.9118800E+02  0.7816164E-02  0.1184000E+00
        -11   -1    0    0    0    0  0.00000000000E+00  0.00000000000E+00  0.45593999997E+02  0.45594000000E+02  0.51100000000E-03 0.  1.
         11   -1    0    0    0    0 -0.00000000000E+00 -0.00000000000E+00 -0.45593999997E+02  0.45594000000E+02  0.51100000000E-03 0. -1.
         23    2    1    2    0    0  0.00000000000E+00  0.00000000000E+00  0.00000000000E+00  0.91188000000E+02  0.91188000000E+02 0.  0.
    9900012    2    3    3    0    0  0.28240685803E+02  0.18782624728E+02  0.14333782584E+02  0.54367073212E+02  0.39999975002E+02 0.  0.
         12    1    3    3    0    0 -0.28240685803E+02 -0.18782624728E+02 -0.14333782584E+02  0.36820926788E+02  0.00000000000E+00 0. -1.
         11    1    4    4    0    0  0.25597201081E+01  0.12889108289E+02 -0.23498785776E+01  0.13349277475E+02  0.51100000000E-03 0. -1.
        -11    1    4    4    0    0  0.52812799429E+01  0.92082282933E+01  0.17350071311E+02  0.20339822047E+02  0.51100000000E-03 0.  1.
         12    1    4    4    0    0  0.20399685752E+02 -0.33147118533E+01 -0.66641014909E+00  0.20677973691E+02  0.00000000000E+00 0. -1.
</event>
<event>
 8    1  0.2530183E-006  0.9118800E+02  0.7816164E-02  0.1184000E+00
        -11   -1    0    0    0    0  0.00000000000E+00  0.00000000000E+00  0.45593999997E+02  0.45594000000E+02  0.51100000000E-03 0.  1.
         11   -1    0    0    0    0 -0.00000000000E+00 -0.00000000000E+00 -0.45593999997E+02  0.45594000000E+02  0.51100000000E-03 0. -1.
         23    2    1    2    0    0  0.00000000000E+00 -0.35527136788E-14  0.35527136788E-14  0.91188000000E+02  0.91188000000E+02 0.  0.
    9900012    2    3    3    0    0  0.50222731791E+01 -0.20644488164E+02  0.30072610226E+02  0.54367081961E+02  0.39999994947E+02 0.  0.
         12    1    3    3    0    0 -0.50222731791E+01  0.20644488164E+02 -0.30072610226E+02  0.36820918039E+02  0.00000000000E+00 0. -1.
         11    1    4    4    0    0 -0.16924911365E+01 -0.70322592755E+01 -0.37179205618E+01  0.81326582573E+01  0.51100000000E-03 0.  1.
        -11    1    4    4    0    0 -0.18832331738E-01  0.46108241100E+01 -0.23709811083E+01  0.51847473716E+01  0.51100000000E-03 0. -1.
        -12    1    4    4    0    0  0.67335966473E+01 -0.18223052999E+02  0.36161511896E+02  0.41049676332E+02  0.00000000000E+00 0.  1.
</event>
<event>
 8    1  0.2530183E-006  0.9118800E+02  0.7816164E-02  0.1184000E+00
        -11   -1    0    0    0    0  0.00000000000E+00  0.00000000000E+00  0.45593999997E+02  0.45594000000E+02  0.51100000000E-03 0.  1.
         11   -1    0    0    0    0 -0.00000000000E+00 -0.00000000000E+00 -0.45593999997E+02  0.45594000000E+02  0.51100000000E-03 0. -1.
         23    2    1    2    0    0 -0.13322676296E-14  0.35527136788E-14  0.71054273576E-14  0.91188000000E+02  0.91188000000E+02 0.  0.
    9900012    2    3    3    0    0 -0.23613793012E+01  0.19344355585E+02  0.31240980137E+02  0.54367094999E+02  0.40000024668E+02 0.  0.
         12    1    3    3    0    0  0.23613793012E+01 -0.19344355585E+02 -0.31240980137E+02  0.36820905001E+02  0.00000000000E+00 0. -1.
         11    1    4    4    0    0 -0.15847442737E+02  0.14974136133E+02  0.16169999856E+02  0.27144706479E+02  0.51100000000E-03 0. -1.
        -11    1    4    4    0    0 -0.14637179531E+01 -0.47652265694E+01  0.20338092109E+01  0.53838865767E+01  0.51100000000E-03 0.  1.
        -12    1    4    4    0    0  0.14949781389E+02  0.91354460219E+01  0.13037171071E+02  0.21838501943E+02  0.00000000000E+00 0.  1.
</event>
<event>
 8    1  0.2530183E-006  0.9118800E+02  0.7816164E-02  0.1184000E+00
        -11   -1    0    0    0    0  0.00000000000E+00  0.00000000000E+00  0.45593999997E+02  0.45594000000E+02  0.51100000000E-03 0. -1.
         11   -1    0    0    0    0 -0.00000000000E+00 -0.00000000000E+00 -0.45593999997E+02  0.45594000000E+02  0.51100000000E-03 0.  1.
         23    2    1    2    0    0  0.00000000000E+00  0.35527136788E-14  0.00000000000E+00  0.91188000000E+02  0.91188000000E+02 0.  0.
    9900012    2    3    3    0    0 -0.18277867313E+02 -0.26536236742E+02  0.17819289639E+02  0.54367090490E+02  0.40000014390E+02 0.  0.
        -12    1    3    3    0    0  0.18277867313E+02  0.26536236742E+02 -0.17819289639E+02  0.36820909510E+02  0.00000000000E+00 0.  1.
         11    1    4    4    0    0 -0.22095389614E+01 -0.42099785792E+01  0.11219474908E+02  0.12185343637E+02  0.51100000000E-03 0. -1.
        -11    1    4    4    0    0  0.33071864637E+01 -0.18171328249E+02  0.11514896411E+02  0.21765281810E+02  0.51100000000E-03 0.  1.
        -12    1    4    4    0    0 -0.19375514815E+02 -0.41549299129E+01 -0.49150816812E+01  0.20416465043E+02  0.00000000000E+00 0.  1.
</event>
<event>
 8    1  0.2530183E-006  0.9118800E+02  0.7816164E-02  0.1184000E+00
        -11   -1    0    0    0    0  0.00000000000E+00  0.00000000000E+00  0.45593999997E+02  0.45594000000E+02  0.51100000000E-03 0.  1.
         11   -1    0    0    0    0 -0.00000000000E+00 -0.00000000000E+00 -0.45593999997E+02  0.45594000000E+02  0.51100000000E-03 0. -1.
         23    2    1    2    0    0  0.77715611724E-15  0.35527136788E-14 -0.35527136788E-14  0.91188000000E+02  0.91188000000E+02 0.  0.
    9900012    2    3    3    0    0 -0.99278618237E+00 -0.25227251150E+02  0.26802532804E+02  0.54367141921E+02  0.40000131637E+02 0.  0.
         12    1    3    3    0    0  0.99278618237E+00  0.25227251150E+02 -0.26802532804E+02  0.36820858079E+02  0.00000000000E+00 0. -1.
         11    1    4    4    0    0  0.65353969674E+00 -0.22054626570E+02  0.46784012765E+01  0.22554846619E+02  0.51100000000E-03 0.  1.
        -11    1    4    4    0    0  0.42455275890E+01 -0.70795061422E+01 -0.34010176561E+00  0.82619356811E+01  0.51100000000E-03 0. -1.
        -12    1    4    4    0    0 -0.58918534681E+01  0.39068815615E+01  0.22464233293E+02  0.23550359620E+02  0.00000000000E+00 0.  1.
</event>
<event>
 8    1  0.2530183E-006  0.9118800E+02  0.7816164E-02  0.1184000E+00
        -11   -1    0    0    0    0  0.00000000000E+00  0.00000000000E+00  0.45593999997E+02  0.45594000000E+02  0.51100000000E-03 0. -1.
         11   -1    0    0    0    0 -0.00000000000E+00 -0.00000000000E+00 -0.45593999997E+02  0.45594000000E+02  0.51100000000E-03 0.  1.
         23    2    1    2    0    0  0.00000000000E+00  0.00000000000E+00  0.44408920985E-15  0.91188000000E+02  0.91188000000E+02 0.  0.
    9900012    2    3    3    0    0  0.36767385071E+02 -0.16188213597E+01  0.11513341453E+01  0.54366990265E+02  0.39999785907E+02 0.  0.
        -12    1    3    3    0    0 -0.36767385071E+02  0.16188213597E+01 -0.11513341453E+01  0.36821009735E+02  0.00000000000E+00 0.  1.
         11    1    4    4    0    0  0.16073552693E+01  0.31186748008E+01 -0.59217757028E+00  0.35581453049E+01  0.51100000000E-03 0. -1.
        -11    1    4    4    0    0  0.61938057353E+01  0.24770883404E+01 -0.15118267195E+02  0.16524563515E+02  0.51100000000E-03 0.  1.
         12    1    4    4    0    0  0.28966224067E+02 -0.72145845009E+01  0.16861778910E+02  0.34284281445E+02  0.00000000000E+00 0. -1.
</event>
<event>
 8    1  0.2530183E-006  0.9118800E+02  0.7816164E-02  0.1184000E+00
        -11   -1    0    0    0    0  0.00000000000E+00  0.00000000000E+00  0.45593999997E+02  0.45594000000E+02  0.51100000000E-03 0. -1.
         11   -1    0    0    0    0 -0.00000000000E+00 -0.00000000000E+00 -0.45593999997E+02  0.45594000000E+02  0.51100000000E-03 0.  1.
         23    2    1    2    0    0 -0.17763568394E-14  0.00000000000E+00  0.17763568394E-14  0.91188000000E+02  0.91188000000E+02 0.  0.
    9900012    2    3    3    0    0  0.77970924533E+01  0.34836846334E+02 -0.90210502557E+01  0.54367083921E+02  0.39999999414E+02 0.  0.
         12    1    3    3    0    0 -0.77970924533E+01 -0.34836846334E+02  0.90210502557E+01  0.36820916079E+02  0.00000000000E+00 0. -1.
         11    1    4    4    0    0  0.23079934758E+01 -0.46411618858E+01 -0.12306736561E+00  0.51848204763E+01  0.51100000000E-03 0. -1.
        -11    1    4    4    0    0  0.10741996871E+02  0.40803136012E+02 -0.10598475972E+02  0.43504184837E+02  0.51100000000E-03 0.  1.
        -12    1    4    4    0    0 -0.52528978937E+01 -0.13251277922E+01  0.17004930818E+01  0.56780786072E+01  0.00000000000E+00 0.  1.
</event>
<event>
 8    1  0.2530183E-006  0.9118800E+02  0.7816164E-02  0.1184000E+00
        -11   -1    0    0    0    0  0.00000000000E+00  0.00000000000E+00  0.45593999997E+02  0.45594000000E+02  0.51100000000E-03 0.  1.
         11   -1    0    0    0    0 -0.00000000000E+00 -0.00000000000E+00 -0.45593999997E+02  0.45594000000E+02  0.51100000000E-03 0. -1.
         23    2    1    2    0    0  0.00000000000E+00 -0.81878948066E-15  0.00000000000E+00  0.91188000000E+02  0.91188000000E+02 0.  0.
    9900012    2    3    3    0    0 -0.30649205142E+02 -0.10834277148E+00 -0.20405839050E+02  0.54367030685E+02  0.39999878052E+02 0.  0.
        -12    1    3    3    0    0  0.30649205142E+02  0.10834277148E+00  0.20405839050E+02  0.36820969315E+02  0.00000000000E+00 0.  1.
         11    1    4    4    0    0 -0.15708588321E+02  0.47223588949E+01 -0.24872363250E+02  0.29794208741E+02  0.51100000000E-03 0. -1.
        -11    1    4    4    0    0  0.10357150376E+01  0.50327219886E+01 -0.46791137790E+00  0.51594512859E+01  0.51100000000E-03 0.  1.
         12    1    4    4    0    0 -0.15976331858E+02 -0.98634236549E+01  0.49344355784E+01  0.19413370658E+02  0.00000000000E+00 0. -1.
</event>
<event>
 8    1  0.2530183E-006  0.9118800E+02  0.7816164E-02  0.1184000E+00
        -11   -1    0    0    0    0  0.00000000000E+00  0.00000000000E+00  0.45593999997E+02  0.45594000000E+02  0.51100000000E-03 0. -1.
         11   -1    0    0    0    0 -0.00000000000E+00 -0.00000000000E+00 -0.45593999997E+02  0.45594000000E+02  0.51100000000E-03 0.  1.
         23    2    1    2    0    0 -0.63837823916E-15  0.00000000000E+00  0.35527136788E-14  0.91188000000E+02  0.91188000000E+02 0.  0.
    9900012    2    3    3    0    0  0.53927261523E-01 -0.24573531098E+02  0.27421116094E+02  0.54367096336E+02  0.40000027718E+02 0.  0.
        -12    1    3    3    0    0 -0.53927261523E-01  0.24573531098E+02 -0.27421116094E+02  0.36820903664E+02  0.00000000000E+00 0.  1.
         11    1    4    4    0    0 -0.57145486531E+01 -0.16608466523E+02  0.45186576268E+01  0.18136027503E+02  0.51100000000E-03 0. -1.
        -11    1    4    4    0    0  0.13724417677E+02 -0.12561284061E+02  0.12844454379E+02  0.22608084978E+02  0.51100000000E-03 0.  1.
         12    1    4    4    0    0 -0.79559417623E+01  0.45962194859E+01  0.10058004088E+02  0.13622983855E+02  0.00000000000E+00 0. -1.
</event>
<event>
 8    1  0.2530183E-006  0.9118800E+02  0.7816164E-02  0.1184000E+00
        -11   -1    0    0    0    0  0.00000000000E+00  0.00000000000E+00  0.45593999997E+02  0.45594000000E+02  0.51100000000E-03 0. -1.
         11   -1    0    0    0    0 -0.00000000000E+00 -0.00000000000E+00 -0.45593999997E+02  0.45594000000E+02  0.51100000000E-03 0.  1.
         23    2    1    2    0    0 -0.13322676296E-14  0.00000000000E+00 -0.71054273576E-14  0.91188000000E+02  0.91188000000E+02 0.  0.
    9900012    2    3    3    0    0  0.36925478441E+01  0.65372983929E+01 -0.36047312021E+02  0.54367083610E+02  0.39999998706E+02 0.  0.
         12    1    3    3    0    0 -0.36925478441E+01 -0.65372983929E+01  0.36047312021E+02  0.36820916390E+02  0.00000000000E+00 0. -1.
         11    1    4    4    0    0 -0.27210075435E+01  0.56160241503E+01 -0.28061440119E+01  0.68423719414E+01  0.51100000000E-03 0. -1.
        -11    1    4    4    0    0 -0.12748240119E+02 -0.43730428852E+01 -0.91485082775E+01  0.16289147742E+02  0.51100000000E-03 0.  1.
        -12    1    4    4    0    0  0.19161795506E+02  0.52943171278E+01 -0.24092659732E+02  0.31235563927E+02  0.00000000000E+00 0.  1.
</event>
<event>
 8    1  0.2530183E-006  0.9118800E+02  0.7816164E-02  0.1184000E+00
        -11   -1    0    0    0    0  0.00000000000E+00  0.00000000000E+00  0.45593999997E+02  0.45594000000E+02  0.51100000000E-03 0.  1.
         11   -1    0    0    0    0 -0.00000000000E+00 -0.00000000000E+00 -0.45593999997E+02  0.45594000000E+02  0.51100000000E-03 0. -1.
         23    2    1    2    0    0  0.00000000000E+00 -0.35527136788E-14 -0.17763568394E-14  0.91188000000E+02  0.91188000000E+02 0.  0.
    9900012    2    3    3    0    0  0.18937180341E+02 -0.28507562554E+02 -0.13582465607E+02  0.54367064460E+02  0.39999955050E+02 0.  0.
         12    1    3    3    0    0 -0.18937180341E+02  0.28507562554E+02  0.13582465607E+02  0.36820935540E+02  0.00000000000E+00 0. -1.
         11    1    4    4    0    0  0.13016087833E+02 -0.37086039467E+01  0.38644544720E+01  0.14075023778E+02  0.51100000000E-03 0. -1.
        -11    1    4    4    0    0  0.71144413246E+01  0.31400794919E+01 -0.97657630754E+00  0.78376703249E+01  0.51100000000E-03 0.  1.
        -12    1    4    4    0    0 -0.11933488171E+01 -0.27939038100E+02 -0.16470343772E+02  0.32454370358E+02  0.00000000000E+00 0.  1.
</event>
<event>
 8    1  0.2530183E-006  0.9118800E+02  0.7816164E-02  0.1184000E+00
        -11   -1    0    0    0    0  0.00000000000E+00  0.00000000000E+00  0.45593999997E+02  0.45594000000E+02  0.51100000000E-03 0. -1.
         11   -1    0    0    0    0 -0.00000000000E+00 -0.00000000000E+00 -0.45593999997E+02  0.45594000000E+02  0.51100000000E-03 0.  1.
         23    2    1    2    0    0  0.35527136788E-14 -0.71054273576E-14 -0.33306690739E-15  0.91188000000E+02  0.91188000000E+02 0.  0.
    9900012    2    3    3    0    0 -0.27145623077E+02 -0.24871757946E+02  0.53793581958E+00  0.54367101443E+02  0.40000039361E+02 0.  0.
        -12    1    3    3    0    0  0.27145623077E+02  0.24871757946E+02 -0.53793581958E+00  0.36820898557E+02  0.00000000000E+00 0.  1.
         11    1    4    4    0    0 -0.26898327897E+02 -0.69317123895E+01  0.12111625946E+02  0.30302807851E+02  0.51100000000E-03 0. -1.
        -11    1    4    4    0    0 -0.23305056114E+01  0.58015562025E+00 -0.19241250706E+01  0.30773518644E+01  0.51100000000E-03 0.  1.
        -12    1    4    4    0    0  0.20832104316E+01 -0.18520201177E+02 -0.96495650563E+01  0.20986941728E+02  0.00000000000E+00 0.  1.
</event>
<event>
 8    1  0.2530183E-006  0.9118800E+02  0.7816164E-02  0.1184000E+00
        -11   -1    0    0    0    0  0.00000000000E+00  0.00000000000E+00  0.45593999997E+02  0.45594000000E+02  0.51100000000E-03 0.  1.
         11   -1    0    0    0    0 -0.00000000000E+00 -0.00000000000E+00 -0.45593999997E+02  0.45594000000E+02  0.51100000000E-03 0. -1.
         23    2    1    2    0    0  0.00000000000E+00  0.00000000000E+00  0.00000000000E+00  0.91188000000E+02  0.91188000000E+02 0.  0.
    9900012    2    3    3    0    0  0.23654527172E+02  0.18889063686E+02 -0.20963031074E+02  0.54367054134E+02  0.39999931508E+02 0.  0.
        -12    1    3    3    0    0 -0.23654527172E+02 -0.18889063686E+02  0.20963031074E+02  0.36820945866E+02  0.00000000000E+00 0.  1.
         11    1    4    4    0    0 -0.55082595432E+00  0.12019048166E+02 -0.70005969810E+01  0.13920103678E+02  0.51100000000E-03 0. -1.
        -11    1    4    4    0    0  0.15878158587E+02  0.14147093177E+02  0.16325155614E+01  0.21328883534E+02  0.51100000000E-03 0.  1.
         12    1    4    4    0    0  0.83271945398E+01 -0.72770776565E+01 -0.15594949654E+02  0.19118066922E+02  0.00000000000E+00 0. -1.
</event>
<event>
 8    1  0.2530183E-006  0.9118800E+02  0.7816164E-02  0.1184000E+00
        -11   -1    0    0    0    0  0.00000000000E+00  0.00000000000E+00  0.45593999997E+02  0.45594000000E+02  0.51100000000E-03 0. -1.
         11   -1    0    0    0    0 -0.00000000000E+00 -0.00000000000E+00 -0.45593999997E+02  0.45594000000E+02  0.51100000000E-03 0.  1.
         23    2    1    2    0    0  0.00000000000E+00  0.00000000000E+00  0.35527136788E-14  0.91188000000E+02  0.91188000000E+02 0.  0.
    9900012    2    3    3    0    0  0.11300730796E+02 -0.27583729093E+02  0.21615079921E+02  0.54367077861E+02  0.39999985599E+02 0.  0.
        -12    1    3    3    0    0 -0.11300730796E+02  0.27583729093E+02 -0.21615079921E+02  0.36820922139E+02  0.00000000000E+00 0.  1.
         11    1    4    4    0    0  0.18402142392E+02 -0.28297468933E+02  0.22094033872E+02  0.40342681191E+02  0.51100000000E-03 0. -1.
        -11    1    4    4    0    0 -0.16609778496E+01  0.56270066189E+01  0.21323781267E+01  0.62425225384E+01  0.51100000000E-03 0.  1.
         12    1    4    4    0    0 -0.54404337458E+01 -0.49132667786E+01 -0.26113320780E+01  0.77818741317E+01  0.00000000000E+00 0. -1.
</event>
<event>
 8    1  0.2530183E-006  0.9118800E+02  0.7816164E-02  0.1184000E+00
        -11   -1    0    0    0    0  0.00000000000E+00  0.00000000000E+00  0.45593999997E+02  0.45594000000E+02  0.51100000000E-03 0.  1.
         11   -1    0    0    0    0 -0.00000000000E+00 -0.00000000000E+00 -0.45593999997E+02  0.45594000000E+02  0.51100000000E-03 0. -1.
         23    2    1    2    0    0  0.00000000000E+00 -0.35527136788E-14  0.88817841970E-15  0.91188000000E+02  0.91188000000E+02 0.  0.
    9900012    2    3    3    0    0  0.21576687370E+02 -0.29705728057E+02  0.27927026471E+01  0.54367042579E+02  0.39999905168E+02 0.  0.
         12    1    3    3    0    0 -0.21576687370E+02  0.29705728057E+02 -0.27927026471E+01  0.36820957421E+02  0.00000000000E+00 0. -1.
         11    1    4    4    0    0 -0.64854505391E+01 -0.24951069135E+01 -0.93391381687E+01  0.11640709996E+02  0.51100000000E-03 0. -1.
        -11    1    4    4    0    0  0.47120520677E+01 -0.58238910381E+01  0.77182691358E+01  0.10756059698E+02  0.51100000000E-03 0.  1.
         12    1    4    4    0    0  0.23350085842E+02 -0.21386730106E+02  0.44135716801E+01  0.31970272886E+02  0.00000000000E+00 0. -1.
</event>
<event>
 8    1  0.2530183E-006  0.9118800E+02  0.7816164E-02  0.1184000E+00
        -11   -1    0    0    0    0  0.00000000000E+00  0.00000000000E+00  0.45593999997E+02  0.45594000000E+02  0.51100000000E-03 0.  1.
         11   -1    0    0    0    0 -0.00000000000E+00 -0.00000000000E+00 -0.45593999997E+02  0.45594000000E+02  0.51100000000E-03 0. -1.
         23    2    1    2    0    0  0.35527136788E-14  0.88817841970E-15  0.00000000000E+00  0.91188000000E+02  0.91188000000E+02 0.  0.
    9900012    2    3    3    0    0  0.21886149660E+02  0.75063479055E+01 -0.28643155580E+02  0.54367093338E+02  0.40000020883E+02 0.  0.
        -12    1    3    3    0    0 -0.21886149660E+02 -0.75063479055E+01  0.28643155580E+02  0.36820906662E+02  0.00000000000E+00 0.  1.
         11    1    4    4    0    0  0.11134605204E+02 -0.38275958308E+01 -0.23598330933E+01  0.12008277786E+02  0.51100000000E-03 0. -1.
        -11    1    4    4    0    0  0.41719873879E+01 -0.84677384195E+01 -0.87444055365E+00  0.94801223224E+01  0.51100000000E-03 0.  1.
         12    1    4    4    0    0  0.65795570672E+01  0.19801682156E+02 -0.25408881933E+02  0.32878693230E+02  0.00000000000E+00 0. -1.
</event>
<event>
 8    1  0.2530183E-006  0.9118800E+02  0.7816164E-02  0.1184000E+00
        -11   -1    0    0    0    0  0.00000000000E+00  0.00000000000E+00  0.45593999997E+02  0.45594000000E+02  0.51100000000E-03 0.  1.
         11   -1    0    0    0    0 -0.00000000000E+00 -0.00000000000E+00 -0.45593999997E+02  0.45594000000E+02  0.51100000000E-03 0. -1.
         23    2    1    2    0    0  0.35527136788E-14  0.00000000000E+00  0.35527136788E-14  0.91188000000E+02  0.91188000000E+02 0.  0.
    9900012    2    3    3    0    0  0.26776283750E+02 -0.10765988312E+02  0.22867106086E+02  0.54367076376E+02  0.39999982214E+02 0.  0.
         12    1    3    3    0    0 -0.26776283750E+02  0.10765988312E+02 -0.22867106086E+02  0.36820923624E+02  0.00000000000E+00 0. -1.
         11    1    4    4    0    0 -0.53831426663E+01 -0.16167440870E+01  0.34422437183E+00  0.56312145304E+01  0.51100000000E-03 0. -1.
        -11    1    4    4    0    0  0.65821580412E+01 -0.28866878952E+01  0.21182869652E+02  0.22368990555E+02  0.51100000000E-03 0.  1.
        -12    1    4    4    0    0  0.25577268375E+02 -0.62625563300E+01  0.13400120616E+01  0.26366871291E+02  0.00000000000E+00 0.  1.
</event>
<event>
 8    1  0.2530183E-006  0.9118800E+02  0.7816164E-02  0.1184000E+00
        -11   -1    0    0    0    0  0.00000000000E+00  0.00000000000E+00  0.45593999997E+02  0.45594000000E+02  0.51100000000E-03 0.  1.
         11   -1    0    0    0    0 -0.00000000000E+00 -0.00000000000E+00 -0.45593999997E+02  0.45594000000E+02  0.51100000000E-03 0. -1.
         23    2    1    2    0    0  0.35527136788E-14 -0.55511151231E-15 -0.35527136788E-14  0.91188000000E+02  0.91188000000E+02 0.  0.
    9900012    2    3    3    0    0  0.27005822104E+02  0.59646873403E+00 -0.25022082134E+02  0.54367152687E+02  0.40000156181E+02 0.  0.
        -12    1    3    3    0    0 -0.27005822104E+02 -0.59646873403E+00  0.25022082134E+02  0.36820847313E+02  0.00000000000E+00 0.  1.
         11    1    4    4    0    0  0.13612094921E+02 -0.76564113964E+01 -0.68896603541E+01  0.17069773978E+02  0.51100000000E-03 0. -1.
        -11    1    4    4    0    0  0.12869889130E+02  0.15001944570E+01 -0.24681576007E+02  0.27875882480E+02  0.51100000000E-03 0.  1.
        -12    1    4    4    0    0  0.52383805349E+00  0.67526856734E+01  0.65491542264E+01  0.94214962289E+01  0.00000000000E+00 0.  1.
</event>
<event>
 8    1  0.2530183E-006  0.9118800E+02  0.7816164E-02  0.1184000E+00
        -11   -1    0    0    0    0  0.00000000000E+00  0.00000000000E+00  0.45593999997E+02  0.45594000000E+02  0.51100000000E-03 0.  1.
         11   -1    0    0    0    0 -0.00000000000E+00 -0.00000000000E+00 -0.45593999997E+02  0.45594000000E+02  0.51100000000E-03 0. -1.
         23    2    1    2    0    0  0.35527136788E-14  0.00000000000E+00 -0.35527136788E-14  0.91188000000E+02  0.91188000000E+02 0.  0.
    9900012    2    3    3    0    0 -0.20214185307E+02 -0.24322115528E+02  0.18857350225E+02  0.54367105811E+02  0.40000049317E+02 0.  0.
         12    1    3    3    0    0  0.20214185307E+02  0.24322115528E+02 -0.18857350225E+02  0.36820894189E+02  0.00000000000E+00 0. -1.
         11    1    4    4    0    0 -0.58736933653E+01 -0.12533982668E+02  0.15897535203E+02  0.21079198777E+02  0.51100000000E-03 0. -1.
        -11    1    4    4    0    0 -0.91875240372E+01 -0.11056196721E+01  0.14198891321E+02  0.16948200725E+02  0.51100000000E-03 0.  1.
         12    1    4    4    0    0 -0.51529679042E+01 -0.10682513188E+02 -0.11239076299E+02  0.16339706310E+02  0.00000000000E+00 0. -1.
</event>
<event>
 8    1  0.2530183E-006  0.9118800E+02  0.7816164E-02  0.1184000E+00
        -11   -1    0    0    0    0  0.00000000000E+00  0.00000000000E+00  0.45593999997E+02  0.45594000000E+02  0.51100000000E-03 0.  1.
         11   -1    0    0    0    0 -0.00000000000E+00 -0.00000000000E+00 -0.45593999997E+02  0.45594000000E+02  0.51100000000E-03 0. -1.
         23    2    1    2    0    0  0.00000000000E+00  0.00000000000E+00  0.35527136788E-14  0.91188000000E+02  0.91188000000E+02 0.  0.
    9900012    2    3    3    0    0  0.29378134089E+01  0.18301007579E+02  0.31815446615E+02  0.54367078375E+02  0.39999986771E+02 0.  0.
        -12    1    3    3    0    0 -0.29378134089E+01 -0.18301007579E+02 -0.31815446615E+02  0.36820921625E+02  0.00000000000E+00 0.  1.
         11    1    4    4    0    0  0.68674426958E+01 -0.12983776952E+01  0.60486611827E+01  0.92430436645E+01  0.51100000000E-03 0. -1.
        -11    1    4    4    0    0  0.17366583426E+01 -0.79728543430E+01  0.98365134854E+01  0.12780429820E+02  0.51100000000E-03 0.  1.
         12    1    4    4    0    0 -0.56662876294E+01  0.27572239617E+02  0.15930271947E+02  0.32343604890E+02  0.00000000000E+00 0. -1.
</event>
<event>
 8    1  0.2530183E-006  0.9118800E+02  0.7816164E-02  0.1184000E+00
        -11   -1    0    0    0    0  0.00000000000E+00  0.00000000000E+00  0.45593999997E+02  0.45594000000E+02  0.51100000000E-03 0.  1.
         11   -1    0    0    0    0 -0.00000000000E+00 -0.00000000000E+00 -0.45593999997E+02  0.45594000000E+02  0.51100000000E-03 0. -1.
         23    2    1    2    0    0 -0.88817841970E-15  0.00000000000E+00  0.35527136788E-14  0.91188000000E+02  0.91188000000E+02 0.  0.
    9900012    2    3    3    0    0  0.58237598194E+01 -0.34506348683E+02  0.11453067716E+02  0.54367122254E+02  0.40000086802E+02 0.  0.
         12    1    3    3    0    0 -0.58237598194E+01  0.34506348683E+02 -0.11453067716E+02  0.36820877746E+02  0.00000000000E+00 0. -1.
         11    1    4    4    0    0  0.78683815082E+01 -0.39744475174E+01 -0.12622630786E+02  0.15396053678E+02  0.51100000000E-03 0. -1.
        -11    1    4    4    0    0 -0.17668337930E+01 -0.14062217987E+02  0.11153120906E+02  0.18034960010E+02  0.51100000000E-03 0.  1.
         12    1    4    4    0    0 -0.27778789577E+00 -0.16469683179E+02  0.12922577597E+02  0.20936108566E+02  0.00000000000E+00 0. -1.
</event>
<event>
 8    1  0.2530183E-006  0.9118800E+02  0.7816164E-02  0.1184000E+00
        -11   -1    0    0    0    0  0.00000000000E+00  0.00000000000E+00  0.45593999997E+02  0.45594000000E+02  0.51100000000E-03 0. -1.
         11   -1    0    0    0    0 -0.00000000000E+00 -0.00000000000E+00 -0.45593999997E+02  0.45594000000E+02  0.51100000000E-03 0.  1.
         23    2    1    2    0    0  0.00000000000E+00  0.00000000000E+00  0.17763568394E-14  0.91188000000E+02  0.91188000000E+02 0.  0.
    9900012    2    3    3    0    0  0.21488369025E+02  0.26758984021E+02  0.13341227314E+02  0.54367060639E+02  0.39999946338E+02 0.  0.
        -12    1    3    3    0    0 -0.21488369025E+02 -0.26758984021E+02 -0.13341227314E+02  0.36820939361E+02  0.00000000000E+00 0.  1.
         11    1    4    4    0    0  0.10231148805E+02  0.10896235067E+02  0.22343137350E+02  0.26881594659E+02  0.51100000000E-03 0. -1.
        -11    1    4    4    0    0  0.18637799490E+01  0.15478218285E+02 -0.19045172467E+01  0.15705925735E+02  0.51100000000E-03 0.  1.
         12    1    4    4    0    0  0.93934402713E+01  0.38453066871E+00 -0.70973927892E+01  0.11779540244E+02  0.00000000000E+00 0. -1.
</event>
<event>
 8    1  0.2530183E-006  0.9118800E+02  0.7816164E-02  0.1184000E+00
        -11   -1    0    0    0    0  0.00000000000E+00  0.00000000000E+00  0.45593999997E+02  0.45594000000E+02  0.51100000000E-03 0. -1.
         11   -1    0    0    0    0 -0.00000000000E+00 -0.00000000000E+00 -0.45593999997E+02  0.45594000000E+02  0.51100000000E-03 0.  1.
         23    2    1    2    0    0  0.33306690739E-15  0.00000000000E+00 -0.35527136788E-14  0.91188000000E+02  0.91188000000E+02 0.  0.
    9900012    2    3    3    0    0 -0.98126576446E+00 -0.18217909233E+02 -0.31983188684E+02  0.54367089396E+02  0.40000011896E+02 0.  0.
         12    1    3    3    0    0  0.98126576446E+00  0.18217909233E+02  0.31983188684E+02  0.36820910604E+02  0.00000000000E+00 0. -1.
         11    1    4    4    0    0 -0.58504948735E+01 -0.12904127991E+02  0.46198579512E+01  0.14902613772E+02  0.51100000000E-03 0. -1.
        -11    1    4    4    0    0  0.35856111395E+00 -0.15233240872E+01  0.68896705344E+00  0.17099000581E+01  0.51100000000E-03 0.  1.
        -12    1    4    4    0    0  0.45106679951E+01 -0.37904571542E+01 -0.37292013689E+02  0.37754575566E+02  0.00000000000E+00 0.  1.
</event>
<event>
 8    1  0.2530183E-006  0.9118800E+02  0.7816164E-02  0.1184000E+00
        -11   -1    0    0    0    0  0.00000000000E+00  0.00000000000E+00  0.45593999997E+02  0.45594000000E+02  0.51100000000E-03 0.  1.
         11   -1    0    0    0    0 -0.00000000000E+00 -0.00000000000E+00 -0.45593999997E+02  0.45594000000E+02  0.51100000000E-03 0. -1.
         23    2    1    2    0    0  0.00000000000E+00  0.88817841970E-15  0.00000000000E+00  0.91188000000E+02  0.91188000000E+02 0.  0.
    9900012    2    3    3    0    0 -0.11603326121E+02  0.44202808539E+01  0.34664339722E+02  0.54366912179E+02  0.39999607894E+02 0.  0.
         12    1    3    3    0    0  0.11603326121E+02 -0.44202808539E+01 -0.34664339722E+02  0.36821087821E+02  0.00000000000E+00 0. -1.
         11    1    4    4    0    0 -0.23073281790E+00 -0.83641326359E+01  0.25661752073E+02  0.26991433310E+02  0.51100000000E-03 0. -1.
        -11    1    4    4    0    0 -0.33367410142E+01  0.19817492828E+01  0.12809000727E+02  0.13384008021E+02  0.51100000000E-03 0.  1.
         12    1    4    4    0    0 -0.80358522891E+01  0.10802664207E+02 -0.38064130783E+01  0.13991470848E+02  0.00000000000E+00 0. -1.
</event>
<event>
 8    1  0.2530183E-006  0.9118800E+02  0.7816164E-02  0.1184000E+00
        -11   -1    0    0    0    0  0.00000000000E+00  0.00000000000E+00  0.45593999997E+02  0.45594000000E+02  0.51100000000E-03 0.  1.
         11   -1    0    0    0    0 -0.00000000000E+00 -0.00000000000E+00 -0.45593999997E+02  0.45594000000E+02  0.51100000000E-03 0. -1.
         23    2    1    2    0    0  0.00000000000E+00  0.00000000000E+00 -0.35527136788E-14  0.91188000000E+02  0.91188000000E+02 0.  0.
    9900012    2    3    3    0    0 -0.28970033163E+02 -0.72572444814E+01 -0.21537155132E+02  0.54367089228E+02  0.40000011513E+02 0.  0.
        -12    1    3    3    0    0  0.28970033163E+02  0.72572444814E+01  0.21537155132E+02  0.36820910772E+02  0.00000000000E+00 0.  1.
         11    1    4    4    0    0 -0.23548900722E+00  0.21066862998E+01 -0.10682720857E+02  0.10891010395E+02  0.51100000000E-03 0. -1.
        -11    1    4    4    0    0 -0.37788420821E+01  0.64537254519E+01 -0.11736328707E+02  0.13916595542E+02  0.51100000000E-03 0.  1.
        -12    1    4    4    0    0 -0.24955702073E+02 -0.15817656233E+02  0.88189443278E+00  0.29559483292E+02  0.00000000000E+00 0.  1.
</event>
<event>
 8    1  0.2530183E-006  0.9118800E+02  0.7816164E-02  0.1184000E+00
        -11   -1    0    0    0    0  0.00000000000E+00  0.00000000000E+00  0.45593999997E+02  0.45594000000E+02  0.51100000000E-03 0.  1.
         11   -1    0    0    0    0 -0.00000000000E+00 -0.00000000000E+00 -0.45593999997E+02  0.45594000000E+02  0.51100000000E-03 0. -1.
         23    2    1    2    0    0  0.17763568394E-14  0.00000000000E+00  0.35527136788E-14  0.91188000000E+02  0.91188000000E+02 0.  0.
    9900012    2    3    3    0    0  0.15979660978E+02 -0.20310195890E+02  0.26228343953E+02  0.54367086804E+02  0.40000005987E+02 0.  0.
         12    1    3    3    0    0 -0.15979660978E+02  0.20310195890E+02 -0.26228343953E+02  0.36820913196E+02  0.00000000000E+00 0. -1.
         11    1    4    4    0    0  0.24668849177E+01  0.39251655406E+01 -0.59830545825E+01  0.75689753677E+01  0.51100000000E-03 0. -1.
        -11    1    4    4    0    0  0.17944661769E+02 -0.16660215321E+02  0.19259941088E+02  0.31153153797E+02  0.51100000000E-03 0.  1.
        -12    1    4    4    0    0 -0.44318857084E+01 -0.75751461096E+01  0.12951457448E+02  0.15644957639E+02  0.00000000000E+00 0.  1.
</event>
<event>
 8    1  0.2530183E-006  0.9118800E+02  0.7816164E-02  0.1184000E+00
        -11   -1    0    0    0    0  0.00000000000E+00  0.00000000000E+00  0.45593999997E+02  0.45594000000E+02  0.51100000000E-03 0.  1.
         11   -1    0    0    0    0 -0.00000000000E+00 -0.00000000000E+00 -0.45593999997E+02  0.45594000000E+02  0.51100000000E-03 0. -1.
         23    2    1    2    0    0  0.17763568394E-14  0.17763568394E-14  0.00000000000E+00  0.91188000000E+02  0.91188000000E+02 0.  0.
    9900012    2    3    3    0    0  0.12431142314E+02  0.10876427763E+02 -0.32908219550E+02  0.54367069891E+02  0.39999967432E+02 0.  0.
        -12    1    3    3    0    0 -0.12431142314E+02 -0.10876427763E+02  0.32908219550E+02  0.36820930109E+02  0.00000000000E+00 0.  1.
         11    1    4    4    0    0 -0.87336369631E+01  0.28123013905E+01 -0.20563330495E+02  0.22517460225E+02  0.51100000000E-03 0. -1.
        -11    1    4    4    0    0  0.17646981426E+01  0.96719853166E+01 -0.31771036458E+01  0.10332252772E+02  0.51100000000E-03 0.  1.
        -12    1    4    4    0    0  0.19400081135E+02 -0.16078589437E+01 -0.91677854093E+01  0.21517356894E+02  0.00000000000E+00 0.  1.
</event>
<event>
 8    1  0.2530183E-006  0.9118800E+02  0.7816164E-02  0.1184000E+00
        -11   -1    0    0    0    0  0.00000000000E+00  0.00000000000E+00  0.45593999997E+02  0.45594000000E+02  0.51100000000E-03 0.  1.
         11   -1    0    0    0    0 -0.00000000000E+00 -0.00000000000E+00 -0.45593999997E+02  0.45594000000E+02  0.51100000000E-03 0. -1.
         23    2    1    2    0    0  0.00000000000E+00  0.00000000000E+00  0.00000000000E+00  0.91188000000E+02  0.91188000000E+02 0.  0.
    9900012    2    3    3    0    0  0.32271331212E+02 -0.89650550408E+01 -0.15296027281E+02  0.54367089084E+02  0.40000011186E+02 0.  0.
        -12    1    3    3    0    0 -0.32271331212E+02  0.89650550408E+01  0.15296027281E+02  0.36820910916E+02  0.00000000000E+00 0.  1.
         11    1    4    4    0    0  0.74020480716E+01  0.81312604860E+01  0.83322428618E+01  0.13796158310E+02  0.51100000000E-03 0. -1.
        -11    1    4    4    0    0  0.89383118707E+01 -0.10618181352E+02 -0.17450944840E+02  0.22297413984E+02  0.51100000000E-03 0.  1.
         12    1    4    4    0    0  0.15930971270E+02 -0.64781341748E+01 -0.61773253028E+01  0.18273516790E+02  0.00000000000E+00 0. -1.
</event>
<event>
 8    1  0.2530183E-006  0.9118800E+02  0.7816164E-02  0.1184000E+00
        -11   -1    0    0    0    0  0.00000000000E+00  0.00000000000E+00  0.45593999997E+02  0.45594000000E+02  0.51100000000E-03 0.  1.
         11   -1    0    0    0    0 -0.00000000000E+00 -0.00000000000E+00 -0.45593999997E+02  0.45594000000E+02  0.51100000000E-03 0. -1.
         23    2    1    2    0    0  0.17763568394E-14  0.00000000000E+00 -0.17763568394E-14  0.91188000000E+02  0.91188000000E+02 0.  0.
    9900012    2    3    3    0    0 -0.13116370950E+02  0.32910980321E+02  0.10030443272E+02  0.54367060240E+02  0.39999945429E+02 0.  0.
         12    1    3    3    0    0  0.13116370950E+02 -0.32910980321E+02 -0.10030443272E+02  0.36820939760E+02  0.00000000000E+00 0. -1.
         11    1    4    4    0    0 -0.97870530779E+01  0.22606405591E+02  0.27467196432E+01  0.24786699069E+02  0.51100000000E-03 0. -1.
        -11    1    4    4    0    0 -0.34654768977E+01  0.12206499898E+02 -0.74563160668E+01  0.14717500448E+02  0.51100000000E-03 0.  1.
         12    1    4    4    0    0  0.13615902511E+00 -0.19019251682E+01  0.14740039696E+02  0.14862860723E+02  0.00000000000E+00 0. -1.
</event>
<event>
 8    1  0.2530183E-006  0.9118800E+02  0.7816164E-02  0.1184000E+00
        -11   -1    0    0    0    0  0.00000000000E+00  0.00000000000E+00  0.45593999997E+02  0.45594000000E+02  0.51100000000E-03 0. -1.
         11   -1    0    0    0    0 -0.00000000000E+00 -0.00000000000E+00 -0.45593999997E+02  0.45594000000E+02  0.51100000000E-03 0.  1.
         23    2    1    2    0    0  0.88817841970E-15  0.44408920985E-15  0.00000000000E+00  0.91188000000E+02  0.91188000000E+02 0.  0.
    9900012    2    3    3    0    0 -0.52836018230E+01 -0.24089089997E+01  0.36360113281E+02  0.54367121024E+02  0.40000083998E+02 0.  0.
        -12    1    3    3    0    0  0.52836018230E+01  0.24089089997E+01 -0.36360113281E+02  0.36820878976E+02  0.00000000000E+00 0.  1.
         11    1    4    4    0    0 -0.28280326091E+01 -0.10509402916E+02  0.23030135526E+02  0.25472189947E+02  0.51100000000E-03 0. -1.
        -11    1    4    4    0    0  0.80126470642E+01 -0.36242425643E+01  0.90183696475E+01  0.12596374022E+02  0.51100000000E-03 0.  1.
        -12    1    4    4    0    0 -0.10468216278E+02  0.11724736481E+02  0.43116081069E+01  0.16298557055E+02  0.00000000000E+00 0.  1.
</event>
<event>
 8    1  0.2530183E-006  0.9118800E+02  0.7816164E-02  0.1184000E+00
        -11   -1    0    0    0    0  0.00000000000E+00  0.00000000000E+00  0.45593999997E+02  0.45594000000E+02  0.51100000000E-03 0.  1.
         11   -1    0    0    0    0 -0.00000000000E+00 -0.00000000000E+00 -0.45593999997E+02  0.45594000000E+02  0.51100000000E-03 0. -1.
         23    2    1    2    0    0  0.44408920985E-14  0.00000000000E+00  0.35527136788E-14  0.91188000000E+02  0.91188000000E+02 0.  0.
    9900012    2    3    3    0    0 -0.66213723747E+01  0.30183519707E+02 -0.20022261630E+02  0.54367103829E+02  0.40000044800E+02 0.  0.
        -12    1    3    3    0    0  0.66213723747E+01 -0.30183519707E+02  0.20022261630E+02  0.36820896171E+02  0.00000000000E+00 0.  1.
         11    1    4    4    0    0 -0.82529404992E-01 -0.18643023224E+00 -0.22142360411E+01  0.22236026716E+01  0.51100000000E-03 0. -1.
        -11    1    4    4    0    0  0.10897799968E+02 -0.30301896134E+01 -0.47348574966E+01  0.12262257909E+02  0.51100000000E-03 0.  1.
        -12    1    4    4    0    0 -0.17436642938E+02  0.33400139553E+02 -0.13073168092E+02  0.39881243249E+02  0.00000000000E+00 0.  1.
</event>
<event>
 8    1  0.2530183E-006  0.9118800E+02  0.7816164E-02  0.1184000E+00
        -11   -1    0    0    0    0  0.00000000000E+00  0.00000000000E+00  0.45593999997E+02  0.45594000000E+02  0.51100000000E-03 0. -1.
         11   -1    0    0    0    0 -0.00000000000E+00 -0.00000000000E+00 -0.45593999997E+02  0.45594000000E+02  0.51100000000E-03 0.  1.
         23    2    1    2    0    0 -0.35527136788E-14  0.88817841970E-15  0.00000000000E+00  0.91188000000E+02  0.91188000000E+02 0.  0.
    9900012    2    3    3    0    0 -0.16431784176E+02  0.66605163015E+01 -0.32270947016E+02  0.54367081626E+02  0.39999994182E+02 0.  0.
         12    1    3    3    0    0  0.16431784176E+02 -0.66605163015E+01  0.32270947016E+02  0.36820918374E+02  0.00000000000E+00 0. -1.
         11    1    4    4    0    0  0.36634056943E-01  0.15977586964E+02 -0.94289070109E+01  0.18552329097E+02  0.51100000000E-03 0. -1.
        -11    1    4    4    0    0  0.23326511959E+00  0.43830702744E+01 -0.93942250586E+01  0.10369049250E+02  0.51100000000E-03 0.  1.
        -12    1    4    4    0    0 -0.16701683353E+02 -0.13700140937E+02 -0.13447814947E+02  0.25445703278E+02  0.00000000000E+00 0.  1.
</event>
<event>
 8    1  0.2530183E-006  0.9118800E+02  0.7816164E-02  0.1184000E+00
        -11   -1    0    0    0    0  0.00000000000E+00  0.00000000000E+00  0.45593999997E+02  0.45594000000E+02  0.51100000000E-03 0.  1.
         11   -1    0    0    0    0 -0.00000000000E+00 -0.00000000000E+00 -0.45593999997E+02  0.45594000000E+02  0.51100000000E-03 0. -1.
         23    2    1    2    0    0  0.00000000000E+00 -0.88817841970E-15  0.13322676296E-14  0.91188000000E+02  0.91188000000E+02 0.  0.
    9900012    2    3    3    0    0 -0.35840149350E+02  0.78278359097E+01 -0.31603649196E+01  0.54367092531E+02  0.40000019042E+02 0.  0.
         12    1    3    3    0    0  0.35840149350E+02 -0.78278359097E+01  0.31603649196E+01  0.36820907469E+02  0.00000000000E+00 0. -1.
         11    1    4    4    0    0  0.40450739846E+01  0.93562026010E+01  0.37116211296E+01  0.10847916036E+02  0.51100000000E-03 0.  1.
        -11    1    4    4    0    0 -0.24729515346E+02  0.59645095622E+01 -0.77402128703E+01  0.26590133492E+02  0.51100000000E-03 0. -1.
         12    1    4    4    0    0 -0.15155707989E+02 -0.74928762535E+01  0.86822682105E+00  0.16929043003E+02  0.00000000000E+00 0. -1.
</event>
<event>
 8    1  0.2530183E-006  0.9118800E+02  0.7816164E-02  0.1184000E+00
        -11   -1    0    0    0    0  0.00000000000E+00  0.00000000000E+00  0.45593999997E+02  0.45594000000E+02  0.51100000000E-03 0. -1.
         11   -1    0    0    0    0 -0.00000000000E+00 -0.00000000000E+00 -0.45593999997E+02  0.45594000000E+02  0.51100000000E-03 0.  1.
         23    2    1    2    0    0 -0.17763568394E-14  0.00000000000E+00 -0.14210854715E-13  0.91188000000E+02  0.91188000000E+02 0.  0.
    9900012    2    3    3    0    0 -0.53052622668E+01 -0.17632495237E+02 -0.31886171121E+02  0.54367100978E+02  0.40000038300E+02 0.  0.
         12    1    3    3    0    0  0.53052622668E+01  0.17632495237E+02  0.31886171121E+02  0.36820899022E+02  0.00000000000E+00 0. -1.
         11    1    4    4    0    0  0.82034124784E+01 -0.16227834464E+01 -0.22979905552E+01  0.86723793308E+01  0.51100000000E-03 0. -1.
        -11    1    4    4    0    0 -0.55018850470E+01 -0.15695424702E+02 -0.17469216838E+01  0.16723302045E+02  0.51100000000E-03 0.  1.
         12    1    4    4    0    0 -0.80067896982E+01 -0.31428708863E+00 -0.27841258882E+02  0.28971419602E+02  0.00000000000E+00 0. -1.
</event>
<event>
 8    1  0.2530183E-006  0.9118800E+02  0.7816164E-02  0.1184000E+00
        -11   -1    0    0    0    0  0.00000000000E+00  0.00000000000E+00  0.45593999997E+02  0.45594000000E+02  0.51100000000E-03 0.  1.
         11   -1    0    0    0    0 -0.00000000000E+00 -0.00000000000E+00 -0.45593999997E+02  0.45594000000E+02  0.51100000000E-03 0. -1.
         23    2    1    2    0    0  0.00000000000E+00  0.00000000000E+00  0.71054273576E-14  0.91188000000E+02  0.91188000000E+02 0.  0.
    9900012    2    3    3    0    0  0.14133088176E+02  0.11075950630E+02 -0.32145902202E+02  0.54367083497E+02  0.39999998448E+02 0.  0.
        -12    1    3    3    0    0 -0.14133088176E+02 -0.11075950630E+02  0.32145902202E+02  0.36820916503E+02  0.00000000000E+00 0.  1.
         11    1    4    4    0    0  0.19112440930E+01 -0.49413450883E+01 -0.58888645862E+01  0.79213932890E+01  0.51100000000E-03 0. -1.
        -11    1    4    4    0    0  0.46492779593E+01  0.77745327588E+01 -0.32424311474E+02  0.33665934117E+02  0.51100000000E-03 0.  1.
         12    1    4    4    0    0  0.75725661234E+01  0.82427629594E+01  0.61672738581E+01  0.12779756091E+02  0.00000000000E+00 0. -1.
</event>
<event>
 8    1  0.2530183E-006  0.9118800E+02  0.7816164E-02  0.1184000E+00
        -11   -1    0    0    0    0  0.00000000000E+00  0.00000000000E+00  0.45593999997E+02  0.45594000000E+02  0.51100000000E-03 0. -1.
         11   -1    0    0    0    0 -0.00000000000E+00 -0.00000000000E+00 -0.45593999997E+02  0.45594000000E+02  0.51100000000E-03 0.  1.
         23    2    1    2    0    0  0.35527136788E-14  0.53290705182E-14  0.35527136788E-14  0.91188000000E+02  0.91188000000E+02 0.  0.
    9900012    2    3    3    0    0 -0.17755866877E+02 -0.14442282680E+02  0.28843220576E+02  0.54367058801E+02  0.39999942148E+02 0.  0.
        -12    1    3    3    0    0  0.17755866877E+02  0.14442282680E+02 -0.28843220576E+02  0.36820941199E+02  0.00000000000E+00 0.  1.
         11    1    4    4    0    0 -0.14360024056E+02  0.25647271042E+01  0.81728888790E+01  0.16720772377E+02  0.51100000000E-03 0. -1.
        -11    1    4    4    0    0 -0.13402091789E+02 -0.27059737810E+01  0.11835361659E+02  0.18083532406E+02  0.51100000000E-03 0.  1.
         12    1    4    4    0    0  0.10006248968E+02 -0.14301036004E+02  0.88349700385E+01  0.19562754018E+02  0.00000000000E+00 0. -1.
</event>
<event>
 8    1  0.2530183E-006  0.9118800E+02  0.7816164E-02  0.1184000E+00
        -11   -1    0    0    0    0  0.00000000000E+00  0.00000000000E+00  0.45593999997E+02  0.45594000000E+02  0.51100000000E-03 0.  1.
         11   -1    0    0    0    0 -0.00000000000E+00 -0.00000000000E+00 -0.45593999997E+02  0.45594000000E+02  0.51100000000E-03 0. -1.
         23    2    1    2    0    0 -0.35527136788E-14  0.00000000000E+00  0.35527136788E-14  0.91188000000E+02  0.91188000000E+02 0.  0.
    9900012    2    3    3    0    0 -0.26462970840E+02  0.13427389786E+02  0.21798999961E+02  0.54367081741E+02  0.39999994446E+02 0.  0.
         12    1    3    3    0    0  0.26462970840E+02 -0.13427389786E+02 -0.21798999961E+02  0.36820918259E+02  0.00000000000E+00 0. -1.
         11    1    4    4    0    0 -0.27801931372E+01 -0.75846337503E+01  0.56825237609E+01  0.98765995950E+01  0.51100000000E-03 0. -1.
        -11    1    4    4    0    0 -0.21055571866E+02  0.27391441695E+02  0.12905089146E+02  0.36880476012E+02  0.51100000000E-03 0.  1.
        -12    1    4    4    0    0 -0.26272058362E+01 -0.63794181588E+01  0.32113870533E+01  0.76100061338E+01  0.00000000000E+00 0.  1.
</event>
<event>
 8    1  0.2530183E-006  0.9118800E+02  0.7816164E-02  0.1184000E+00
        -11   -1    0    0    0    0  0.00000000000E+00  0.00000000000E+00  0.45593999997E+02  0.45594000000E+02  0.51100000000E-03 0.  1.
         11   -1    0    0    0    0 -0.00000000000E+00 -0.00000000000E+00 -0.45593999997E+02  0.45594000000E+02  0.51100000000E-03 0. -1.
         23    2    1    2    0    0 -0.71054273576E-14 -0.53290705182E-14  0.00000000000E+00  0.91188000000E+02  0.91188000000E+02 0.  0.
    9900012    2    3    3    0    0 -0.33283512070E+02 -0.14260279928E+02 -0.66807307045E+01  0.54367083090E+02  0.39999997521E+02 0.  0.
        -12    1    3    3    0    0  0.33283512070E+02  0.14260279928E+02  0.66807307045E+01  0.36820916910E+02  0.00000000000E+00 0.  1.
         11    1    4    4    0    0  0.40205092188E+01  0.25186805691E+01  0.69922123006E+01  0.84498094242E+01  0.51100000000E-03 0. -1.
        -11    1    4    4    0    0 -0.17474312065E+02  0.53430235143E+00 -0.46608785295E+01  0.18093116096E+02  0.51100000000E-03 0.  1.
         12    1    4    4    0    0 -0.19829709224E+02 -0.17313262848E+02 -0.90120644757E+01  0.27824157570E+02  0.00000000000E+00 0. -1.
</event>
<event>
 8    1  0.2530183E-006  0.9118800E+02  0.7816164E-02  0.1184000E+00
        -11   -1    0    0    0    0  0.00000000000E+00  0.00000000000E+00  0.45593999997E+02  0.45594000000E+02  0.51100000000E-03 0.  1.
         11   -1    0    0    0    0 -0.00000000000E+00 -0.00000000000E+00 -0.45593999997E+02  0.45594000000E+02  0.51100000000E-03 0. -1.
         23    2    1    2    0    0  0.17763568394E-14  0.00000000000E+00 -0.35527136788E-14  0.91188000000E+02  0.91188000000E+02 0.  0.
    9900012    2    3    3    0    0 -0.91126362259E+01 -0.34873529459E+02  0.75217197505E+01  0.54367089312E+02  0.40000011704E+02 0.  0.
         12    1    3    3    0    0  0.91126362259E+01  0.34873529459E+02 -0.75217197505E+01  0.36820910688E+02  0.00000000000E+00 0. -1.
         11    1    4    4    0    0 -0.97002311605E+01 -0.87745528789E+01  0.17166668456E+02  0.21581977873E+02  0.51100000000E-03 0. -1.
        -11    1    4    4    0    0 -0.61302422312E+01 -0.96903884981E+01 -0.97543460482E+01  0.15054260731E+02  0.51100000000E-03 0.  1.
         12    1    4    4    0    0  0.67178371658E+01 -0.16408588082E+02  0.10939734271E+00  0.17730850708E+02  0.00000000000E+00 0. -1.
</event>
<event>
 8    1  0.2530183E-006  0.9118800E+02  0.7816164E-02  0.1184000E+00
        -11   -1    0    0    0    0  0.00000000000E+00  0.00000000000E+00  0.45593999997E+02  0.45594000000E+02  0.51100000000E-03 0. -1.
         11   -1    0    0    0    0 -0.00000000000E+00 -0.00000000000E+00 -0.45593999997E+02  0.45594000000E+02  0.51100000000E-03 0.  1.
         23    2    1    2    0    0  0.17763568394E-14  0.00000000000E+00  0.00000000000E+00  0.91188000000E+02  0.91188000000E+02 0.  0.
    9900012    2    3    3    0    0  0.15077763245E+02  0.22123014427E+02 -0.25278709459E+02  0.54367083882E+02  0.39999999327E+02 0.  0.
         12    1    3    3    0    0 -0.15077763245E+02 -0.22123014427E+02  0.25278709459E+02  0.36820916118E+02  0.00000000000E+00 0. -1.
         11    1    4    4    0    0  0.61068975092E+01  0.31075738750E+01  0.53898686035E+01  0.87179066525E+01  0.51100000000E-03 0. -1.
        -11    1    4    4    0    0  0.87852215321E+01 -0.18532554040E+01 -0.20612743608E+02  0.22483324315E+02  0.51100000000E-03 0.  1.
        -12    1    4    4    0    0  0.18564420343E+00  0.20868695956E+02 -0.10055834455E+02  0.23165852915E+02  0.00000000000E+00 0.  1.
</event>
<event>
 8    1  0.2530183E-006  0.9118800E+02  0.7816164E-02  0.1184000E+00
        -11   -1    0    0    0    0  0.00000000000E+00  0.00000000000E+00  0.45593999997E+02  0.45594000000E+02  0.51100000000E-03 0. -1.
         11   -1    0    0    0    0 -0.00000000000E+00 -0.00000000000E+00 -0.45593999997E+02  0.45594000000E+02  0.51100000000E-03 0.  1.
         23    2    1    2    0    0  0.35527136788E-14 -0.88817841970E-15  0.71054273576E-14  0.91188000000E+02  0.91188000000E+02 0.  0.
    9900012    2    3    3    0    0 -0.16843762018E+02 -0.50677112488E+01 -0.32347897203E+02  0.54367075654E+02  0.39999980569E+02 0.  0.
         12    1    3    3    0    0  0.16843762018E+02  0.50677112488E+01  0.32347897203E+02  0.36820924346E+02  0.00000000000E+00 0. -1.
         11    1    4    4    0    0  0.51393527720E+01 -0.95982338694E+01  0.44672513057E+00  0.10896724459E+02  0.51100000000E-03 0. -1.
        -11    1    4    4    0    0  0.82788904005E+00  0.11725359760E+01  0.15445807527E+01  0.21085470923E+01  0.51100000000E-03 0.  1.
        -12    1    4    4    0    0 -0.22811003830E+02  0.33579866446E+01 -0.34339203086E+02  0.41361804103E+02  0.00000000000E+00 0.  1.
</event>
<event>
 8    1  0.2530183E-006  0.9118800E+02  0.7816164E-02  0.1184000E+00
        -11   -1    0    0    0    0  0.00000000000E+00  0.00000000000E+00  0.45593999997E+02  0.45594000000E+02  0.51100000000E-03 0.  1.
         11   -1    0    0    0    0 -0.00000000000E+00 -0.00000000000E+00 -0.45593999997E+02  0.45594000000E+02  0.51100000000E-03 0. -1.
         23    2    1    2    0    0 -0.35527136788E-14  0.00000000000E+00  0.44408920985E-15  0.91188000000E+02  0.91188000000E+02 0.  0.
    9900012    2    3    3    0    0  0.22803333600E+02  0.28890309035E+02  0.10668044077E+01  0.54367081339E+02  0.39999993528E+02 0.  0.
         12    1    3    3    0    0 -0.22803333600E+02 -0.28890309035E+02 -0.10668044077E+01  0.36820918661E+02  0.00000000000E+00 0. -1.
         11    1    4    4    0    0 -0.25771095533E+01  0.31642070851E+01 -0.54000863793E-02  0.40808981302E+01  0.51100000000E-03 0. -1.
        -11    1    4    4    0    0 -0.66549729489E+01 -0.19030681873E+01  0.37963006402E+01  0.78944431272E+01  0.51100000000E-03 0.  1.
        -12    1    4    4    0    0  0.32035416103E+02  0.27629170137E+02 -0.27240961461E+01  0.42391740081E+02  0.00000000000E+00 0.  1.
</event>
<event>
 8    1  0.2530183E-006  0.9118800E+02  0.7816164E-02  0.1184000E+00
        -11   -1    0    0    0    0  0.00000000000E+00  0.00000000000E+00  0.45593999997E+02  0.45594000000E+02  0.51100000000E-03 0.  1.
         11   -1    0    0    0    0 -0.00000000000E+00 -0.00000000000E+00 -0.45593999997E+02  0.45594000000E+02  0.51100000000E-03 0. -1.
         23    2    1    2    0    0  0.00000000000E+00  0.00000000000E+00  0.17763568394E-14  0.91188000000E+02  0.91188000000E+02 0.  0.
    9900012    2    3    3    0    0  0.23442892464E+02  0.27914226261E+02  0.51968371048E+01  0.54367077269E+02  0.39999984251E+02 0.  0.
        -12    1    3    3    0    0 -0.23442892464E+02 -0.27914226261E+02 -0.51968371048E+01  0.36820922731E+02  0.00000000000E+00 0.  1.
         11    1    4    4    0    0  0.16759970338E+02  0.12426615870E+02 -0.68807171481E+01  0.21969562045E+02  0.51100000000E-03 0. -1.
        -11    1    4    4    0    0  0.36674330329E+01  0.34229871810E+01  0.17955084922E+02  0.18642746072E+02  0.51100000000E-03 0.  1.
        -12    1    4    4    0    0  0.30154890933E+01  0.12064623210E+02 -0.58775306691E+01  0.13754769153E+02  0.00000000000E+00 0.  1.
</event>
<event>
 8    1  0.2530183E-006  0.9118800E+02  0.7816164E-02  0.1184000E+00
        -11   -1    0    0    0    0  0.00000000000E+00  0.00000000000E+00  0.45593999997E+02  0.45594000000E+02  0.51100000000E-03 0. -1.
         11   -1    0    0    0    0 -0.00000000000E+00 -0.00000000000E+00 -0.45593999997E+02  0.45594000000E+02  0.51100000000E-03 0.  1.
         23    2    1    2    0    0  0.00000000000E+00  0.53290705182E-14  0.00000000000E+00  0.91188000000E+02  0.91188000000E+02 0.  0.
    9900012    2    3    3    0    0 -0.18927919887E+02  0.15846777288E+02 -0.27320193051E+02  0.54367089500E+02  0.40000012134E+02 0.  0.
         12    1    3    3    0    0  0.18927919887E+02 -0.15846777288E+02  0.27320193051E+02  0.36820910500E+02  0.00000000000E+00 0. -1.
         11    1    4    4    0    0 -0.39568466536E+01  0.61859999019E+01 -0.24965696639E+01  0.77560357513E+01  0.51100000000E-03 0. -1.
        -11    1    4    4    0    0 -0.70626796502E+01 -0.10965749780E+02 -0.20194624855E+02  0.24040631967E+02  0.51100000000E-03 0.  1.
        -12    1    4    4    0    0 -0.79083935833E+01  0.20626527166E+02 -0.46289985319E+01  0.22570421782E+02  0.00000000000E+00 0.  1.
</event>
<event>
 8    1  0.2530183E-006  0.9118800E+02  0.7816164E-02  0.1184000E+00
        -11   -1    0    0    0    0  0.00000000000E+00  0.00000000000E+00  0.45593999997E+02  0.45594000000E+02  0.51100000000E-03 0. -1.
         11   -1    0    0    0    0 -0.00000000000E+00 -0.00000000000E+00 -0.45593999997E+02  0.45594000000E+02  0.51100000000E-03 0.  1.
         23    2    1    2    0    0 -0.17763568394E-14  0.35527136788E-14 -0.35527136788E-14  0.91188000000E+02  0.91188000000E+02 0.  0.
    9900012    2    3    3    0    0 -0.81785438131E+01 -0.21535035574E+02 -0.28725143186E+02  0.54367079491E+02  0.39999989316E+02 0.  0.
         12    1    3    3    0    0  0.81785438131E+01  0.21535035574E+02  0.28725143186E+02  0.36820920509E+02  0.00000000000E+00 0. -1.
         11    1    4    4    0    0  0.14342540389E+02 -0.54418777464E+01 -0.24324836729E+01  0.15531885761E+02  0.51100000000E-03 0. -1.
        -11    1    4    4    0    0 -0.10521100004E+02 -0.39121653797E+01 -0.79261171918E+01  0.13741248751E+02  0.51100000000E-03 0.  1.
         12    1    4    4    0    0 -0.11999984198E+02 -0.12180992447E+02 -0.18366542321E+02  0.25093944979E+02  0.00000000000E+00 0. -1.
</event>
<event>
 8    1  0.2530183E-006  0.9118800E+02  0.7816164E-02  0.1184000E+00
        -11   -1    0    0    0    0  0.00000000000E+00  0.00000000000E+00  0.45593999997E+02  0.45594000000E+02  0.51100000000E-03 0.  1.
         11   -1    0    0    0    0 -0.00000000000E+00 -0.00000000000E+00 -0.45593999997E+02  0.45594000000E+02  0.51100000000E-03 0. -1.
         23    2    1    2    0    0  0.35527136788E-14  0.71054273576E-14 -0.35527136788E-14  0.91188000000E+02  0.91188000000E+02 0.  0.
    9900012    2    3    3    0    0  0.18235843026E+02  0.20813760981E+02 -0.24290341867E+02  0.54367091197E+02  0.40000016001E+02 0.  0.
        -12    1    3    3    0    0 -0.18235843026E+02 -0.20813760981E+02  0.24290341867E+02  0.36820908803E+02  0.00000000000E+00 0.  1.
         11    1    4    4    0    0 -0.29290430859E+01 -0.13413064564E+01 -0.74588098977E+01  0.81247917979E+01  0.51100000000E-03 0. -1.
        -11    1    4    4    0    0  0.94302485998E+01 -0.47777198492E+01 -0.12780631507E+02  0.16586161027E+02  0.51100000000E-03 0.  1.
        -12    1    4    4    0    0  0.11734637513E+02  0.26932787287E+02 -0.40509004620E+01  0.29656138372E+02  0.00000000000E+00 0.  1.
</event>
<event>
 8    1  0.2530183E-006  0.9118800E+02  0.7816164E-02  0.1184000E+00
        -11   -1    0    0    0    0  0.00000000000E+00  0.00000000000E+00  0.45593999997E+02  0.45594000000E+02  0.51100000000E-03 0.  1.
         11   -1    0    0    0    0 -0.00000000000E+00 -0.00000000000E+00 -0.45593999997E+02  0.45594000000E+02  0.51100000000E-03 0. -1.
         23    2    1    2    0    0  0.00000000000E+00  0.00000000000E+00 -0.71054273576E-14  0.91188000000E+02  0.91188000000E+02 0.  0.
    9900012    2    3    3    0    0  0.15572114055E+02  0.14490002168E+02  0.30055420237E+02  0.54367093104E+02  0.40000020350E+02 0.  0.
         12    1    3    3    0    0 -0.15572114055E+02 -0.14490002168E+02 -0.30055420237E+02  0.36820906896E+02  0.00000000000E+00 0. -1.
         11    1    4    4    0    0  0.22203191428E+01  0.28846462807E+00 -0.42429165599E+01  0.47974337028E+01  0.51100000000E-03 0.  1.
        -11    1    4    4    0    0  0.55584113873E+01  0.21811064192E+02  0.13925054869E+02  0.26467444374E+02  0.51100000000E-03 0. -1.
        -12    1    4    4    0    0  0.77933835253E+01 -0.76095266521E+01  0.20373281928E+02  0.23102215027E+02  0.00000000000E+00 0.  1.
</event>
<event>
 8    1  0.2530183E-006  0.9118800E+02  0.7816164E-02  0.1184000E+00
        -11   -1    0    0    0    0  0.00000000000E+00  0.00000000000E+00  0.45593999997E+02  0.45594000000E+02  0.51100000000E-03 0.  1.
         11   -1    0    0    0    0 -0.00000000000E+00 -0.00000000000E+00 -0.45593999997E+02  0.45594000000E+02  0.51100000000E-03 0. -1.
         23    2    1    2    0    0 -0.35527136788E-14 -0.22204460493E-15  0.00000000000E+00  0.91188000000E+02  0.91188000000E+02 0.  0.
    9900012    2    3    3    0    0  0.16171289816E+02  0.10782776210E+01 -0.33062159523E+02  0.54367086252E+02  0.40000004728E+02 0.  0.
        -12    1    3    3    0    0 -0.16171289816E+02 -0.10782776210E+01  0.33062159523E+02  0.36820913748E+02  0.00000000000E+00 0.  1.
         11    1    4    4    0    0  0.43522297588E+01  0.25235949390E+01 -0.31002892935E+02  0.31408435266E+02  0.51100000000E-03 0. -1.
        -11    1    4    4    0    0 -0.41044769612E+01 -0.48406095959E+01 -0.20751125925E+01  0.66771494605E+01  0.51100000000E-03 0.  1.
        -12    1    4    4    0    0  0.15923537018E+02  0.33952922779E+01  0.15846004308E-01  0.16281501525E+02  0.00000000000E+00 0.  1.
</event>
<event>
 8    1  0.2530183E-006  0.9118800E+02  0.7816164E-02  0.1184000E+00
        -11   -1    0    0    0    0  0.00000000000E+00  0.00000000000E+00  0.45593999997E+02  0.45594000000E+02  0.51100000000E-03 0. -1.
         11   -1    0    0    0    0 -0.00000000000E+00 -0.00000000000E+00 -0.45593999997E+02  0.45594000000E+02  0.51100000000E-03 0.  1.
         23    2    1    2    0    0  0.00000000000E+00  0.00000000000E+00 -0.88817841970E-15  0.91188000000E+02  0.91188000000E+02 0.  0.
    9900012    2    3    3    0    0 -0.28969627446E+02  0.22151199001E+02  0.50857092587E+01  0.54367090584E+02  0.40000014604E+02 0.  0.
        -12    1    3    3    0    0  0.28969627446E+02 -0.22151199001E+02 -0.50857092587E+01  0.36820909416E+02  0.00000000000E+00 0.  1.
         11    1    4    4    0    0 -0.27379861297E+02  0.20115078095E+02 -0.63451872021E+01  0.34562039469E+02  0.51100000000E-03 0. -1.
        -11    1    4    4    0    0 -0.10090127632E+01 -0.10998975559E+01 -0.38843440847E+01  0.41612510883E+01  0.51100000000E-03 0.  1.
         12    1    4    4    0    0 -0.58075338619E+00  0.31360184622E+01  0.15315240546E+02  0.15643800026E+02  0.00000000000E+00 0. -1.
</event>
<event>
 8    1  0.2530183E-006  0.9118800E+02  0.7816164E-02  0.1184000E+00
        -11   -1    0    0    0    0  0.00000000000E+00  0.00000000000E+00  0.45593999997E+02  0.45594000000E+02  0.51100000000E-03 0.  1.
         11   -1    0    0    0    0 -0.00000000000E+00 -0.00000000000E+00 -0.45593999997E+02  0.45594000000E+02  0.51100000000E-03 0. -1.
         23    2    1    2    0    0  0.17763568394E-14  0.71054273576E-14  0.35527136788E-14  0.91188000000E+02  0.91188000000E+02 0.  0.
    9900012    2    3    3    0    0  0.14928042437E+02  0.32177469641E+02  0.98765033982E+01  0.54367064068E+02  0.39999954157E+02 0.  0.
         12    1    3    3    0    0 -0.14928042437E+02 -0.32177469641E+02 -0.98765033982E+01  0.36820935932E+02  0.00000000000E+00 0. -1.
         11    1    4    4    0    0  0.52870107374E+01  0.44409313868E+01 -0.18679515365E+01  0.71528733613E+01  0.51100000000E-03 0. -1.
        -11    1    4    4    0    0  0.57916337158E+01  0.18218079765E+02 -0.11144525113E+02  0.22127853300E+02  0.51100000000E-03 0.  1.
        -12    1    4    4    0    0  0.38493979835E+01  0.95184584895E+01  0.22888980048E+02  0.25086337407E+02  0.00000000000E+00 0.  1.
</event>
<event>
 8    1  0.2530183E-006  0.9118800E+02  0.7816164E-02  0.1184000E+00
        -11   -1    0    0    0    0  0.00000000000E+00  0.00000000000E+00  0.45593999997E+02  0.45594000000E+02  0.51100000000E-03 0. -1.
         11   -1    0    0    0    0 -0.00000000000E+00 -0.00000000000E+00 -0.45593999997E+02  0.45594000000E+02  0.51100000000E-03 0.  1.
         23    2    1    2    0    0 -0.17763568394E-14  0.00000000000E+00  0.00000000000E+00  0.91188000000E+02  0.91188000000E+02 0.  0.
    9900012    2    3    3    0    0  0.14375800827E+02  0.65876987960E+01  0.33252362522E+02  0.54367067935E+02  0.39999962972E+02 0.  0.
        -12    1    3    3    0    0 -0.14375800827E+02 -0.65876987960E+01 -0.33252362522E+02  0.36820932065E+02  0.00000000000E+00 0.  1.
         11    1    4    4    0    0  0.12428768509E+01 -0.35317419452E+01  0.21462953202E+02  0.21787067367E+02  0.51100000000E-03 0. -1.
        -11    1    4    4    0    0 -0.55742011981E+00 -0.59037652877E+01  0.97427599376E+01  0.11405548353E+02  0.51100000000E-03 0.  1.
        -12    1    4    4    0    0  0.13690344096E+02  0.16023206029E+02  0.20466493817E+01  0.21174452215E+02  0.00000000000E+00 0.  1.
</event>
<event>
 8    1  0.2530183E-006  0.9118800E+02  0.7816164E-02  0.1184000E+00
        -11   -1    0    0    0    0  0.00000000000E+00  0.00000000000E+00  0.45593999997E+02  0.45594000000E+02  0.51100000000E-03 0. -1.
         11   -1    0    0    0    0 -0.00000000000E+00 -0.00000000000E+00 -0.45593999997E+02  0.45594000000E+02  0.51100000000E-03 0.  1.
         23    2    1    2    0    0  0.00000000000E+00  0.00000000000E+00 -0.35527136788E-14  0.91188000000E+02  0.91188000000E+02 0.  0.
    9900012    2    3    3    0    0  0.25120368787E+02  0.16300730735E+02  0.21425050983E+02  0.54367088005E+02  0.40000008725E+02 0.  0.
        -12    1    3    3    0    0 -0.25120368787E+02 -0.16300730735E+02 -0.21425050983E+02  0.36820911995E+02  0.00000000000E+00 0.  1.
         11    1    4    4    0    0  0.50145134311E+01 -0.64790300011E+01 -0.46490904396E+01  0.94200433588E+01  0.51100000000E-03 0.  1.
        -11    1    4    4    0    0  0.22957700897E+02  0.23983566241E+02  0.25339625649E+02  0.41765585216E+02  0.51100000000E-03 0. -1.
         12    1    4    4    0    0 -0.28518455411E+01 -0.12038055052E+01  0.73451577397E+00  0.31814594303E+01  0.00000000000E+00 0. -1.
</event>
<event>
 8    1  0.2530183E-006  0.9118800E+02  0.7816164E-02  0.1184000E+00
        -11   -1    0    0    0    0  0.00000000000E+00  0.00000000000E+00  0.45593999997E+02  0.45594000000E+02  0.51100000000E-03 0.  1.
         11   -1    0    0    0    0 -0.00000000000E+00 -0.00000000000E+00 -0.45593999997E+02  0.45594000000E+02  0.51100000000E-03 0. -1.
         23    2    1    2    0    0  0.00000000000E+00  0.00000000000E+00  0.00000000000E+00  0.91188000000E+02  0.91188000000E+02 0.  0.
    9900012    2    3    3    0    0 -0.84194778004E+01  0.31744368402E+02 -0.16648938502E+02  0.54367086311E+02  0.40000004862E+02 0.  0.
        -12    1    3    3    0    0  0.84194778004E+01 -0.31744368402E+02  0.16648938502E+02  0.36820913689E+02  0.00000000000E+00 0.  1.
         11    1    4    4    0    0 -0.99821888578E+01  0.18052623496E+02 -0.17763156347E+02  0.27222619880E+02  0.51100000000E-03 0.  1.
        -11    1    4    4    0    0  0.20811958939E+01  0.90537870053E+01 -0.10860961578E+02  0.14292058009E+02  0.51100000000E-03 0. -1.
        -12    1    4    4    0    0 -0.51848483646E+00  0.46379579013E+01  0.11975179423E+02  0.12852408421E+02  0.00000000000E+00 0.  1.
</event>
<event>
 8    1  0.2530183E-006  0.9118800E+02  0.7816164E-02  0.1184000E+00
        -11   -1    0    0    0    0  0.00000000000E+00  0.00000000000E+00  0.45593999997E+02  0.45594000000E+02  0.51100000000E-03 0.  1.
         11   -1    0    0    0    0 -0.00000000000E+00 -0.00000000000E+00 -0.45593999997E+02  0.45594000000E+02  0.51100000000E-03 0. -1.
         23    2    1    2    0    0 -0.13322676296E-14  0.17763568394E-14  0.71054273576E-14  0.91188000000E+02  0.91188000000E+02 0.  0.
    9900012    2    3    3    0    0  0.38008263811E+01  0.90391405878E+01  0.35491259095E+02  0.54367057373E+02  0.39999938894E+02 0.  0.
         12    1    3    3    0    0 -0.38008263811E+01 -0.90391405878E+01 -0.35491259095E+02  0.36820942627E+02  0.00000000000E+00 0. -1.
         11    1    4    4    0    0 -0.10042000535E+02  0.94276706413E+01  0.24452502055E+02  0.28065060225E+02  0.51100000000E-03 0. -1.
        -11    1    4    4    0    0 -0.12981384110E+01  0.64009026485E+01  0.62292200995E+01  0.90255139111E+01  0.51100000000E-03 0.  1.
         12    1    4    4    0    0  0.15140965327E+02 -0.67894327020E+01  0.48095369410E+01  0.17276483237E+02  0.00000000000E+00 0. -1.
</event>
<event>
 8    1  0.2530183E-006  0.9118800E+02  0.7816164E-02  0.1184000E+00
        -11   -1    0    0    0    0  0.00000000000E+00  0.00000000000E+00  0.45593999997E+02  0.45594000000E+02  0.51100000000E-03 0. -1.
         11   -1    0    0    0    0 -0.00000000000E+00 -0.00000000000E+00 -0.45593999997E+02  0.45594000000E+02  0.51100000000E-03 0.  1.
         23    2    1    2    0    0  0.00000000000E+00  0.35527136788E-14  0.35527136788E-14  0.91188000000E+02  0.91188000000E+02 0.  0.
    9900012    2    3    3    0    0  0.87788865314E+01 -0.28977762176E+02 -0.20952347649E+02  0.54367076309E+02  0.39999982061E+02 0.  0.
         12    1    3    3    0    0 -0.87788865314E+01  0.28977762176E+02  0.20952347649E+02  0.36820923691E+02  0.00000000000E+00 0. -1.
         11    1    4    4    0    0  0.46244851189E+01  0.82996970849E+01 -0.97152293000E+01  0.13588837880E+02  0.51100000000E-03 0. -1.
        -11    1    4    4    0    0  0.56406760286E+01 -0.25761141186E+02 -0.12336836770E+02  0.29114449386E+02  0.51100000000E-03 0.  1.
         12    1    4    4    0    0 -0.14862746161E+01 -0.11516318075E+02  0.10997184211E+01  0.11663789043E+02  0.00000000000E+00 0. -1.
</event>
<event>
 8    1  0.2530183E-006  0.9118800E+02  0.7816164E-02  0.1184000E+00
        -11   -1    0    0    0    0  0.00000000000E+00  0.00000000000E+00  0.45593999997E+02  0.45594000000E+02  0.51100000000E-03 0. -1.
         11   -1    0    0    0    0 -0.00000000000E+00 -0.00000000000E+00 -0.45593999997E+02  0.45594000000E+02  0.51100000000E-03 0.  1.
         23    2    1    2    0    0  0.35527136788E-14  0.00000000000E+00  0.00000000000E+00  0.91188000000E+02  0.91188000000E+02 0.  0.
    9900012    2    3    3    0    0 -0.23564685876E+02  0.40666663075E+01 -0.27999062037E+02  0.54367086510E+02  0.40000005317E+02 0.  0.
         12    1    3    3    0    0  0.23564685876E+02 -0.40666663075E+01  0.27999062037E+02  0.36820913490E+02  0.00000000000E+00 0. -1.
         11    1    4    4    0    0  0.10695399716E+01 -0.46598847920E+01  0.54188111581E+00  0.48116605689E+01  0.51100000000E-03 0. -1.
        -11    1    4    4    0    0  0.26120497770E+01  0.83310171202E+01 -0.18604200988E+02  0.20551032698E+02  0.51100000000E-03 0.  1.
         12    1    4    4    0    0 -0.27246275625E+02  0.39553397939E+00 -0.99367421644E+01  0.29004393243E+02  0.00000000000E+00 0. -1.
</event>
<event>
 8    1  0.2530183E-006  0.9118800E+02  0.7816164E-02  0.1184000E+00
        -11   -1    0    0    0    0  0.00000000000E+00  0.00000000000E+00  0.45593999997E+02  0.45594000000E+02  0.51100000000E-03 0. -1.
         11   -1    0    0    0    0 -0.00000000000E+00 -0.00000000000E+00 -0.45593999997E+02  0.45594000000E+02  0.51100000000E-03 0.  1.
         23    2    1    2    0    0 -0.71054273576E-14  0.00000000000E+00  0.35527136788E-14  0.91188000000E+02  0.91188000000E+02 0.  0.
    9900012    2    3    3    0    0  0.28779986962E+02  0.10630760275E+02 -0.20358789091E+02  0.54367068360E+02  0.39999963940E+02 0.  0.
         12    1    3    3    0    0 -0.28779986962E+02 -0.10630760275E+02  0.20358789091E+02  0.36820931640E+02  0.00000000000E+00 0. -1.
         11    1    4    4    0    0  0.18351397211E+01 -0.62078432984E+01  0.16834343145E+01  0.66887224166E+01  0.51100000000E-03 0. -1.
        -11    1    4    4    0    0 -0.29563912900E+01  0.10097952125E+02 -0.11515170729E+01  0.10584652966E+02  0.51100000000E-03 0.  1.
        -12    1    4    4    0    0  0.29901238531E+02  0.67406514487E+01 -0.20890706333E+02  0.37093692978E+02  0.00000000000E+00 0.  1.
</event>
<event>
 8    1  0.2530183E-006  0.9118800E+02  0.7816164E-02  0.1184000E+00
        -11   -1    0    0    0    0  0.00000000000E+00  0.00000000000E+00  0.45593999997E+02  0.45594000000E+02  0.51100000000E-03 0. -1.
         11   -1    0    0    0    0 -0.00000000000E+00 -0.00000000000E+00 -0.45593999997E+02  0.45594000000E+02  0.51100000000E-03 0.  1.
         23    2    1    2    0    0 -0.17763568394E-14  0.00000000000E+00  0.00000000000E+00  0.91188000000E+02  0.91188000000E+02 0.  0.
    9900012    2    3    3    0    0  0.99785545513E+01  0.13249770391E+02 -0.32873277554E+02  0.54367077367E+02  0.39999984475E+02 0.  0.
         12    1    3    3    0    0 -0.99785545513E+01 -0.13249770391E+02  0.32873277554E+02  0.36820922633E+02  0.00000000000E+00 0. -1.
         11    1    4    4    0    0 -0.44261192290E+01  0.13529342401E+02  0.23489831857E+01  0.14427451594E+02  0.51100000000E-03 0.  1.
        -11    1    4    4    0    0  0.14155217500E+02 -0.28108141495E+01 -0.20932052344E+02  0.25424823977E+02  0.51100000000E-03 0. -1.
        -12    1    4    4    0    0  0.24945628081E+00  0.25312421400E+01 -0.14290208396E+02  0.14514801797E+02  0.00000000000E+00 0.  1.
</event>
<event>
 8    1  0.2530183E-006  0.9118800E+02  0.7816164E-02  0.1184000E+00
        -11   -1    0    0    0    0  0.00000000000E+00  0.00000000000E+00  0.45593999997E+02  0.45594000000E+02  0.51100000000E-03 0.  1.
         11   -1    0    0    0    0 -0.00000000000E+00 -0.00000000000E+00 -0.45593999997E+02  0.45594000000E+02  0.51100000000E-03 0. -1.
         23    2    1    2    0    0 -0.71054273576E-14 -0.17763568394E-14  0.35527136788E-14  0.91188000000E+02  0.91188000000E+02 0.  0.
    9900012    2    3    3    0    0  0.30712843467E+02  0.10806265237E+02 -0.17196980078E+02  0.54366942899E+02  0.39999677926E+02 0.  0.
        -12    1    3    3    0    0 -0.30712843467E+02 -0.10806265237E+02  0.17196980078E+02  0.36821057101E+02  0.00000000000E+00 0.  1.
         11    1    4    4    0    0  0.27649082663E+02  0.46019088399E+01 -0.20072850084E+02  0.34475623966E+02  0.51100000000E-03 0. -1.
        -11    1    4    4    0    0 -0.73847569242E+01  0.51285173306E+00  0.30135022938E+01  0.79924244173E+01  0.51100000000E-03 0.  1.
        -12    1    4    4    0    0  0.10448517728E+02  0.56915046641E+01 -0.13763228776E+00  0.11898894516E+02  0.00000000000E+00 0.  1.
</event>
<event>
 8    1  0.2530183E-006  0.9118800E+02  0.7816164E-02  0.1184000E+00
        -11   -1    0    0    0    0  0.00000000000E+00  0.00000000000E+00  0.45593999997E+02  0.45594000000E+02  0.51100000000E-03 0. -1.
         11   -1    0    0    0    0 -0.00000000000E+00 -0.00000000000E+00 -0.45593999997E+02  0.45594000000E+02  0.51100000000E-03 0.  1.
         23    2    1    2    0    0 -0.88817841970E-15  0.00000000000E+00  0.00000000000E+00  0.91188000000E+02  0.91188000000E+02 0.  0.
    9900012    2    3    3    0    0  0.66099095079E+01  0.31586219673E+02  0.17731421192E+02  0.54367034852E+02  0.39999887551E+02 0.  0.
        -12    1    3    3    0    0 -0.66099095079E+01 -0.31586219673E+02 -0.17731421192E+02  0.36820965148E+02  0.00000000000E+00 0.  1.
         11    1    4    4    0    0  0.10947665290E+02  0.18629886026E+02  0.99235071391E+01  0.23778141703E+02  0.51100000000E-03 0. -1.
        -11    1    4    4    0    0  0.41857506099E+01 -0.52941530320E+00  0.13114087260E+02  0.13776068875E+02  0.51100000000E-03 0.  1.
         12    1    4    4    0    0 -0.85235063916E+01  0.13485748951E+02 -0.53061732064E+01  0.16812824274E+02  0.00000000000E+00 0. -1.
</event>
<event>
 8    1  0.2530183E-006  0.9118800E+02  0.7816164E-02  0.1184000E+00
        -11   -1    0    0    0    0  0.00000000000E+00  0.00000000000E+00  0.45593999997E+02  0.45594000000E+02  0.51100000000E-03 0.  1.
         11   -1    0    0    0    0 -0.00000000000E+00 -0.00000000000E+00 -0.45593999997E+02  0.45594000000E+02  0.51100000000E-03 0. -1.
         23    2    1    2    0    0  0.13322676296E-14  0.00000000000E+00  0.00000000000E+00  0.91188000000E+02  0.91188000000E+02 0.  0.
    9900012    2    3    3    0    0 -0.32420251688E+01 -0.25679915901E+02 -0.26187996691E+02  0.54367082323E+02  0.39999995773E+02 0.  0.
        -12    1    3    3    0    0  0.32420251688E+01  0.25679915901E+02  0.26187996691E+02  0.36820917677E+02  0.00000000000E+00 0.  1.
         11    1    4    4    0    0 -0.29087658190E+01 -0.14919620649E+02  0.12081018990E+01  0.15248459245E+02  0.51100000000E-03 0. -1.
        -11    1    4    4    0    0  0.66344950447E+01 -0.10191331886E+02 -0.29425330363E+02  0.31839124318E+02  0.51100000000E-03 0.  1.
        -12    1    4    4    0    0 -0.69677543944E+01 -0.56896336553E+00  0.20292317728E+01  0.72794987602E+01  0.00000000000E+00 0.  1.
</event>
<event>
 8    1  0.2530183E-006  0.9118800E+02  0.7816164E-02  0.1184000E+00
        -11   -1    0    0    0    0  0.00000000000E+00  0.00000000000E+00  0.45593999997E+02  0.45594000000E+02  0.51100000000E-03 0. -1.
         11   -1    0    0    0    0 -0.00000000000E+00 -0.00000000000E+00 -0.45593999997E+02  0.45594000000E+02  0.51100000000E-03 0.  1.
         23    2    1    2    0    0  0.00000000000E+00  0.00000000000E+00  0.00000000000E+00  0.91188000000E+02  0.91188000000E+02 0.  0.
    9900012    2    3    3    0    0  0.21685967194E+01 -0.34855929479E+02 -0.11667989689E+02  0.54367073681E+02  0.39999976071E+02 0.  0.
        -12    1    3    3    0    0 -0.21685967194E+01  0.34855929479E+02  0.11667989689E+02  0.36820926319E+02  0.00000000000E+00 0.  1.
         11    1    4    4    0    0  0.39447898419E+01 -0.42196495718E+01  0.58941668025E+01  0.82527578399E+01  0.51100000000E-03 0. -1.
        -11    1    4    4    0    0 -0.53280370205E+00 -0.35860176462E+02 -0.10750840836E+02  0.37440842868E+02  0.51100000000E-03 0.  1.
        -12    1    4    4    0    0 -0.12433894205E+01  0.52238965552E+01 -0.68113156555E+01  0.86734729739E+01  0.00000000000E+00 0.  1.
</event>
<event>
 8    1  0.2530183E-006  0.9118800E+02  0.7816164E-02  0.1184000E+00
        -11   -1    0    0    0    0  0.00000000000E+00  0.00000000000E+00  0.45593999997E+02  0.45594000000E+02  0.51100000000E-03 0.  1.
         11   -1    0    0    0    0 -0.00000000000E+00 -0.00000000000E+00 -0.45593999997E+02  0.45594000000E+02  0.51100000000E-03 0. -1.
         23    2    1    2    0    0  0.88817841970E-15  0.00000000000E+00 -0.71054273576E-14  0.91188000000E+02  0.91188000000E+02 0.  0.
    9900012    2    3    3    0    0  0.22972053045E+01  0.13656074577E+02 -0.34117648540E+02  0.54367089271E+02  0.40000011610E+02 0.  0.
        -12    1    3    3    0    0 -0.22972053045E+01 -0.13656074577E+02  0.34117648540E+02  0.36820910729E+02  0.00000000000E+00 0.  1.
         11    1    4    4    0    0 -0.27770240657E+01  0.35007393410E+01 -0.27593039303E+01  0.52517422857E+01  0.51100000000E-03 0. -1.
        -11    1    4    4    0    0 -0.37666678179E+01 -0.12702987278E+02 -0.12140563708E+02  0.17970725073E+02  0.51100000000E-03 0.  1.
         12    1    4    4    0    0  0.88408971880E+01  0.22858322514E+02 -0.19217780902E+02  0.31144621912E+02  0.00000000000E+00 0. -1.
</event>
<event>
 8    1  0.2530183E-006  0.9118800E+02  0.7816164E-02  0.1184000E+00
        -11   -1    0    0    0    0  0.00000000000E+00  0.00000000000E+00  0.45593999997E+02  0.45594000000E+02  0.51100000000E-03 0. -1.
         11   -1    0    0    0    0 -0.00000000000E+00 -0.00000000000E+00 -0.45593999997E+02  0.45594000000E+02  0.51100000000E-03 0.  1.
         23    2    1    2    0    0 -0.11102230246E-15  0.71054273576E-14 -0.17763568394E-14  0.91188000000E+02  0.91188000000E+02 0.  0.
    9900012    2    3    3    0    0 -0.80335091539E+00  0.35445429401E+02 -0.99376189682E+01  0.54367080554E+02  0.39999991738E+02 0.  0.
        -12    1    3    3    0    0  0.80335091539E+00 -0.35445429401E+02  0.99376189682E+01  0.36820919446E+02  0.00000000000E+00 0.  1.
         11    1    4    4    0    0 -0.25927762023E+01  0.31550219126E+02  0.21365715942E+01  0.31728595207E+02  0.51100000000E-03 0. -1.
        -11    1    4    4    0    0 -0.38314037123E+00 -0.21124387979E+01  0.44399354930E+01  0.49317564480E+01  0.51100000000E-03 0.  1.
        -12    1    4    4    0    0  0.21725656582E+01  0.60076490726E+01 -0.16514126055E+02  0.17706728899E+02  0.00000000000E+00 0.  1.
</event>
<event>
 8    1  0.2530183E-006  0.9118800E+02  0.7816164E-02  0.1184000E+00
        -11   -1    0    0    0    0  0.00000000000E+00  0.00000000000E+00  0.45593999997E+02  0.45594000000E+02  0.51100000000E-03 0.  1.
         11   -1    0    0    0    0 -0.00000000000E+00 -0.00000000000E+00 -0.45593999997E+02  0.45594000000E+02  0.51100000000E-03 0. -1.
         23    2    1    2    0    0  0.00000000000E+00  0.00000000000E+00  0.00000000000E+00  0.91188000000E+02  0.91188000000E+02 0.  0.
    9900012    2    3    3    0    0  0.20488651832E+02  0.19391281436E+02  0.23663692773E+02  0.54367122698E+02  0.40000087815E+02 0.  0.
         12    1    3    3    0    0 -0.20488651832E+02 -0.19391281436E+02 -0.23663692773E+02  0.36820877302E+02  0.00000000000E+00 0. -1.
         11    1    4    4    0    0  0.96170793290E+01  0.16016228238E+02  0.13274990760E+02  0.22917965916E+02  0.51100000000E-03 0. -1.
        -11    1    4    4    0    0  0.19417680183E+02  0.65563205366E+01  0.81775049904E+01  0.22065883866E+02  0.51100000000E-03 0.  1.
         12    1    4    4    0    0 -0.85461076798E+01 -0.31812673380E+01  0.22111970223E+01  0.93832729163E+01  0.00000000000E+00 0. -1.
</event>
<event>
 8    1  0.2530183E-006  0.9118800E+02  0.7816164E-02  0.1184000E+00
        -11   -1    0    0    0    0  0.00000000000E+00  0.00000000000E+00  0.45593999997E+02  0.45594000000E+02  0.51100000000E-03 0.  1.
         11   -1    0    0    0    0 -0.00000000000E+00 -0.00000000000E+00 -0.45593999997E+02  0.45594000000E+02  0.51100000000E-03 0. -1.
         23    2    1    2    0    0 -0.35527136788E-14  0.00000000000E+00  0.35527136788E-14  0.91188000000E+02  0.91188000000E+02 0.  0.
    9900012    2    3    3    0    0  0.28168750624E+02 -0.15043354025E+02 -0.18330225559E+02  0.54367106732E+02  0.40000051416E+02 0.  0.
        -12    1    3    3    0    0 -0.28168750624E+02  0.15043354025E+02  0.18330225559E+02  0.36820893268E+02  0.00000000000E+00 0.  1.
         11    1    4    4    0    0  0.17240036189E+01 -0.50279463662E+01 -0.46777795523E+01  0.70805405825E+01  0.51100000000E-03 0. -1.
        -11    1    4    4    0    0 -0.32739253717E+01 -0.98588583620E+01  0.56733124293E+01  0.11836475393E+02  0.51100000000E-03 0.  1.
        -12    1    4    4    0    0  0.29718672377E+02 -0.15654929700E+00 -0.19325758436E+02  0.35450090756E+02  0.00000000000E+00 0.  1.
</event>
<event>
 8    1  0.2530183E-006  0.9118800E+02  0.7816164E-02  0.1184000E+00
        -11   -1    0    0    0    0  0.00000000000E+00  0.00000000000E+00  0.45593999997E+02  0.45594000000E+02  0.51100000000E-03 0.  1.
         11   -1    0    0    0    0 -0.00000000000E+00 -0.00000000000E+00 -0.45593999997E+02  0.45594000000E+02  0.51100000000E-03 0. -1.
         23    2    1    2    0    0  0.00000000000E+00  0.35527136788E-14  0.88817841970E-15  0.91188000000E+02  0.91188000000E+02 0.  0.
    9900012    2    3    3    0    0  0.22977194910E+02  0.27709049766E+02 -0.77482826797E+01  0.54367098200E+02  0.40000031967E+02 0.  0.
        -12    1    3    3    0    0 -0.22977194910E+02 -0.27709049766E+02  0.77482826797E+01  0.36820901800E+02  0.00000000000E+00 0.  1.
         11    1    4    4    0    0 -0.29740949373E+01 -0.91923030234E+00  0.51801846955E+01  0.60435534899E+01  0.51100000000E-03 0. -1.
        -11    1    4    4    0    0  0.11725008391E+02  0.13079816972E+02  0.73828663059E+01  0.19054242282E+02  0.51100000000E-03 0.  1.
         12    1    4    4    0    0  0.14226281456E+02  0.15548463097E+02 -0.20311333681E+02  0.29269302428E+02  0.00000000000E+00 0. -1.
</event>
<event>
 8    1  0.2530183E-006  0.9118800E+02  0.7816164E-02  0.1184000E+00
        -11   -1    0    0    0    0  0.00000000000E+00  0.00000000000E+00  0.45593999997E+02  0.45594000000E+02  0.51100000000E-03 0. -1.
         11   -1    0    0    0    0 -0.00000000000E+00 -0.00000000000E+00 -0.45593999997E+02  0.45594000000E+02  0.51100000000E-03 0.  1.
         23    2    1    2    0    0  0.35527136788E-14  0.00000000000E+00  0.00000000000E+00  0.91188000000E+02  0.91188000000E+02 0.  0.
    9900012    2    3    3    0    0  0.22559154079E+02 -0.27261602814E+02 -0.10181835096E+02  0.54367079497E+02  0.39999989330E+02 0.  0.
        -12    1    3    3    0    0 -0.22559154079E+02  0.27261602814E+02  0.10181835096E+02  0.36820920503E+02  0.00000000000E+00 0.  1.
         11    1    4    4    0    0  0.15749772308E+02 -0.24831225083E+02  0.18862440385E+01  0.29465284381E+02  0.51100000000E-03 0. -1.
        -11    1    4    4    0    0  0.72665881982E+01 -0.10976624070E+02 -0.82067590764E+01  0.15512590848E+02  0.51100000000E-03 0.  1.
        -12    1    4    4    0    0 -0.45720642702E+00  0.85462463385E+01 -0.38613200580E+01  0.93892042680E+01  0.00000000000E+00 0.  1.
</event>
<event>
 8    1  0.2530183E-006  0.9118800E+02  0.7816164E-02  0.1184000E+00
        -11   -1    0    0    0    0  0.00000000000E+00  0.00000000000E+00  0.45593999997E+02  0.45594000000E+02  0.51100000000E-03 0.  1.
         11   -1    0    0    0    0 -0.00000000000E+00 -0.00000000000E+00 -0.45593999997E+02  0.45594000000E+02  0.51100000000E-03 0. -1.
         23    2    1    2    0    0  0.00000000000E+00  0.00000000000E+00  0.22204460493E-14  0.91188000000E+02  0.91188000000E+02 0.  0.
    9900012    2    3    3    0    0 -0.36261223278E+02 -0.50177273126E+01 -0.39656405280E+01  0.54367079237E+02  0.39999988737E+02 0.  0.
         12    1    3    3    0    0  0.36261223278E+02  0.50177273126E+01  0.39656405280E+01  0.36820920763E+02  0.00000000000E+00 0. -1.
         11    1    4    4    0    0 -0.18650606468E+02  0.11549928660E+02  0.43062392515E+01  0.22355976168E+02  0.51100000000E-03 0. -1.
        -11    1    4    4    0    0 -0.15449895092E+01 -0.77207657853E+01  0.50400980596E+01  0.93487863173E+01  0.51100000000E-03 0.  1.
         12    1    4    4    0    0 -0.16065627301E+02 -0.88468901875E+01 -0.13311977839E+02  0.22662316752E+02  0.00000000000E+00 0. -1.
</event>
<event>
 8    1  0.2530183E-006  0.9118800E+02  0.7816164E-02  0.1184000E+00
        -11   -1    0    0    0    0  0.00000000000E+00  0.00000000000E+00  0.45593999997E+02  0.45594000000E+02  0.51100000000E-03 0. -1.
         11   -1    0    0    0    0 -0.00000000000E+00 -0.00000000000E+00 -0.45593999997E+02  0.45594000000E+02  0.51100000000E-03 0.  1.
         23    2    1    2    0    0 -0.35527136788E-14  0.35527136788E-14 -0.44408920985E-15  0.91188000000E+02  0.91188000000E+02 0.  0.
    9900012    2    3    3    0    0  0.22109404189E+02  0.29248048933E+02  0.33922461668E+01  0.54367062287E+02  0.39999950096E+02 0.  0.
        -12    1    3    3    0    0 -0.22109404189E+02 -0.29248048933E+02 -0.33922461668E+01  0.36820937713E+02  0.00000000000E+00 0.  1.
         11    1    4    4    0    0  0.18954706724E+02  0.22677121702E+02  0.38108643195E+01  0.29800259106E+02  0.51100000000E-03 0. -1.
        -11    1    4    4    0    0  0.71821811199E+01 -0.71052573832E+01 -0.17292145161E+01  0.10249809326E+02  0.51100000000E-03 0.  1.
         12    1    4    4    0    0 -0.40274836547E+01  0.13676184615E+02  0.13105963634E+01  0.14316993854E+02  0.00000000000E+00 0. -1.
</event>
<event>
 8    1  0.2530183E-006  0.9118800E+02  0.7816164E-02  0.1184000E+00
        -11   -1    0    0    0    0  0.00000000000E+00  0.00000000000E+00  0.45593999997E+02  0.45594000000E+02  0.51100000000E-03 0. -1.
         11   -1    0    0    0    0 -0.00000000000E+00 -0.00000000000E+00 -0.45593999997E+02  0.45594000000E+02  0.51100000000E-03 0.  1.
         23    2    1    2    0    0  0.00000000000E+00 -0.15543122345E-14  0.00000000000E+00  0.91188000000E+02  0.91188000000E+02 0.  0.
    9900012    2    3    3    0    0 -0.30751808841E+02  0.14629759361E+01  0.20197924326E+02  0.54367215209E+02  0.40000298710E+02 0.  0.
        -12    1    3    3    0    0  0.30751808841E+02 -0.14629759361E+01 -0.20197924326E+02  0.36820784791E+02  0.00000000000E+00 0.  1.
         11    1    4    4    0    0 -0.17011067839E+02  0.27242914217E+01  0.18623622254E+02  0.25370011803E+02  0.51100000000E-03 0. -1.
        -11    1    4    4    0    0 -0.21296997349E+01  0.11463148738E+02  0.16201979647E+01  0.11771339841E+02  0.51100000000E-03 0.  1.
         12    1    4    4    0    0 -0.11611041267E+02 -0.12724464224E+02 -0.45895893031E-01  0.17225863564E+02  0.00000000000E+00 0. -1.
</event>
<event>
 8    1  0.2530183E-006  0.9118800E+02  0.7816164E-02  0.1184000E+00
        -11   -1    0    0    0    0  0.00000000000E+00  0.00000000000E+00  0.45593999997E+02  0.45594000000E+02  0.51100000000E-03 0.  1.
         11   -1    0    0    0    0 -0.00000000000E+00 -0.00000000000E+00 -0.45593999997E+02  0.45594000000E+02  0.51100000000E-03 0. -1.
         23    2    1    2    0    0  0.35527136788E-14  0.35527136788E-14  0.00000000000E+00  0.91188000000E+02  0.91188000000E+02 0.  0.
    9900012    2    3    3    0    0 -0.25984888044E+02 -0.10084734116E+02  0.24059691134E+02  0.54367014051E+02  0.39999840131E+02 0.  0.
        -12    1    3    3    0    0  0.25984888044E+02  0.10084734116E+02 -0.24059691134E+02  0.36820985949E+02  0.00000000000E+00 0.  1.
         11    1    4    4    0    0  0.18659055270E+01  0.93355881042E+01  0.44932592556E+01  0.10527306763E+02  0.51100000000E-03 0. -1.
        -11    1    4    4    0    0 -0.77052256663E+00 -0.34846235492E+01  0.10569706336E+02  0.11155940058E+02  0.51100000000E-03 0.  1.
         12    1    4    4    0    0 -0.27080271004E+02 -0.15935698671E+02  0.89967255424E+01  0.32683767229E+02  0.00000000000E+00 0. -1.
</event>
<event>
 8    1  0.2530183E-006  0.9118800E+02  0.7816164E-02  0.1184000E+00
        -11   -1    0    0    0    0  0.00000000000E+00  0.00000000000E+00  0.45593999997E+02  0.45594000000E+02  0.51100000000E-03 0.  1.
         11   -1    0    0    0    0 -0.00000000000E+00 -0.00000000000E+00 -0.45593999997E+02  0.45594000000E+02  0.51100000000E-03 0. -1.
         23    2    1    2    0    0 -0.35527136788E-14 -0.88817841970E-15 -0.35527136788E-14  0.91188000000E+02  0.91188000000E+02 0.  0.
    9900012    2    3    3    0    0  0.26173985463E+02  0.62166325151E+01  0.25140710348E+02  0.54367090836E+02  0.40000015180E+02 0.  0.
         12    1    3    3    0    0 -0.26173985463E+02 -0.62166325151E+01 -0.25140710348E+02  0.36820909164E+02  0.00000000000E+00 0. -1.
         11    1    4    4    0    0  0.45360501586E+01  0.79508970611E+01  0.15403138203E+01  0.92825148556E+01  0.51100000000E-03 0. -1.
        -11    1    4    4    0    0  0.21444532967E+02  0.61830172899E+01  0.23922163186E+01  0.22445943869E+02  0.51100000000E-03 0.  1.
         12    1    4    4    0    0  0.19340233712E+00 -0.79172818359E+01  0.21208180209E+02  0.22638632112E+02  0.00000000000E+00 0. -1.
</event>
<event>
 8    1  0.2530183E-006  0.9118800E+02  0.7816164E-02  0.1184000E+00
        -11   -1    0    0    0    0  0.00000000000E+00  0.00000000000E+00  0.45593999997E+02  0.45594000000E+02  0.51100000000E-03 0.  1.
         11   -1    0    0    0    0 -0.00000000000E+00 -0.00000000000E+00 -0.45593999997E+02  0.45594000000E+02  0.51100000000E-03 0. -1.
         23    2    1    2    0    0 -0.35527136788E-14 -0.35527136788E-14  0.17763568394E-14  0.91188000000E+02  0.91188000000E+02 0.  0.
    9900012    2    3    3    0    0 -0.26698061012E+02  0.23909016089E+02 -0.84471182934E+01  0.54367064113E+02  0.39999954258E+02 0.  0.
         12    1    3    3    0    0  0.26698061012E+02 -0.23909016089E+02  0.84471182934E+01  0.36820935887E+02  0.00000000000E+00 0. -1.
         11    1    4    4    0    0 -0.35616834607E+02  0.12576526052E+02 -0.11176345467E+02  0.39390844282E+02  0.51100000000E-03 0. -1.
        -11    1    4    4    0    0  0.52133583561E+01  0.43103961037E+01  0.16558399763E+01  0.69642247385E+01  0.51100000000E-03 0.  1.
         12    1    4    4    0    0  0.37054152387E+01  0.70220939327E+01  0.10733871971E+01  0.80119950927E+01  0.00000000000E+00 0. -1.
</event>
<event>
 8    1  0.2530183E-006  0.9118800E+02  0.7816164E-02  0.1184000E+00
        -11   -1    0    0    0    0  0.00000000000E+00  0.00000000000E+00  0.45593999997E+02  0.45594000000E+02  0.51100000000E-03 0.  1.
         11   -1    0    0    0    0 -0.00000000000E+00 -0.00000000000E+00 -0.45593999997E+02  0.45594000000E+02  0.51100000000E-03 0. -1.
         23    2    1    2    0    0  0.17763568394E-14 -0.66613381478E-15  0.71054273576E-14  0.91188000000E+02  0.91188000000E+02 0.  0.
    9900012    2    3    3    0    0 -0.12293139884E+02 -0.15525084409E+01 -0.34673393639E+02  0.54367139104E+02  0.40000125215E+02 0.  0.
        -12    1    3    3    0    0  0.12293139884E+02  0.15525084409E+01  0.34673393639E+02  0.36820860896E+02  0.00000000000E+00 0.  1.
         11    1    4    4    0    0  0.31338343868E+01 -0.25569337732E+01 -0.50307354673E+01  0.64550079696E+01  0.51100000000E-03 0.  1.
        -11    1    4    4    0    0 -0.61276552850E+01  0.11452997530E+02  0.21616722357E+01  0.13167844882E+02  0.51100000000E-03 0. -1.
         12    1    4    4    0    0 -0.92993189860E+01 -0.10448572197E+02 -0.31804330407E+02  0.34744286253E+02  0.00000000000E+00 0. -1.
</event>
<event>
 8    1  0.2530183E-006  0.9118800E+02  0.7816164E-02  0.1184000E+00
        -11   -1    0    0    0    0  0.00000000000E+00  0.00000000000E+00  0.45593999997E+02  0.45594000000E+02  0.51100000000E-03 0.  1.
         11   -1    0    0    0    0 -0.00000000000E+00 -0.00000000000E+00 -0.45593999997E+02  0.45594000000E+02  0.51100000000E-03 0. -1.
         23    2    1    2    0    0 -0.35527136788E-14  0.35527136788E-14  0.00000000000E+00  0.91188000000E+02  0.91188000000E+02 0.  0.
    9900012    2    3    3    0    0 -0.21881101167E+02 -0.29205759708E+02  0.49010575344E+01  0.54367090813E+02  0.40000015125E+02 0.  0.
        -12    1    3    3    0    0  0.21881101167E+02  0.29205759708E+02 -0.49010575344E+01  0.36820909187E+02  0.00000000000E+00 0.  1.
         11    1    4    4    0    0  0.29200347523E+01 -0.63916925358E+01  0.66261287260E+01  0.96584635726E+01  0.51100000000E-03 0. -1.
        -11    1    4    4    0    0 -0.16608992682E+02 -0.88810766849E+01  0.12966697786E+02  0.22866294250E+02  0.51100000000E-03 0.  1.
         12    1    4    4    0    0 -0.81921432371E+01 -0.13932990488E+02 -0.14691768978E+02  0.21842332990E+02  0.00000000000E+00 0. -1.
</event>
<event>
 8    1  0.2530183E-006  0.9118800E+02  0.7816164E-02  0.1184000E+00
        -11   -1    0    0    0    0  0.00000000000E+00  0.00000000000E+00  0.45593999997E+02  0.45594000000E+02  0.51100000000E-03 0.  1.
         11   -1    0    0    0    0 -0.00000000000E+00 -0.00000000000E+00 -0.45593999997E+02  0.45594000000E+02  0.51100000000E-03 0. -1.
         23    2    1    2    0    0  0.00000000000E+00 -0.71054273576E-14 -0.35527136788E-14  0.91188000000E+02  0.91188000000E+02 0.  0.
    9900012    2    3    3    0    0 -0.48588107318E+01  0.31060098269E+02  0.19168765377E+02  0.54367091370E+02  0.40000016397E+02 0.  0.
        -12    1    3    3    0    0  0.48588107318E+01 -0.31060098269E+02 -0.19168765377E+02  0.36820908630E+02  0.00000000000E+00 0.  1.
         11    1    4    4    0    0 -0.23472103732E+01  0.13807393854E+00 -0.56085231191E+01  0.60814466031E+01  0.51100000000E-03 0. -1.
        -11    1    4    4    0    0 -0.23203344406E+01  0.96810981998E+01  0.25141475244E+02  0.27040735788E+02  0.51100000000E-03 0.  1.
         12    1    4    4    0    0 -0.19126591806E+00  0.21240926131E+02 -0.36418674751E+00  0.21244908979E+02  0.00000000000E+00 0. -1.
</event>
<event>
 8    1  0.2530183E-006  0.9118800E+02  0.7816164E-02  0.1184000E+00
        -11   -1    0    0    0    0  0.00000000000E+00  0.00000000000E+00  0.45593999997E+02  0.45594000000E+02  0.51100000000E-03 0.  1.
         11   -1    0    0    0    0 -0.00000000000E+00 -0.00000000000E+00 -0.45593999997E+02  0.45594000000E+02  0.51100000000E-03 0. -1.
         23    2    1    2    0    0  0.00000000000E+00  0.35527136788E-14 -0.44408920985E-15  0.91188000000E+02  0.91188000000E+02 0.  0.
    9900012    2    3    3    0    0 -0.30112631407E+02  0.21123018079E+02 -0.16813331379E+01  0.54367090938E+02  0.40000015412E+02 0.  0.
        -12    1    3    3    0    0  0.30112631407E+02 -0.21123018079E+02  0.16813331379E+01  0.36820909062E+02  0.00000000000E+00 0.  1.
         11    1    4    4    0    0 -0.10098516606E+02  0.28509250619E+02 -0.87455017357E+01  0.31483983378E+02  0.51100000000E-03 0. -1.
        -11    1    4    4    0    0 -0.18550622519E+02 -0.62128486110E+01  0.52092186322E+01  0.20245025135E+02  0.51100000000E-03 0.  1.
         12    1    4    4    0    0 -0.14634922821E+01 -0.11733839293E+01  0.18549499656E+01  0.26380824249E+01  0.00000000000E+00 0. -1.
</event>
<event>
 8    1  0.2530183E-006  0.9118800E+02  0.7816164E-02  0.1184000E+00
        -11   -1    0    0    0    0  0.00000000000E+00  0.00000000000E+00  0.45593999997E+02  0.45594000000E+02  0.51100000000E-03 0.  1.
         11   -1    0    0    0    0 -0.00000000000E+00 -0.00000000000E+00 -0.45593999997E+02  0.45594000000E+02  0.51100000000E-03 0. -1.
         23    2    1    2    0    0  0.00000000000E+00 -0.35527136788E-14 -0.35527136788E-14  0.91188000000E+02  0.91188000000E+02 0.  0.
    9900012    2    3    3    0    0 -0.19746826188E+02  0.24730179448E+02 -0.18821803976E+02  0.54367092557E+02  0.40000019102E+02 0.  0.
        -12    1    3    3    0    0  0.19746826188E+02 -0.24730179448E+02  0.18821803976E+02  0.36820907443E+02  0.00000000000E+00 0.  1.
         11    1    4    4    0    0  0.41068424244E+01 -0.26720825912E+00 -0.39706267710E+01  0.57186914734E+01  0.51100000000E-03 0. -1.
        -11    1    4    4    0    0 -0.22661706128E+01  0.24354627206E+01 -0.17024894742E+02  0.17346874333E+02  0.51100000000E-03 0.  1.
         12    1    4    4    0    0 -0.21587497999E+02  0.22561924987E+02  0.21737175370E+01  0.31301526750E+02  0.00000000000E+00 0. -1.
</event>
<event>
 8    1  0.2530183E-006  0.9118800E+02  0.7816164E-02  0.1184000E+00
        -11   -1    0    0    0    0  0.00000000000E+00  0.00000000000E+00  0.45593999997E+02  0.45594000000E+02  0.51100000000E-03 0.  1.
         11   -1    0    0    0    0 -0.00000000000E+00 -0.00000000000E+00 -0.45593999997E+02  0.45594000000E+02  0.51100000000E-03 0. -1.
         23    2    1    2    0    0  0.00000000000E+00  0.00000000000E+00  0.00000000000E+00  0.91188000000E+02  0.91188000000E+02 0.  0.
    9900012    2    3    3    0    0  0.23425434796E+02  0.13022665059E+02 -0.25247520737E+02  0.54367107779E+02  0.40000053804E+02 0.  0.
        -12    1    3    3    0    0 -0.23425434796E+02 -0.13022665059E+02  0.25247520737E+02  0.36820892221E+02  0.00000000000E+00 0.  1.
         11    1    4    4    0    0  0.12194150924E+02  0.71737515641E+01 -0.24318234073E+02  0.28134259132E+02  0.51100000000E-03 0. -1.
        -11    1    4    4    0    0  0.15725727481E+01  0.84934993834E+01 -0.96517548497E+01  0.12952563019E+02  0.51100000000E-03 0.  1.
        -12    1    4    4    0    0  0.96587111239E+01 -0.26445858886E+01  0.87224681859E+01  0.13280285628E+02  0.00000000000E+00 0.  1.
</event>
<event>
 8    1  0.2530183E-006  0.9118800E+02  0.7816164E-02  0.1184000E+00
        -11   -1    0    0    0    0  0.00000000000E+00  0.00000000000E+00  0.45593999997E+02  0.45594000000E+02  0.51100000000E-03 0. -1.
         11   -1    0    0    0    0 -0.00000000000E+00 -0.00000000000E+00 -0.45593999997E+02  0.45594000000E+02  0.51100000000E-03 0.  1.
         23    2    1    2    0    0  0.00000000000E+00  0.00000000000E+00  0.00000000000E+00  0.91188000000E+02  0.91188000000E+02 0.  0.
    9900012    2    3    3    0    0  0.25312048422E+02  0.23487419190E+02 -0.12783687828E+02  0.54367063971E+02  0.39999953936E+02 0.  0.
         12    1    3    3    0    0 -0.25312048422E+02 -0.23487419190E+02  0.12783687828E+02  0.36820936029E+02  0.00000000000E+00 0. -1.
         11    1    4    4    0    0  0.60703144543E+01 -0.49794959726E+01 -0.11575055955E+02  0.13986637134E+02  0.51100000000E-03 0. -1.
        -11    1    4    4    0    0  0.12887685270E+02  0.21012125235E+02 -0.10580022025E+02  0.26824218625E+02  0.51100000000E-03 0.  1.
        -12    1    4    4    0    0  0.63540486976E+01  0.74547899277E+01  0.93713901516E+01  0.13556208212E+02  0.00000000000E+00 0.  1.
</event>
<event>
 8    1  0.2530183E-006  0.9118800E+02  0.7816164E-02  0.1184000E+00
        -11   -1    0    0    0    0  0.00000000000E+00  0.00000000000E+00  0.45593999997E+02  0.45594000000E+02  0.51100000000E-03 0.  1.
         11   -1    0    0    0    0 -0.00000000000E+00 -0.00000000000E+00 -0.45593999997E+02  0.45594000000E+02  0.51100000000E-03 0. -1.
         23    2    1    2    0    0  0.35527136788E-14  0.00000000000E+00 -0.71054273576E-14  0.91188000000E+02  0.91188000000E+02 0.  0.
    9900012    2    3    3    0    0 -0.88839486299E+01  0.84089725929E+01 -0.34729611826E+02  0.54367064367E+02  0.39999954837E+02 0.  0.
        -12    1    3    3    0    0  0.88839486299E+01 -0.84089725929E+01  0.34729611826E+02  0.36820935633E+02  0.00000000000E+00 0.  1.
         11    1    4    4    0    0 -0.23102801424E+02  0.58326232936E+01 -0.12135261171E+02  0.26739923187E+02  0.51100000000E-03 0. -1.
        -11    1    4    4    0    0  0.55511675057E+01  0.21555417447E+01 -0.41955587352E+01  0.72845407714E+01  0.51100000000E-03 0.  1.
         12    1    4    4    0    0  0.86676852882E+01  0.42080755456E+00 -0.18398791920E+02  0.20342600408E+02  0.00000000000E+00 0. -1.
</event>
<event>
 8    1  0.2530183E-006  0.9118800E+02  0.7816164E-02  0.1184000E+00
        -11   -1    0    0    0    0  0.00000000000E+00  0.00000000000E+00  0.45593999997E+02  0.45594000000E+02  0.51100000000E-03 0.  1.
         11   -1    0    0    0    0 -0.00000000000E+00 -0.00000000000E+00 -0.45593999997E+02  0.45594000000E+02  0.51100000000E-03 0. -1.
         23    2    1    2    0    0  0.00000000000E+00  0.00000000000E+00  0.00000000000E+00  0.91188000000E+02  0.91188000000E+02 0.  0.
    9900012    2    3    3    0    0  0.73178482650E+01 -0.26441048649E+02 -0.24558083776E+02  0.54367089696E+02  0.40000012580E+02 0.  0.
        -12    1    3    3    0    0 -0.73178482650E+01  0.26441048649E+02  0.24558083776E+02  0.36820910304E+02  0.00000000000E+00 0.  1.
         11    1    4    4    0    0  0.10581225499E+02 -0.78706144378E+01 -0.20789131181E+02  0.24619034916E+02  0.51100000000E-03 0. -1.
        -11    1    4    4    0    0  0.68268761412E+00 -0.21429110989E+02  0.27431226468E+01  0.21614753810E+02  0.51100000000E-03 0.  1.
        -12    1    4    4    0    0 -0.39460648480E+01  0.28586767778E+01 -0.65120752418E+01  0.81333009694E+01  0.00000000000E+00 0.  1.
</event>
<event>
 8    1  0.2530183E-006  0.9118800E+02  0.7816164E-02  0.1184000E+00
        -11   -1    0    0    0    0  0.00000000000E+00  0.00000000000E+00  0.45593999997E+02  0.45594000000E+02  0.51100000000E-03 0.  1.
         11   -1    0    0    0    0 -0.00000000000E+00 -0.00000000000E+00 -0.45593999997E+02  0.45594000000E+02  0.51100000000E-03 0. -1.
         23    2    1    2    0    0  0.00000000000E+00  0.00000000000E+00  0.00000000000E+00  0.91188000000E+02  0.91188000000E+02 0.  0.
    9900012    2    3    3    0    0  0.29239167816E+02  0.14673218628E+02 -0.16898180169E+02  0.54367071542E+02  0.39999971195E+02 0.  0.
        -12    1    3    3    0    0 -0.29239167816E+02 -0.14673218628E+02  0.16898180169E+02  0.36820928458E+02  0.00000000000E+00 0.  1.
         11    1    4    4    0    0  0.36003110313E+00  0.26927121373E+01 -0.16076211579E+01  0.31567019337E+01  0.51100000000E-03 0. -1.
        -11    1    4    4    0    0  0.15201717569E+02  0.24360342320E+01  0.11799847585E+02  0.19397496826E+02  0.51100000000E-03 0.  1.
        -12    1    4    4    0    0  0.13677419143E+02  0.95444722590E+01 -0.27090406596E+02  0.31812872782E+02  0.00000000000E+00 0.  1.
</event>
<event>
 8    1  0.2530183E-006  0.9118800E+02  0.7816164E-02  0.1184000E+00
        -11   -1    0    0    0    0  0.00000000000E+00  0.00000000000E+00  0.45593999997E+02  0.45594000000E+02  0.51100000000E-03 0. -1.
         11   -1    0    0    0    0 -0.00000000000E+00 -0.00000000000E+00 -0.45593999997E+02  0.45594000000E+02  0.51100000000E-03 0.  1.
         23    2    1    2    0    0  0.36082248300E-15  0.00000000000E+00 -0.22204460493E-15  0.91188000000E+02  0.91188000000E+02 0.  0.
    9900012    2    3    3    0    0 -0.12188954749E+00  0.36791087313E+02 -0.14767096058E+01  0.54367087003E+02  0.40000006440E+02 0.  0.
        -12    1    3    3    0    0  0.12188954749E+00 -0.36791087313E+02  0.14767096058E+01  0.36820912997E+02  0.00000000000E+00 0.  1.
         11    1    4    4    0    0 -0.72462565062E+01  0.13897332069E+02  0.73333346425E+01  0.17303810829E+02  0.51100000000E-03 0. -1.
        -11    1    4    4    0    0  0.14547198039E+02  0.73235723243E+01  0.24419245542E+01  0.16468718170E+02  0.51100000000E-03 0.  1.
        -12    1    4    4    0    0 -0.74228310805E+01  0.15570182920E+02 -0.11251968803E+02  0.20594558003E+02  0.00000000000E+00 0.  1.
</event>
<event>
 8    1  0.2530183E-006  0.9118800E+02  0.7816164E-02  0.1184000E+00
        -11   -1    0    0    0    0  0.00000000000E+00  0.00000000000E+00  0.45593999997E+02  0.45594000000E+02  0.51100000000E-03 0.  1.
         11   -1    0    0    0    0 -0.00000000000E+00 -0.00000000000E+00 -0.45593999997E+02  0.45594000000E+02  0.51100000000E-03 0. -1.
         23    2    1    2    0    0 -0.71054273576E-14  0.17763568394E-14  0.35527136788E-14  0.91188000000E+02  0.91188000000E+02 0.  0.
    9900012    2    3    3    0    0  0.23127234171E+02 -0.13716004562E+02 -0.25154808360E+02  0.54367324759E+02  0.40000548450E+02 0.  0.
         12    1    3    3    0    0 -0.23127234171E+02  0.13716004562E+02  0.25154808360E+02  0.36820675241E+02  0.00000000000E+00 0. -1.
         11    1    4    4    0    0 -0.95126423331E+01 -0.62779883947E+01 -0.57378902566E+01  0.12760363917E+02  0.51100000000E-03 0. -1.
        -11    1    4    4    0    0  0.55389198566E+00  0.18278917336E+01 -0.47718838853E+01  0.51399280732E+01  0.51100000000E-03 0.  1.
        -12    1    4    4    0    0  0.32085984518E+02 -0.92659079010E+01 -0.14645034218E+02  0.36467032769E+02  0.00000000000E+00 0.  1.
</event>
<event>
 8    1  0.2530183E-006  0.9118800E+02  0.7816164E-02  0.1184000E+00
        -11   -1    0    0    0    0  0.00000000000E+00  0.00000000000E+00  0.45593999997E+02  0.45594000000E+02  0.51100000000E-03 0. -1.
         11   -1    0    0    0    0 -0.00000000000E+00 -0.00000000000E+00 -0.45593999997E+02  0.45594000000E+02  0.51100000000E-03 0.  1.
         23    2    1    2    0    0 -0.71054273576E-14  0.00000000000E+00  0.20816681712E-16  0.91188000000E+02  0.91188000000E+02 0.  0.
    9900012    2    3    3    0    0 -0.32196005768E+02  0.17866024769E+02 -0.43678582425E-01  0.54367088329E+02  0.40000009464E+02 0.  0.
        -12    1    3    3    0    0  0.32196005768E+02 -0.17866024769E+02  0.43678582425E-01  0.36820911671E+02  0.00000000000E+00 0.  1.
         11    1    4    4    0    0 -0.36094423392E+02  0.17264065834E+02 -0.56044767076E+00  0.40014615717E+02  0.51100000000E-03 0. -1.
        -11    1    4    4    0    0 -0.31329321562E+01 -0.46039322668E+01  0.61902905540E+00  0.56030932033E+01  0.51100000000E-03 0.  1.
        -12    1    4    4    0    0  0.70313497803E+01  0.52058912019E+01 -0.10225996707E+00  0.87493794089E+01  0.00000000000E+00 0.  1.
</event>
<event>
 8    1  0.2530183E-006  0.9118800E+02  0.7816164E-02  0.1184000E+00
        -11   -1    0    0    0    0  0.00000000000E+00  0.00000000000E+00  0.45593999997E+02  0.45594000000E+02  0.51100000000E-03 0.  1.
         11   -1    0    0    0    0 -0.00000000000E+00 -0.00000000000E+00 -0.45593999997E+02  0.45594000000E+02  0.51100000000E-03 0. -1.
         23    2    1    2    0    0  0.00000000000E+00  0.35527136788E-14  0.00000000000E+00  0.91188000000E+02  0.91188000000E+02 0.  0.
    9900012    2    3    3    0    0 -0.22323353881E+02 -0.25568327112E+02 -0.14273179382E+02  0.54366876586E+02  0.39999526750E+02 0.  0.
        -12    1    3    3    0    0  0.22323353881E+02  0.25568327112E+02  0.14273179382E+02  0.36821123414E+02  0.00000000000E+00 0.  1.
         11    1    4    4    0    0 -0.57562992056E+01 -0.16038427499E+02 -0.81772719295E+01  0.18900632626E+02  0.51100000000E-03 0. -1.
        -11    1    4    4    0    0 -0.15047315468E+02  0.30870870824E+01 -0.13762819913E+02  0.20624427790E+02  0.51100000000E-03 0.  1.
        -12    1    4    4    0    0 -0.15197392072E+01 -0.12616986696E+02  0.76669124605E+01  0.14841816170E+02  0.00000000000E+00 0.  1.
</event>
<event>
 8    1  0.2530183E-006  0.9118800E+02  0.7816164E-02  0.1184000E+00
        -11   -1    0    0    0    0  0.00000000000E+00  0.00000000000E+00  0.45593999997E+02  0.45594000000E+02  0.51100000000E-03 0.  1.
         11   -1    0    0    0    0 -0.00000000000E+00 -0.00000000000E+00 -0.45593999997E+02  0.45594000000E+02  0.51100000000E-03 0. -1.
         23    2    1    2    0    0  0.35527136788E-14  0.00000000000E+00 -0.17763568394E-14  0.91188000000E+02  0.91188000000E+02 0.  0.
    9900012    2    3    3    0    0 -0.26714454177E+02 -0.22825496522E+02  0.11005184190E+02  0.54367089738E+02  0.40000012677E+02 0.  0.
         12    1    3    3    0    0  0.26714454177E+02  0.22825496522E+02 -0.11005184190E+02  0.36820910262E+02  0.00000000000E+00 0. -1.
         11    1    4    4    0    0  0.25737487340E+01 -0.25315855767E+01 -0.44061527973E+01  0.56962523480E+01  0.51100000000E-03 0. -1.
        -11    1    4    4    0    0 -0.12544279939E+02 -0.25083371287E+02  0.53277068266E+01  0.28546785013E+02  0.51100000000E-03 0.  1.
        -12    1    4    4    0    0 -0.16743922972E+02  0.47894603417E+01  0.10083630161E+02  0.20124052378E+02  0.00000000000E+00 0.  1.
</event>
<event>
 8    1  0.2530183E-006  0.9118800E+02  0.7816164E-02  0.1184000E+00
        -11   -1    0    0    0    0  0.00000000000E+00  0.00000000000E+00  0.45593999997E+02  0.45594000000E+02  0.51100000000E-03 0.  1.
         11   -1    0    0    0    0 -0.00000000000E+00 -0.00000000000E+00 -0.45593999997E+02  0.45594000000E+02  0.51100000000E-03 0. -1.
         23    2    1    2    0    0  0.00000000000E+00 -0.22204460493E-15  0.00000000000E+00  0.91188000000E+02  0.91188000000E+02 0.  0.
    9900012    2    3    3    0    0  0.10420805421E+02  0.19876938404E+01  0.35259542414E+02  0.54367089586E+02  0.40000012330E+02 0.  0.
         12    1    3    3    0    0 -0.10420805421E+02 -0.19876938404E+01 -0.35259542414E+02  0.36820910414E+02  0.00000000000E+00 0. -1.
         11    1    4    4    0    0  0.24720981922E+00 -0.41477583798E+01  0.15370435469E+02  0.15922163768E+02  0.51100000000E-03 0. -1.
        -11    1    4    4    0    0  0.44300469993E+01  0.61692013928E+01  0.27715377249E+02  0.28737197124E+02  0.51100000000E-03 0.  1.
        -12    1    4    4    0    0  0.57435486020E+01 -0.33749172655E-01 -0.78262703033E+01  0.97077286947E+01  0.00000000000E+00 0.  1.
</event>
<event>
 8    1  0.2530183E-006  0.9118800E+02  0.7816164E-02  0.1184000E+00
        -11   -1    0    0    0    0  0.00000000000E+00  0.00000000000E+00  0.45593999997E+02  0.45594000000E+02  0.51100000000E-03 0. -1.
         11   -1    0    0    0    0 -0.00000000000E+00 -0.00000000000E+00 -0.45593999997E+02  0.45594000000E+02  0.51100000000E-03 0.  1.
         23    2    1    2    0    0  0.88817841970E-15 -0.19984014443E-14  0.71054273576E-14  0.91188000000E+02  0.91188000000E+02 0.  0.
    9900012    2    3    3    0    0  0.78948305792E+01  0.15333742228E+01 -0.35931855605E+02  0.54367111450E+02  0.40000062173E+02 0.  0.
         12    1    3    3    0    0 -0.78948305792E+01 -0.15333742228E+01  0.35931855605E+02  0.36820888550E+02  0.00000000000E+00 0. -1.
         11    1    4    4    0    0 -0.27349303903E+01 -0.12559258513E+02 -0.12659756016E+02  0.18041181815E+02  0.51100000000E-03 0. -1.
        -11    1    4    4    0    0  0.59769627809E+00 -0.41392261728E+01 -0.11895979894E+02  0.12609709435E+02  0.51100000000E-03 0.  1.
        -12    1    4    4    0    0  0.10032064691E+02  0.18231858909E+02 -0.11376119696E+02  0.23716220200E+02  0.00000000000E+00 0.  1.
</event>
<event>
 8    1  0.2530183E-006  0.9118800E+02  0.7816164E-02  0.1184000E+00
        -11   -1    0    0    0    0  0.00000000000E+00  0.00000000000E+00  0.45593999997E+02  0.45594000000E+02  0.51100000000E-03 0. -1.
         11   -1    0    0    0    0 -0.00000000000E+00 -0.00000000000E+00 -0.45593999997E+02  0.45594000000E+02  0.51100000000E-03 0.  1.
         23    2    1    2    0    0  0.88817841970E-15  0.35527136788E-14  0.00000000000E+00  0.91188000000E+02  0.91188000000E+02 0.  0.
    9900012    2    3    3    0    0 -0.56539604965E+01  0.27885466889E+02 -0.23371187666E+02  0.54367096346E+02  0.40000027741E+02 0.  0.
         12    1    3    3    0    0  0.56539604965E+01 -0.27885466889E+02  0.23371187666E+02  0.36820903654E+02  0.00000000000E+00 0. -1.
         11    1    4    4    0    0 -0.36861165975E+01  0.22973840160E+02 -0.58276378681E+01  0.23986374271E+02  0.51100000000E-03 0. -1.
        -11    1    4    4    0    0 -0.23757385327E+01 -0.55379153224E+01  0.34378133761E+01  0.69376653684E+01  0.51100000000E-03 0.  1.
        -12    1    4    4    0    0  0.40789463363E+00  0.10449542051E+02 -0.20981363174E+02  0.23443056707E+02  0.00000000000E+00 0.  1.
</event>
<event>
 8    1  0.2530183E-006  0.9118800E+02  0.7816164E-02  0.1184000E+00
        -11   -1    0    0    0    0  0.00000000000E+00  0.00000000000E+00  0.45593999997E+02  0.45594000000E+02  0.51100000000E-03 0. -1.
         11   -1    0    0    0    0 -0.00000000000E+00 -0.00000000000E+00 -0.45593999997E+02  0.45594000000E+02  0.51100000000E-03 0.  1.
         23    2    1    2    0    0  0.17763568394E-14  0.00000000000E+00  0.00000000000E+00  0.91188000000E+02  0.91188000000E+02 0.  0.
    9900012    2    3    3    0    0  0.11484751440E+02  0.17671563935E+02  0.30192634264E+02  0.54367097630E+02  0.40000030668E+02 0.  0.
        -12    1    3    3    0    0 -0.11484751440E+02 -0.17671563935E+02 -0.30192634264E+02  0.36820902370E+02  0.00000000000E+00 0.  1.
         11    1    4    4    0    0  0.20395126101E+02  0.14261875573E+02  0.12518100665E+02  0.27857945152E+02  0.51100000000E-03 0. -1.
        -11    1    4    4    0    0 -0.68244159297E+01 -0.57275221764E+01  0.13670315290E+02  0.16317312385E+02  0.51100000000E-03 0.  1.
        -12    1    4    4    0    0 -0.20859587313E+01  0.91372105377E+01  0.40042183078E+01  0.10191840094E+02  0.00000000000E+00 0.  1.
</event>
<event>
 8    1  0.2530183E-006  0.9118800E+02  0.7816164E-02  0.1184000E+00
        -11   -1    0    0    0    0  0.00000000000E+00  0.00000000000E+00  0.45593999997E+02  0.45594000000E+02  0.51100000000E-03 0.  1.
         11   -1    0    0    0    0 -0.00000000000E+00 -0.00000000000E+00 -0.45593999997E+02  0.45594000000E+02  0.51100000000E-03 0. -1.
         23    2    1    2    0    0  0.88817841970E-15  0.00000000000E+00  0.71054273576E-14  0.91188000000E+02  0.91188000000E+02 0.  0.
    9900012    2    3    3    0    0  0.62895875024E+01  0.45441243338E+01  0.35994050985E+02  0.54367086334E+02  0.40000004915E+02 0.  0.
         12    1    3    3    0    0 -0.62895875024E+01 -0.45441243338E+01 -0.35994050985E+02  0.36820913666E+02  0.00000000000E+00 0. -1.
         11    1    4    4    0    0  0.95231263068E+01 -0.12621890585E+02  0.93349954907E+01  0.18361486805E+02  0.51100000000E-03 0.  1.
        -11    1    4    4    0    0 -0.79529948261E+01  0.91594174530E+01  0.63971398339E+01  0.13713805201E+02  0.51100000000E-03 0. -1.
         12    1    4    4    0    0  0.47194560217E+01  0.80065974660E+01  0.20261915660E+02  0.22291794328E+02  0.00000000000E+00 0. -1.
</event>
<event>
 8    1  0.2530183E-006  0.9118800E+02  0.7816164E-02  0.1184000E+00
        -11   -1    0    0    0    0  0.00000000000E+00  0.00000000000E+00  0.45593999997E+02  0.45594000000E+02  0.51100000000E-03 0.  1.
         11   -1    0    0    0    0 -0.00000000000E+00 -0.00000000000E+00 -0.45593999997E+02  0.45594000000E+02  0.51100000000E-03 0. -1.
         23    2    1    2    0    0 -0.71054273576E-14  0.17763568394E-14  0.00000000000E+00  0.91188000000E+02  0.91188000000E+02 0.  0.
    9900012    2    3    3    0    0 -0.33946145369E+02  0.11579510245E+02 -0.83279296368E+01  0.54367078569E+02  0.39999987215E+02 0.  0.
         12    1    3    3    0    0  0.33946145369E+02 -0.11579510245E+02  0.83279296368E+01  0.36820921431E+02  0.00000000000E+00 0. -1.
         11    1    4    4    0    0 -0.11963519010E+02 -0.85379307856E+01  0.62494927852E+01  0.15971168071E+02  0.51100000000E-03 0. -1.
        -11    1    4    4    0    0 -0.61464386584E+01 -0.30049665143E+01 -0.59650533238E+01  0.90769154094E+01  0.51100000000E-03 0.  1.
        -12    1    4    4    0    0 -0.15836187701E+02  0.23122407545E+02 -0.86123690983E+01  0.29318995089E+02  0.00000000000E+00 0.  1.
</event>
<event>
 8    1  0.2530183E-006  0.9118800E+02  0.7816164E-02  0.1184000E+00
        -11   -1    0    0    0    0  0.00000000000E+00  0.00000000000E+00  0.45593999997E+02  0.45594000000E+02  0.51100000000E-03 0. -1.
         11   -1    0    0    0    0 -0.00000000000E+00 -0.00000000000E+00 -0.45593999997E+02  0.45594000000E+02  0.51100000000E-03 0.  1.
         23    2    1    2    0    0  0.35527136788E-14  0.00000000000E+00 -0.35527136788E-14  0.91188000000E+02  0.91188000000E+02 0.  0.
    9900012    2    3    3    0    0 -0.18080417608E+02  0.16691065102E+02 -0.27391343453E+02  0.54367097631E+02  0.40000030669E+02 0.  0.
        -12    1    3    3    0    0  0.18080417608E+02 -0.16691065102E+02  0.27391343453E+02  0.36820902369E+02  0.00000000000E+00 0.  1.
         11    1    4    4    0    0 -0.20676046518E+01  0.59084016559E+01 -0.18228112408E+00  0.62623817987E+01  0.51100000000E-03 0. -1.
        -11    1    4    4    0    0 -0.64026427615E+01  0.18420392312E+02 -0.14319699878E+01  0.19553905634E+02  0.51100000000E-03 0.  1.
        -12    1    4    4    0    0 -0.96101701950E+01 -0.76377288653E+01 -0.25777092341E+02  0.28550810198E+02  0.00000000000E+00 0.  1.
</event>
<event>
 8    1  0.2530183E-006  0.9118800E+02  0.7816164E-02  0.1184000E+00
        -11   -1    0    0    0    0  0.00000000000E+00  0.00000000000E+00  0.45593999997E+02  0.45594000000E+02  0.51100000000E-03 0. -1.
         11   -1    0    0    0    0 -0.00000000000E+00 -0.00000000000E+00 -0.45593999997E+02  0.45594000000E+02  0.51100000000E-03 0.  1.
         23    2    1    2    0    0  0.00000000000E+00  0.35527136788E-14  0.71054273576E-14  0.91188000000E+02  0.91188000000E+02 0.  0.
    9900012    2    3    3    0    0  0.12399376782E+01  0.13127643402E+02 -0.34378880207E+02  0.54367083784E+02  0.39999999102E+02 0.  0.
         12    1    3    3    0    0 -0.12399376782E+01 -0.13127643402E+02  0.34378880207E+02  0.36820916216E+02  0.00000000000E+00 0. -1.
         11    1    4    4    0    0 -0.10863241415E+01 -0.29681210567E+01  0.22992968554E+01  0.39085302913E+01  0.51100000000E-03 0. -1.
        -11    1    4    4    0    0  0.15106400244E+01 -0.83997110008E+01 -0.35349252621E+01  0.92375795017E+01  0.51100000000E-03 0.  1.
        -12    1    4    4    0    0  0.81562179532E+00  0.24495475459E+02 -0.33143251800E+02  0.41220973991E+02  0.00000000000E+00 0.  1.
</event>
<event>
 8    1  0.2530183E-006  0.9118800E+02  0.7816164E-02  0.1184000E+00
        -11   -1    0    0    0    0  0.00000000000E+00  0.00000000000E+00  0.45593999997E+02  0.45594000000E+02  0.51100000000E-03 0. -1.
         11   -1    0    0    0    0 -0.00000000000E+00 -0.00000000000E+00 -0.45593999997E+02  0.45594000000E+02  0.51100000000E-03 0.  1.
         23    2    1    2    0    0  0.71054273576E-14  0.55511151231E-15 -0.17763568394E-14  0.91188000000E+02  0.91188000000E+02 0.  0.
    9900012    2    3    3    0    0  0.35870258240E+02  0.63001454713E+00  0.82890192507E+01  0.54367079525E+02  0.39999989392E+02 0.  0.
        -12    1    3    3    0    0 -0.35870258240E+02 -0.63001454713E+00 -0.82890192507E+01  0.36820920475E+02  0.00000000000E+00 0.  1.
         11    1    4    4    0    0  0.19646955046E+02  0.16581034713E+01  0.16915984639E+02  0.25978889243E+02  0.51100000000E-03 0. -1.
        -11    1    4    4    0    0  0.60750197104E+01  0.98933474183E+01 -0.10290489164E+01  0.11655176084E+02  0.51100000000E-03 0.  1.
        -12    1    4    4    0    0  0.10148283483E+02 -0.10921436342E+02 -0.75979164719E+01  0.16733014198E+02  0.00000000000E+00 0.  1.
</event>
<event>
 8    1  0.2530183E-006  0.9118800E+02  0.7816164E-02  0.1184000E+00
        -11   -1    0    0    0    0  0.00000000000E+00  0.00000000000E+00  0.45593999997E+02  0.45594000000E+02  0.51100000000E-03 0.  1.
         11   -1    0    0    0    0 -0.00000000000E+00 -0.00000000000E+00 -0.45593999997E+02  0.45594000000E+02  0.51100000000E-03 0. -1.
         23    2    1    2    0    0  0.35527136788E-14  0.88817841970E-15 -0.35527136788E-14  0.91188000000E+02  0.91188000000E+02 0.  0.
    9900012    2    3    3    0    0  0.21407766785E+02  0.75149756376E+01  0.29000208707E+02  0.54367089601E+02  0.40000012363E+02 0.  0.
         12    1    3    3    0    0 -0.21407766785E+02 -0.75149756376E+01 -0.29000208707E+02  0.36820910399E+02  0.00000000000E+00 0. -1.
         11    1    4    4    0    0 -0.10420213048E+02  0.87110449589E+01  0.58640245654E+01  0.14793577276E+02  0.51100000000E-03 0. -1.
        -11    1    4    4    0    0  0.40966113463E+01 -0.12743396578E+01  0.21664017906E+01  0.48061900780E+01  0.51100000000E-03 0.  1.
         12    1    4    4    0    0  0.27731368487E+02  0.78270336445E-01  0.20969782351E+02  0.34767322247E+02  0.00000000000E+00 0. -1.
</event>
<event>
 8    1  0.2530183E-006  0.9118800E+02  0.7816164E-02  0.1184000E+00
        -11   -1    0    0    0    0  0.00000000000E+00  0.00000000000E+00  0.45593999997E+02  0.45594000000E+02  0.51100000000E-03 0.  1.
         11   -1    0    0    0    0 -0.00000000000E+00 -0.00000000000E+00 -0.45593999997E+02  0.45594000000E+02  0.51100000000E-03 0. -1.
         23    2    1    2    0    0  0.00000000000E+00  0.00000000000E+00 -0.35527136788E-14  0.91188000000E+02  0.91188000000E+02 0.  0.
    9900012    2    3    3    0    0  0.18051531573E+02 -0.26767279449E+02  0.17704232401E+02  0.54367015682E+02  0.39999843850E+02 0.  0.
         12    1    3    3    0    0 -0.18051531573E+02  0.26767279449E+02 -0.17704232401E+02  0.36820984318E+02  0.00000000000E+00 0. -1.
         11    1    4    4    0    0  0.17795746507E+02 -0.10163522139E+02  0.70229728957E+00  0.20505584550E+02  0.51100000000E-03 0. -1.
        -11    1    4    4    0    0  0.92827654911E+01 -0.17425982470E+02  0.87229831279E+01  0.21585296735E+02  0.51100000000E-03 0.  1.
         12    1    4    4    0    0 -0.90269804245E+01  0.82222515953E+00  0.82789519833E+01  0.12276134397E+02  0.00000000000E+00 0. -1.
</event>
<event>
 8    1  0.2530183E-006  0.9118800E+02  0.7816164E-02  0.1184000E+00
        -11   -1    0    0    0    0  0.00000000000E+00  0.00000000000E+00  0.45593999997E+02  0.45594000000E+02  0.51100000000E-03 0. -1.
         11   -1    0    0    0    0 -0.00000000000E+00 -0.00000000000E+00 -0.45593999997E+02  0.45594000000E+02  0.51100000000E-03 0.  1.
         23    2    1    2    0    0  0.22204460493E-14 -0.17763568394E-14 -0.71054273576E-14  0.91188000000E+02  0.91188000000E+02 0.  0.
    9900012    2    3    3    0    0 -0.15822691662E+01  0.46164688088E+01  0.36495910290E+02  0.54367260900E+02  0.40000402871E+02 0.  0.
        -12    1    3    3    0    0  0.15822691662E+01 -0.46164688088E+01 -0.36495910290E+02  0.36820739100E+02  0.00000000000E+00 0.  1.
         11    1    4    4    0    0 -0.57565606428E+01  0.15244191020E+02  0.23051212868E+02  0.28229094304E+02  0.51100000000E-03 0. -1.
        -11    1    4    4    0    0  0.82717425449E+01  0.25157830043E+01  0.53572207354E+01  0.10171071877E+02  0.51100000000E-03 0.  1.
        -12    1    4    4    0    0 -0.40974510683E+01 -0.13143505215E+02  0.80874766865E+01  0.15967094719E+02  0.00000000000E+00 0.  1.
</event>
<event>
 8    1  0.2530183E-006  0.9118800E+02  0.7816164E-02  0.1184000E+00
        -11   -1    0    0    0    0  0.00000000000E+00  0.00000000000E+00  0.45593999997E+02  0.45594000000E+02  0.51100000000E-03 0.  1.
         11   -1    0    0    0    0 -0.00000000000E+00 -0.00000000000E+00 -0.45593999997E+02  0.45594000000E+02  0.51100000000E-03 0. -1.
         23    2    1    2    0    0  0.35527136788E-14  0.00000000000E+00 -0.17763568394E-14  0.91188000000E+02  0.91188000000E+02 0.  0.
    9900012    2    3    3    0    0 -0.55131294878E+01 -0.33137179573E+02  0.15076901419E+02  0.54367079001E+02  0.39999988199E+02 0.  0.
         12    1    3    3    0    0  0.55131294878E+01  0.33137179573E+02 -0.15076901419E+02  0.36820920999E+02  0.00000000000E+00 0. -1.
         11    1    4    4    0    0  0.27720665807E+01  0.24120274070E+01 -0.15991205439E+00  0.36780159688E+01  0.51100000000E-03 0. -1.
        -11    1    4    4    0    0  0.10463718902E+02 -0.99133527515E+01 -0.20011849651E+01  0.14552275340E+02  0.51100000000E-03 0.  1.
         12    1    4    4    0    0 -0.18748914970E+02 -0.25635854229E+02  0.17237998438E+02  0.36136787693E+02  0.00000000000E+00 0. -1.
</event>
<event>
 8    1  0.2530183E-006  0.9118800E+02  0.7816164E-02  0.1184000E+00
        -11   -1    0    0    0    0  0.00000000000E+00  0.00000000000E+00  0.45593999997E+02  0.45594000000E+02  0.51100000000E-03 0. -1.
         11   -1    0    0    0    0 -0.00000000000E+00 -0.00000000000E+00 -0.45593999997E+02  0.45594000000E+02  0.51100000000E-03 0.  1.
         23    2    1    2    0    0  0.00000000000E+00  0.22204460493E-14  0.00000000000E+00  0.91188000000E+02  0.91188000000E+02 0.  0.
    9900012    2    3    3    0    0 -0.26737134369E+02 -0.91560903015E+00 -0.25299536904E+02  0.54367092058E+02  0.40000017964E+02 0.  0.
         12    1    3    3    0    0  0.26737134369E+02  0.91560903015E+00  0.25299536904E+02  0.36820907942E+02  0.00000000000E+00 0. -1.
         11    1    4    4    0    0  0.20348980819E+01  0.38622541737E+01 -0.49731820704E+01  0.66174283277E+01  0.51100000000E-03 0. -1.
        -11    1    4    4    0    0 -0.15477824079E+02  0.13371904186E+02 -0.12274431179E+02  0.23854402546E+02  0.51100000000E-03 0.  1.
         12    1    4    4    0    0 -0.13294208372E+02 -0.18149767390E+02 -0.80519236544E+01  0.23895261184E+02  0.00000000000E+00 0. -1.
</event>
<event>
 8    1  0.2530183E-006  0.9118800E+02  0.7816164E-02  0.1184000E+00
        -11   -1    0    0    0    0  0.00000000000E+00  0.00000000000E+00  0.45593999997E+02  0.45594000000E+02  0.51100000000E-03 0.  1.
         11   -1    0    0    0    0 -0.00000000000E+00 -0.00000000000E+00 -0.45593999997E+02  0.45594000000E+02  0.51100000000E-03 0. -1.
         23    2    1    2    0    0  0.00000000000E+00  0.00000000000E+00  0.00000000000E+00  0.91188000000E+02  0.91188000000E+02 0.  0.
    9900012    2    3    3    0    0  0.16126705881E+02 -0.24397189831E+02  0.22371551545E+02  0.54367084303E+02  0.40000000286E+02 0.  0.
         12    1    3    3    0    0 -0.16126705881E+02  0.24397189831E+02 -0.22371551545E+02  0.36820915697E+02  0.00000000000E+00 0. -1.
         11    1    4    4    0    0  0.71991608727E+01  0.88114713675E+01 -0.15397005576E+01  0.11482187205E+02  0.51100000000E-03 0. -1.
        -11    1    4    4    0    0  0.45026387800E+01 -0.27014096035E+02  0.15222749653E+02  0.31333165302E+02  0.51100000000E-03 0.  1.
        -12    1    4    4    0    0  0.44249062279E+01 -0.61945651635E+01  0.86885024493E+01  0.11551731797E+02  0.00000000000E+00 0.  1.
</event>
<event>
 8    1  0.2530183E-006  0.9118800E+02  0.7816164E-02  0.1184000E+00
        -11   -1    0    0    0    0  0.00000000000E+00  0.00000000000E+00  0.45593999997E+02  0.45594000000E+02  0.51100000000E-03 0.  1.
         11   -1    0    0    0    0 -0.00000000000E+00 -0.00000000000E+00 -0.45593999997E+02  0.45594000000E+02  0.51100000000E-03 0. -1.
         23    2    1    2    0    0  0.00000000000E+00 -0.17763568394E-14  0.00000000000E+00  0.91188000000E+02  0.91188000000E+02 0.  0.
    9900012    2    3    3    0    0  0.30081046064E+02 -0.10957817079E+02 -0.18189100285E+02  0.54366994356E+02  0.39999795233E+02 0.  0.
         12    1    3    3    0    0 -0.30081046064E+02  0.10957817079E+02  0.18189100285E+02  0.36821005644E+02  0.00000000000E+00 0. -1.
         11    1    4    4    0    0 -0.48863940021E+01  0.58835895963E+01 -0.46625857070E+01  0.89572975063E+01  0.51100000000E-03 0. -1.
        -11    1    4    4    0    0  0.30274526276E+02 -0.16024443179E+02 -0.18155162536E+02  0.38767765571E+02  0.51100000000E-03 0.  1.
        -12    1    4    4    0    0  0.46929137896E+01 -0.81696349719E+00  0.46286479577E+01  0.66419312786E+01  0.00000000000E+00 0.  1.
</event>
<event>
 8    1  0.2530183E-006  0.9118800E+02  0.7816164E-02  0.1184000E+00
        -11   -1    0    0    0    0  0.00000000000E+00  0.00000000000E+00  0.45593999997E+02  0.45594000000E+02  0.51100000000E-03 0.  1.
         11   -1    0    0    0    0 -0.00000000000E+00 -0.00000000000E+00 -0.45593999997E+02  0.45594000000E+02  0.51100000000E-03 0. -1.
         23    2    1    2    0    0  0.00000000000E+00  0.00000000000E+00  0.00000000000E+00  0.91188000000E+02  0.91188000000E+02 0.  0.
    9900012    2    3    3    0    0  0.10684453285E+02 -0.41487827127E+01 -0.34991559191E+02  0.54367093512E+02  0.40000021280E+02 0.  0.
        -12    1    3    3    0    0 -0.10684453285E+02  0.41487827127E+01  0.34991559191E+02  0.36820906488E+02  0.00000000000E+00 0.  1.
         11    1    4    4    0    0 -0.45728985668E+01 -0.83619423493E+01 -0.12257288750E+02  0.15526577502E+02  0.51100000000E-03 0. -1.
        -11    1    4    4    0    0 -0.52883798364E+01 -0.66896925394E+00 -0.15702723096E+02  0.16582822259E+02  0.51100000000E-03 0.  1.
         12    1    4    4    0    0  0.20545731688E+02  0.48821288905E+01 -0.70315473443E+01  0.22257693752E+02  0.00000000000E+00 0. -1.
</event>
<event>
 8    1  0.2530183E-006  0.9118800E+02  0.7816164E-02  0.1184000E+00
        -11   -1    0    0    0    0  0.00000000000E+00  0.00000000000E+00  0.45593999997E+02  0.45594000000E+02  0.51100000000E-03 0.  1.
         11   -1    0    0    0    0 -0.00000000000E+00 -0.00000000000E+00 -0.45593999997E+02  0.45594000000E+02  0.51100000000E-03 0. -1.
         23    2    1    2    0    0  0.17763568394E-14  0.00000000000E+00 -0.14210854715E-13  0.91188000000E+02  0.91188000000E+02 0.  0.
    9900012    2    3    3    0    0  0.14320680177E+02 -0.96478960872E+01 -0.32521049199E+02  0.54367049161E+02  0.39999920173E+02 0.  0.
        -12    1    3    3    0    0 -0.14320680177E+02  0.96478960872E+01  0.32521049199E+02  0.36820950839E+02  0.00000000000E+00 0.  1.
         11    1    4    4    0    0  0.40498679567E+01  0.57818658155E+00 -0.29363259902E+02  0.29646867668E+02  0.51100000000E-03 0. -1.
        -11    1    4    4    0    0 -0.37050621321E+01  0.33747267030E+01 -0.45312800045E+00  0.50320563360E+01  0.51100000000E-03 0.  1.
        -12    1    4    4    0    0  0.13975874352E+02 -0.13600809372E+02 -0.27046612972E+01  0.19688125157E+02  0.00000000000E+00 0.  1.
</event>
<event>
 8    1  0.2530183E-006  0.9118800E+02  0.7816164E-02  0.1184000E+00
        -11   -1    0    0    0    0  0.00000000000E+00  0.00000000000E+00  0.45593999997E+02  0.45594000000E+02  0.51100000000E-03 0. -1.
         11   -1    0    0    0    0 -0.00000000000E+00 -0.00000000000E+00 -0.45593999997E+02  0.45594000000E+02  0.51100000000E-03 0.  1.
         23    2    1    2    0    0  0.00000000000E+00  0.00000000000E+00 -0.35527136788E-14  0.91188000000E+02  0.91188000000E+02 0.  0.
    9900012    2    3    3    0    0  0.26310924310E+02 -0.85004339186E+01 -0.24315793935E+02  0.54367082717E+02  0.39999996670E+02 0.  0.
         12    1    3    3    0    0 -0.26310924310E+02  0.85004339186E+01  0.24315793935E+02  0.36820917283E+02  0.00000000000E+00 0. -1.
         11    1    4    4    0    0  0.17189603527E+02 -0.14721194186E+02 -0.26276277204E+02  0.34679082624E+02  0.51100000000E-03 0.  1.
        -11    1    4    4    0    0  0.11424142818E+02  0.80775247198E+01 -0.26208008610E+01  0.14234677451E+02  0.51100000000E-03 0. -1.
         12    1    4    4    0    0 -0.23028220344E+01 -0.18567644520E+01  0.45812841304E+01  0.54533226418E+01  0.00000000000E+00 0. -1.
</event>
<event>
 8    1  0.2530183E-006  0.9118800E+02  0.7816164E-02  0.1184000E+00
        -11   -1    0    0    0    0  0.00000000000E+00  0.00000000000E+00  0.45593999997E+02  0.45594000000E+02  0.51100000000E-03 0. -1.
         11   -1    0    0    0    0 -0.00000000000E+00 -0.00000000000E+00 -0.45593999997E+02  0.45594000000E+02  0.51100000000E-03 0.  1.
         23    2    1    2    0    0  0.00000000000E+00  0.00000000000E+00  0.00000000000E+00  0.91188000000E+02  0.91188000000E+02 0.  0.
    9900012    2    3    3    0    0 -0.10789425858E+02 -0.84780762626E+01  0.34168557603E+02  0.54367084529E+02  0.40000000801E+02 0.  0.
        -12    1    3    3    0    0  0.10789425858E+02  0.84780762626E+01 -0.34168557603E+02  0.36820915471E+02  0.00000000000E+00 0.  1.
         11    1    4    4    0    0  0.35493036230E+01 -0.19081230903E+01  0.23368610361E+02  0.23713507551E+02  0.51100000000E-03 0. -1.
        -11    1    4    4    0    0  0.11159205468E+01 -0.66321382844E+01 -0.51300843889E+01  0.84586229960E+01  0.51100000000E-03 0.  1.
        -12    1    4    4    0    0 -0.15454650028E+02  0.62185112110E-01  0.15930031631E+02  0.22194953982E+02  0.00000000000E+00 0.  1.
</event>
<event>
 8    1  0.2530183E-006  0.9118800E+02  0.7816164E-02  0.1184000E+00
        -11   -1    0    0    0    0  0.00000000000E+00  0.00000000000E+00  0.45593999997E+02  0.45594000000E+02  0.51100000000E-03 0.  1.
         11   -1    0    0    0    0 -0.00000000000E+00 -0.00000000000E+00 -0.45593999997E+02  0.45594000000E+02  0.51100000000E-03 0. -1.
         23    2    1    2    0    0  0.35527136788E-14  0.71054273576E-14  0.71054273576E-14  0.91188000000E+02  0.91188000000E+02 0.  0.
    9900012    2    3    3    0    0 -0.19873769991E+02 -0.17661514017E+02 -0.25473183666E+02  0.54367097009E+02  0.40000029251E+02 0.  0.
        -12    1    3    3    0    0  0.19873769991E+02  0.17661514017E+02  0.25473183666E+02  0.36820902991E+02  0.00000000000E+00 0.  1.
         11    1    4    4    0    0 -0.46703145325E+01 -0.22096423046E+02 -0.20826640062E+02  0.30721534561E+02  0.51100000000E-03 0. -1.
        -11    1    4    4    0    0 -0.11985563415E+02  0.41175610467E+01 -0.10828340333E+02  0.16669162965E+02  0.51100000000E-03 0.  1.
        -12    1    4    4    0    0 -0.32178920440E+01  0.31734798282E+00  0.61817967282E+01  0.69763994824E+01  0.00000000000E+00 0.  1.
</event>
<event>
 8    1  0.2530183E-006  0.9118800E+02  0.7816164E-02  0.1184000E+00
        -11   -1    0    0    0    0  0.00000000000E+00  0.00000000000E+00  0.45593999997E+02  0.45594000000E+02  0.51100000000E-03 0. -1.
         11   -1    0    0    0    0 -0.00000000000E+00 -0.00000000000E+00 -0.45593999997E+02  0.45594000000E+02  0.51100000000E-03 0.  1.
         23    2    1    2    0    0  0.26645352591E-14 -0.88817841970E-15  0.00000000000E+00  0.91188000000E+02  0.91188000000E+02 0.  0.
    9900012    2    3    3    0    0  0.22454490234E+01  0.75684853381E+01  0.35964647877E+02  0.54367083274E+02  0.39999997939E+02 0.  0.
        -12    1    3    3    0    0 -0.22454490234E+01 -0.75684853381E+01 -0.35964647877E+02  0.36820916726E+02  0.00000000000E+00 0.  1.
         11    1    4    4    0    0 -0.40680151129E+01 -0.10667392508E+02  0.13276032958E+02  0.17509856117E+02  0.51100000000E-03 0. -1.
        -11    1    4    4    0    0 -0.60052559106E+01  0.12324524538E+02  0.51975550077E+01  0.14661909219E+02  0.51100000000E-03 0.  1.
        -12    1    4    4    0    0  0.12318720047E+02  0.59113533079E+01  0.17491059912E+02  0.22195317938E+02  0.00000000000E+00 0.  1.
</event>
<event>
 8    1  0.2530183E-006  0.9118800E+02  0.7816164E-02  0.1184000E+00
        -11   -1    0    0    0    0  0.00000000000E+00  0.00000000000E+00  0.45593999997E+02  0.45594000000E+02  0.51100000000E-03 0.  1.
         11   -1    0    0    0    0 -0.00000000000E+00 -0.00000000000E+00 -0.45593999997E+02  0.45594000000E+02  0.51100000000E-03 0. -1.
         23    2    1    2    0    0 -0.88817841970E-15 -0.35527136788E-14 -0.35527136788E-14  0.91188000000E+02  0.91188000000E+02 0.  0.
    9900012    2    3    3    0    0 -0.48163646237E+01 -0.24285667576E+02 -0.27254156692E+02  0.54367081016E+02  0.39999992793E+02 0.  0.
        -12    1    3    3    0    0  0.48163646237E+01  0.24285667576E+02  0.27254156692E+02  0.36820918984E+02  0.00000000000E+00 0.  1.
         11    1    4    4    0    0  0.99458557415E+01 -0.70737630852E+01  0.57304312658E+01  0.13483175196E+02  0.51100000000E-03 0. -1.
        -11    1    4    4    0    0 -0.93137326769E+01 -0.12673535699E+02 -0.15799127618E+02  0.22292971028E+02  0.51100000000E-03 0.  1.
         12    1    4    4    0    0 -0.54484876883E+01 -0.45383687922E+01 -0.17185460340E+02  0.18590934793E+02  0.00000000000E+00 0. -1.
</event>
<event>
 8    1  0.2530183E-006  0.9118800E+02  0.7816164E-02  0.1184000E+00
        -11   -1    0    0    0    0  0.00000000000E+00  0.00000000000E+00  0.45593999997E+02  0.45594000000E+02  0.51100000000E-03 0.  1.
         11   -1    0    0    0    0 -0.00000000000E+00 -0.00000000000E+00 -0.45593999997E+02  0.45594000000E+02  0.51100000000E-03 0. -1.
         23    2    1    2    0    0  0.00000000000E+00 -0.11102230246E-14  0.00000000000E+00  0.91188000000E+02  0.91188000000E+02 0.  0.
    9900012    2    3    3    0    0 -0.34575980635E+02 -0.48362660936E+00 -0.12650953935E+02  0.54367096059E+02  0.40000027085E+02 0.  0.
        -12    1    3    3    0    0  0.34575980635E+02  0.48362660936E+00  0.12650953935E+02  0.36820903941E+02  0.00000000000E+00 0.  1.
         11    1    4    4    0    0 -0.14295317950E+02  0.76383738651E+01 -0.14013634424E+02  0.21426218066E+02  0.51100000000E-03 0. -1.
        -11    1    4    4    0    0 -0.75245877376E+01 -0.16132149288E+02 -0.16123460927E+00  0.17801451012E+02  0.51100000000E-03 0.  1.
        -12    1    4    4    0    0 -0.12756074948E+02  0.80101488131E+01  0.15239150980E+01  0.15139426981E+02  0.00000000000E+00 0.  1.
</event>
<event>
 8    1  0.2530183E-006  0.9118800E+02  0.7816164E-02  0.1184000E+00
        -11   -1    0    0    0    0  0.00000000000E+00  0.00000000000E+00  0.45593999997E+02  0.45594000000E+02  0.51100000000E-03 0.  1.
         11   -1    0    0    0    0 -0.00000000000E+00 -0.00000000000E+00 -0.45593999997E+02  0.45594000000E+02  0.51100000000E-03 0. -1.
         23    2    1    2    0    0  0.35527136788E-14  0.35527136788E-14  0.00000000000E+00  0.91188000000E+02  0.91188000000E+02 0.  0.
    9900012    2    3    3    0    0  0.28720921390E+02  0.20614307923E+02  0.10292689758E+02  0.54367075526E+02  0.39999980278E+02 0.  0.
         12    1    3    3    0    0 -0.28720921390E+02 -0.20614307923E+02 -0.10292689758E+02  0.36820924474E+02  0.00000000000E+00 0. -1.
         11    1    4    4    0    0  0.11213744600E+02  0.16150451243E+01  0.31556382892E+01  0.11760718174E+02  0.51100000000E-03 0. -1.
        -11    1    4    4    0    0  0.24106106040E+02  0.23669812199E+02  0.43913997571E+01  0.34068295379E+02  0.51100000000E-03 0.  1.
         12    1    4    4    0    0 -0.65989292491E+01 -0.46705494008E+01  0.27456517112E+01  0.85380619732E+01  0.00000000000E+00 0. -1.
</event>
<event>
 8    1  0.2530183E-006  0.9118800E+02  0.7816164E-02  0.1184000E+00
        -11   -1    0    0    0    0  0.00000000000E+00  0.00000000000E+00  0.45593999997E+02  0.45594000000E+02  0.51100000000E-03 0.  1.
         11   -1    0    0    0    0 -0.00000000000E+00 -0.00000000000E+00 -0.45593999997E+02  0.45594000000E+02  0.51100000000E-03 0. -1.
         23    2    1    2    0    0 -0.35527136788E-14 -0.35527136788E-14  0.17763568394E-14  0.91188000000E+02  0.91188000000E+02 0.  0.
    9900012    2    3    3    0    0 -0.28658349792E+02 -0.21522977324E+02  0.84403649961E+01  0.54367091172E+02  0.40000015944E+02 0.  0.
         12    1    3    3    0    0  0.28658349792E+02  0.21522977324E+02 -0.84403649961E+01  0.36820908828E+02  0.00000000000E+00 0. -1.
         11    1    4    4    0    0 -0.11426561628E+02 -0.17448429009E+02 -0.90257734271E+01  0.22726164915E+02  0.51100000000E-03 0. -1.
        -11    1    4    4    0    0 -0.17594609110E+02 -0.82950537094E+01  0.75641714673E+01  0.20870909803E+02  0.51100000000E-03 0.  1.
        -12    1    4    4    0    0  0.36282094577E+00  0.42205053941E+01  0.99019669559E+01  0.10770016454E+02  0.00000000000E+00 0.  1.
</event>
<event>
 8    1  0.2530183E-006  0.9118800E+02  0.7816164E-02  0.1184000E+00
        -11   -1    0    0    0    0  0.00000000000E+00  0.00000000000E+00  0.45593999997E+02  0.45594000000E+02  0.51100000000E-03 0.  1.
         11   -1    0    0    0    0 -0.00000000000E+00 -0.00000000000E+00 -0.45593999997E+02  0.45594000000E+02  0.51100000000E-03 0. -1.
         23    2    1    2    0    0  0.00000000000E+00 -0.71054273576E-14  0.17763568394E-14  0.91188000000E+02  0.91188000000E+02 0.  0.
    9900012    2    3    3    0    0  0.63997555307E+01  0.32879347810E+02 -0.15289656495E+02  0.54367055159E+02  0.39999933846E+02 0.  0.
        -12    1    3    3    0    0 -0.63997555307E+01 -0.32879347810E+02  0.15289656495E+02  0.36820944841E+02  0.00000000000E+00 0.  1.
         11    1    4    4    0    0 -0.74204134201E+01 -0.50122445663E+01  0.32669925025E+01  0.95319657569E+01  0.51100000000E-03 0. -1.
        -11    1    4    4    0    0  0.22105053602E+01  0.16695227654E+01 -0.14774514337E+01  0.31395068421E+01  0.51100000000E-03 0.  1.
         12    1    4    4    0    0  0.11609663591E+02  0.36222069611E+02 -0.17079197564E+02  0.41695582560E+02  0.00000000000E+00 0. -1.
</event>
<event>
 8    1  0.2530183E-006  0.9118800E+02  0.7816164E-02  0.1184000E+00
        -11   -1    0    0    0    0  0.00000000000E+00  0.00000000000E+00  0.45593999997E+02  0.45594000000E+02  0.51100000000E-03 0.  1.
         11   -1    0    0    0    0 -0.00000000000E+00 -0.00000000000E+00 -0.45593999997E+02  0.45594000000E+02  0.51100000000E-03 0. -1.
         23    2    1    2    0    0  0.35527136788E-14  0.00000000000E+00  0.35527136788E-14  0.91188000000E+02  0.91188000000E+02 0.  0.
    9900012    2    3    3    0    0  0.30081940217E+02 -0.83687726089E+01 -0.19514620333E+02  0.54367083540E+02  0.39999998547E+02 0.  0.
        -12    1    3    3    0    0 -0.30081940217E+02  0.83687726089E+01  0.19514620333E+02  0.36820916460E+02  0.00000000000E+00 0.  1.
         11    1    4    4    0    0  0.21590833221E+02  0.83569214466E+01 -0.22117386225E+02  0.32018447635E+02  0.51100000000E-03 0. -1.
        -11    1    4    4    0    0  0.10961934933E+02 -0.16188605997E+02  0.30301086337E+01  0.19784249801E+02  0.51100000000E-03 0.  1.
        -12    1    4    4    0    0 -0.24708279364E+01 -0.53708805847E+00 -0.42734274098E+00  0.25643861044E+01  0.00000000000E+00 0.  1.
</event>
<event>
 8    1  0.2530183E-006  0.9118800E+02  0.7816164E-02  0.1184000E+00
        -11   -1    0    0    0    0  0.00000000000E+00  0.00000000000E+00  0.45593999997E+02  0.45594000000E+02  0.51100000000E-03 0.  1.
         11   -1    0    0    0    0 -0.00000000000E+00 -0.00000000000E+00 -0.45593999997E+02  0.45594000000E+02  0.51100000000E-03 0. -1.
         23    2    1    2    0    0  0.00000000000E+00 -0.35527136788E-14  0.17763568394E-14  0.91188000000E+02  0.91188000000E+02 0.  0.
    9900012    2    3    3    0    0  0.28417317909E+02 -0.21524870785E+02  0.92149937098E+01  0.54367080287E+02  0.39999991130E+02 0.  0.
        -12    1    3    3    0    0 -0.28417317909E+02  0.21524870785E+02 -0.92149937098E+01  0.36820919713E+02  0.00000000000E+00 0.  1.
         11    1    4    4    0    0 -0.12783782912E+01 -0.34767240302E+01  0.43267948401E+01  0.56958770077E+01  0.51100000000E-03 0.  1.
        -11    1    4    4    0    0  0.11011572239E+02 -0.10392561871E+02  0.18808743346E+02  0.24145991219E+02  0.51100000000E-03 0. -1.
         12    1    4    4    0    0  0.18684123961E+02 -0.76555848843E+01 -0.13920544476E+02  0.24525212061E+02  0.00000000000E+00 0. -1.
</event>
<event>
 8    1  0.2530183E-006  0.9118800E+02  0.7816164E-02  0.1184000E+00
        -11   -1    0    0    0    0  0.00000000000E+00  0.00000000000E+00  0.45593999997E+02  0.45594000000E+02  0.51100000000E-03 0. -1.
         11   -1    0    0    0    0 -0.00000000000E+00 -0.00000000000E+00 -0.45593999997E+02  0.45594000000E+02  0.51100000000E-03 0.  1.
         23    2    1    2    0    0  0.00000000000E+00 -0.28865798640E-14  0.00000000000E+00  0.91188000000E+02  0.91188000000E+02 0.  0.
    9900012    2    3    3    0    0 -0.26390054872E+02  0.15102955182E+01  0.25633281230E+02  0.54367067158E+02  0.39999961201E+02 0.  0.
        -12    1    3    3    0    0  0.26390054872E+02 -0.15102955182E+01 -0.25633281230E+02  0.36820932842E+02  0.00000000000E+00 0.  1.
         11    1    4    4    0    0 -0.55590876324E+01  0.15705434824E+02  0.26141960078E+01  0.16864108614E+02  0.51100000000E-03 0. -1.
        -11    1    4    4    0    0 -0.50900306419E+01  0.27820897550E+01  0.80916242732E+01  0.99560443440E+01  0.51100000000E-03 0.  1.
         12    1    4    4    0    0 -0.15740936598E+02 -0.16977229061E+02  0.14927460949E+02  0.27546914200E+02  0.00000000000E+00 0. -1.
</event>
<event>
 8    1  0.2530183E-006  0.9118800E+02  0.7816164E-02  0.1184000E+00
        -11   -1    0    0    0    0  0.00000000000E+00  0.00000000000E+00  0.45593999997E+02  0.45594000000E+02  0.51100000000E-03 0.  1.
         11   -1    0    0    0    0 -0.00000000000E+00 -0.00000000000E+00 -0.45593999997E+02  0.45594000000E+02  0.51100000000E-03 0. -1.
         23    2    1    2    0    0  0.22204460493E-15  0.71054273576E-14  0.17763568394E-14  0.91188000000E+02  0.91188000000E+02 0.  0.
    9900012    2    3    3    0    0 -0.11383348199E+01  0.33494727232E+02  0.15250805477E+02  0.54367087108E+02  0.40000006680E+02 0.  0.
        -12    1    3    3    0    0  0.11383348199E+01 -0.33494727232E+02 -0.15250805477E+02  0.36820912892E+02  0.00000000000E+00 0.  1.
         11    1    4    4    0    0 -0.56329245458E+01 -0.22792005400E+01  0.62455276908E+01  0.87138516419E+01  0.51100000000E-03 0. -1.
        -11    1    4    4    0    0 -0.21081275880E+01  0.32665895745E+02  0.15190706245E+02  0.36086874390E+02  0.51100000000E-03 0.  1.
        -12    1    4    4    0    0  0.66027173139E+01  0.31080320273E+01 -0.61854284593E+01  0.95663610760E+01  0.00000000000E+00 0.  1.
</event>
<event>
 8    1  0.2530183E-006  0.9118800E+02  0.7816164E-02  0.1184000E+00
        -11   -1    0    0    0    0  0.00000000000E+00  0.00000000000E+00  0.45593999997E+02  0.45594000000E+02  0.51100000000E-03 0. -1.
         11   -1    0    0    0    0 -0.00000000000E+00 -0.00000000000E+00 -0.45593999997E+02  0.45594000000E+02  0.51100000000E-03 0.  1.
         23    2    1    2    0    0  0.00000000000E+00  0.00000000000E+00  0.00000000000E+00  0.91188000000E+02  0.91188000000E+02 0.  0.
    9900012    2    3    3    0    0 -0.26458457804E+02  0.18309275330E+02  0.17902617075E+02  0.54367037892E+02  0.39999894481E+02 0.  0.
        -12    1    3    3    0    0  0.26458457804E+02 -0.18309275330E+02 -0.17902617075E+02  0.36820962108E+02  0.00000000000E+00 0.  1.
         11    1    4    4    0    0 -0.33194534232E+02  0.12162210617E+02  0.20531288041E+02  0.40881906253E+02  0.51100000000E-03 0. -1.
        -11    1    4    4    0    0  0.24068865735E+01 -0.25527816992E+01 -0.64857784289E+00  0.35679757371E+01  0.51100000000E-03 0.  1.
        -12    1    4    4    0    0  0.43291898550E+01  0.86998464123E+01 -0.19800931235E+01  0.99171559016E+01  0.00000000000E+00 0.  1.
</event>
<event>
 8    1  0.2530183E-006  0.9118800E+02  0.7816164E-02  0.1184000E+00
        -11   -1    0    0    0    0  0.00000000000E+00  0.00000000000E+00  0.45593999997E+02  0.45594000000E+02  0.51100000000E-03 0.  1.
         11   -1    0    0    0    0 -0.00000000000E+00 -0.00000000000E+00 -0.45593999997E+02  0.45594000000E+02  0.51100000000E-03 0. -1.
         23    2    1    2    0    0  0.00000000000E+00  0.00000000000E+00  0.00000000000E+00  0.91188000000E+02  0.91188000000E+02 0.  0.
    9900012    2    3    3    0    0  0.12004051274E+02  0.19680414445E+02 -0.28711740293E+02  0.54367082163E+02  0.39999995406E+02 0.  0.
        -12    1    3    3    0    0 -0.12004051274E+02 -0.19680414445E+02  0.28711740293E+02  0.36820917837E+02  0.00000000000E+00 0.  1.
         11    1    4    4    0    0  0.35993156038E+01 -0.52160239985E+01 -0.68173852768E+01  0.93079923422E+01  0.51100000000E-03 0. -1.
        -11    1    4    4    0    0 -0.15916844540E+01  0.25681744775E+02 -0.62534922773E+01  0.26480023414E+02  0.51100000000E-03 0.  1.
        -12    1    4    4    0    0  0.99964201238E+01 -0.78530633078E+00 -0.15640862739E+02  0.18579066407E+02  0.00000000000E+00 0.  1.
</event>
<event>
 8    1  0.2530183E-006  0.9118800E+02  0.7816164E-02  0.1184000E+00
        -11   -1    0    0    0    0  0.00000000000E+00  0.00000000000E+00  0.45593999997E+02  0.45594000000E+02  0.51100000000E-03 0. -1.
         11   -1    0    0    0    0 -0.00000000000E+00 -0.00000000000E+00 -0.45593999997E+02  0.45594000000E+02  0.51100000000E-03 0.  1.
         23    2    1    2    0    0 -0.71054273576E-14  0.00000000000E+00  0.00000000000E+00  0.91188000000E+02  0.91188000000E+02 0.  0.
    9900012    2    3    3    0    0 -0.27127402001E+02  0.24458889528E+02 -0.46526705026E+01  0.54367074440E+02  0.39999977801E+02 0.  0.
         12    1    3    3    0    0  0.27127402001E+02 -0.24458889528E+02  0.46526705026E+01  0.36820925560E+02  0.00000000000E+00 0. -1.
         11    1    4    4    0    0  0.65653585678E+00  0.35178203238E+01 -0.75593655633E+01  0.83636180653E+01  0.51100000000E-03 0. -1.
        -11    1    4    4    0    0  0.96847533782E+00 -0.61295042952E+01  0.19370137130E+01  0.65008299294E+01  0.51100000000E-03 0.  1.
        -12    1    4    4    0    0 -0.28752413196E+02  0.27070573500E+02  0.96968134773E+00  0.39502626445E+02  0.00000000000E+00 0.  1.
</event>
<event>
 8    1  0.2530183E-006  0.9118800E+02  0.7816164E-02  0.1184000E+00
        -11   -1    0    0    0    0  0.00000000000E+00  0.00000000000E+00  0.45593999997E+02  0.45594000000E+02  0.51100000000E-03 0.  1.
         11   -1    0    0    0    0 -0.00000000000E+00 -0.00000000000E+00 -0.45593999997E+02  0.45594000000E+02  0.51100000000E-03 0. -1.
         23    2    1    2    0    0  0.44408920985E-15  0.35527136788E-14  0.35527136788E-14  0.91188000000E+02  0.91188000000E+02 0.  0.
    9900012    2    3    3    0    0 -0.32618280742E+01  0.20770294846E+02  0.30228037571E+02  0.54367096619E+02  0.40000028363E+02 0.  0.
         12    1    3    3    0    0  0.32618280742E+01 -0.20770294846E+02 -0.30228037571E+02  0.36820903381E+02  0.00000000000E+00 0. -1.
         11    1    4    4    0    0 -0.12303236435E+02 -0.24938738387E+01  0.70053554114E+01  0.14375814349E+02  0.51100000000E-03 0. -1.
        -11    1    4    4    0    0 -0.50723613504E+01  0.14007443086E+02  0.15269002878E+02  0.21332598544E+02  0.51100000000E-03 0.  1.
         12    1    4    4    0    0  0.14113769712E+02  0.92567255986E+01  0.79536792813E+01  0.18658683726E+02  0.00000000000E+00 0. -1.
</event>
<event>
 8    1  0.2530183E-006  0.9118800E+02  0.7816164E-02  0.1184000E+00
        -11   -1    0    0    0    0  0.00000000000E+00  0.00000000000E+00  0.45593999997E+02  0.45594000000E+02  0.51100000000E-03 0. -1.
         11   -1    0    0    0    0 -0.00000000000E+00 -0.00000000000E+00 -0.45593999997E+02  0.45594000000E+02  0.51100000000E-03 0.  1.
         23    2    1    2    0    0  0.88817841970E-15  0.35527136788E-14 -0.35527136788E-14  0.91188000000E+02  0.91188000000E+02 0.  0.
    9900012    2    3    3    0    0 -0.50983518222E+01  0.29971783771E+02  0.20772073918E+02  0.54367081101E+02  0.39999992986E+02 0.  0.
         12    1    3    3    0    0  0.50983518222E+01 -0.29971783771E+02 -0.20772073918E+02  0.36820918899E+02  0.00000000000E+00 0. -1.
         11    1    4    4    0    0 -0.37662357093E+01 -0.66439888742E+01  0.54752163315E+01  0.93970800633E+01  0.51100000000E-03 0. -1.
        -11    1    4    4    0    0 -0.18732496691E+01  0.27532690719E+00  0.75831781762E+01  0.78159747148E+01  0.51100000000E-03 0.  1.
        -12    1    4    4    0    0  0.54113355616E+00  0.36340445738E+02  0.77136794104E+01  0.37154026323E+02  0.00000000000E+00 0.  1.
</event>
<event>
 8    1  0.2530183E-006  0.9118800E+02  0.7816164E-02  0.1184000E+00
        -11   -1    0    0    0    0  0.00000000000E+00  0.00000000000E+00  0.45593999997E+02  0.45594000000E+02  0.51100000000E-03 0. -1.
         11   -1    0    0    0    0 -0.00000000000E+00 -0.00000000000E+00 -0.45593999997E+02  0.45594000000E+02  0.51100000000E-03 0.  1.
         23    2    1    2    0    0 -0.35527136788E-14  0.88817841970E-15  0.00000000000E+00  0.91188000000E+02  0.91188000000E+02 0.  0.
    9900012    2    3    3    0    0 -0.30373284932E+02 -0.52650952035E+01 -0.20137563876E+02  0.54367093657E+02  0.40000021610E+02 0.  0.
        -12    1    3    3    0    0  0.30373284932E+02  0.52650952035E+01  0.20137563876E+02  0.36820906343E+02  0.00000000000E+00 0.  1.
         11    1    4    4    0    0 -0.25169776293E+01 -0.38442523418E+01 -0.19243097254E+02  0.19784090695E+02  0.51100000000E-03 0.  1.
        -11    1    4    4    0    0 -0.23235678789E+02  0.23425025249E+01 -0.85606393167E+01  0.24873050328E+02  0.51100000000E-03 0. -1.
        -12    1    4    4    0    0 -0.46206285140E+01 -0.37633453866E+01  0.76661726947E+01  0.97099526337E+01  0.00000000000E+00 0.  1.
</event>
<event>
 8    1  0.2530183E-006  0.9118800E+02  0.7816164E-02  0.1184000E+00
        -11   -1    0    0    0    0  0.00000000000E+00  0.00000000000E+00  0.45593999997E+02  0.45594000000E+02  0.51100000000E-03 0. -1.
         11   -1    0    0    0    0 -0.00000000000E+00 -0.00000000000E+00 -0.45593999997E+02  0.45594000000E+02  0.51100000000E-03 0.  1.
         23    2    1    2    0    0  0.00000000000E+00  0.00000000000E+00  0.00000000000E+00  0.91188000000E+02  0.91188000000E+02 0.  0.
    9900012    2    3    3    0    0  0.19785560805E+02 -0.21774915055E+02 -0.22139657310E+02  0.54367085185E+02  0.40000002296E+02 0.  0.
         12    1    3    3    0    0 -0.19785560805E+02  0.21774915055E+02  0.22139657310E+02  0.36820914815E+02  0.00000000000E+00 0. -1.
         11    1    4    4    0    0  0.14009225024E+02  0.49350723497E+01 -0.85507432931E+01  0.17138510320E+02  0.51100000000E-03 0. -1.
        -11    1    4    4    0    0 -0.45443650151E+01 -0.90470432508E+01 -0.13369357508E+02  0.16770210655E+02  0.51100000000E-03 0.  1.
         12    1    4    4    0    0  0.10320700796E+02 -0.17662944154E+02 -0.21955650934E+00  0.20458364210E+02  0.00000000000E+00 0. -1.
</event>
<event>
 8    1  0.2530183E-006  0.9118800E+02  0.7816164E-02  0.1184000E+00
        -11   -1    0    0    0    0  0.00000000000E+00  0.00000000000E+00  0.45593999997E+02  0.45594000000E+02  0.51100000000E-03 0.  1.
         11   -1    0    0    0    0 -0.00000000000E+00 -0.00000000000E+00 -0.45593999997E+02  0.45594000000E+02  0.51100000000E-03 0. -1.
         23    2    1    2    0    0 -0.35527136788E-14  0.00000000000E+00  0.17763568394E-14  0.91188000000E+02  0.91188000000E+02 0.  0.
    9900012    2    3    3    0    0 -0.19677648663E+02  0.28992755456E+02  0.11313450263E+02  0.54367029308E+02  0.39999874914E+02 0.  0.
        -12    1    3    3    0    0  0.19677648663E+02 -0.28992755456E+02 -0.11313450263E+02  0.36820970692E+02  0.00000000000E+00 0.  1.
         11    1    4    4    0    0 -0.22663715167E+02  0.16720216426E+02 -0.92074195338E+01  0.29630831869E+02  0.51100000000E-03 0. -1.
        -11    1    4    4    0    0 -0.33280123708E+00 -0.37408617797E+00  0.20225699265E+01  0.20836234066E+01  0.51100000000E-03 0.  1.
        -12    1    4    4    0    0  0.33188677409E+01  0.12646625208E+02  0.18498299870E+02  0.22652574033E+02  0.00000000000E+00 0.  1.
</event>
<event>
 8    1  0.2530183E-006  0.9118800E+02  0.7816164E-02  0.1184000E+00
        -11   -1    0    0    0    0  0.00000000000E+00  0.00000000000E+00  0.45593999997E+02  0.45594000000E+02  0.51100000000E-03 0. -1.
         11   -1    0    0    0    0 -0.00000000000E+00 -0.00000000000E+00 -0.45593999997E+02  0.45594000000E+02  0.51100000000E-03 0.  1.
         23    2    1    2    0    0  0.00000000000E+00  0.88817841970E-15  0.00000000000E+00  0.91188000000E+02  0.91188000000E+02 0.  0.
    9900012    2    3    3    0    0  0.16030998453E+02  0.55616327228E+01  0.32678047186E+02  0.54367089666E+02  0.40000012511E+02 0.  0.
        -12    1    3    3    0    0 -0.16030998453E+02 -0.55616327228E+01 -0.32678047186E+02  0.36820910334E+02  0.00000000000E+00 0.  1.
         11    1    4    4    0    0 -0.35313030728E+01 -0.66215143558E+01  0.15580330978E+02  0.17293387968E+02  0.51100000000E-03 0. -1.
        -11    1    4    4    0    0  0.63911045248E+01  0.16692911417E+02  0.14259336148E+02  0.22865436280E+02  0.51100000000E-03 0.  1.
        -12    1    4    4    0    0  0.13171197001E+02 -0.45097643386E+01  0.28383800601E+01  0.14208265418E+02  0.00000000000E+00 0.  1.
</event>
<event>
 8    1  0.2530183E-006  0.9118800E+02  0.7816164E-02  0.1184000E+00
        -11   -1    0    0    0    0  0.00000000000E+00  0.00000000000E+00  0.45593999997E+02  0.45594000000E+02  0.51100000000E-03 0.  1.
         11   -1    0    0    0    0 -0.00000000000E+00 -0.00000000000E+00 -0.45593999997E+02  0.45594000000E+02  0.51100000000E-03 0. -1.
         23    2    1    2    0    0  0.00000000000E+00  0.00000000000E+00  0.00000000000E+00  0.91188000000E+02  0.91188000000E+02 0.  0.
    9900012    2    3    3    0    0 -0.13794432160E+02 -0.13278156947E+02 -0.31451290584E+02  0.54367088958E+02  0.40000010899E+02 0.  0.
        -12    1    3    3    0    0  0.13794432160E+02  0.13278156947E+02  0.31451290584E+02  0.36820911042E+02  0.00000000000E+00 0.  1.
         11    1    4    4    0    0 -0.36696255700E+01 -0.13476694001E+02 -0.28812692401E+02  0.32019660784E+02  0.51100000000E-03 0. -1.
        -11    1    4    4    0    0 -0.48438319970E+01 -0.15562114661E+01 -0.11105534113E+02  0.12215457041E+02  0.51100000000E-03 0.  1.
        -12    1    4    4    0    0 -0.52809745925E+01  0.17547485204E+01  0.84669359295E+01  0.10131971134E+02  0.00000000000E+00 0.  1.
</event>
<event>
 8    1  0.2530183E-006  0.9118800E+02  0.7816164E-02  0.1184000E+00
        -11   -1    0    0    0    0  0.00000000000E+00  0.00000000000E+00  0.45593999997E+02  0.45594000000E+02  0.51100000000E-03 0.  1.
         11   -1    0    0    0    0 -0.00000000000E+00 -0.00000000000E+00 -0.45593999997E+02  0.45594000000E+02  0.51100000000E-03 0. -1.
         23    2    1    2    0    0 -0.17763568394E-14  0.00000000000E+00  0.00000000000E+00  0.91188000000E+02  0.91188000000E+02 0.  0.
    9900012    2    3    3    0    0  0.12106973328E+02 -0.33137474926E+02  0.10540901947E+02  0.54367059470E+02  0.39999943674E+02 0.  0.
         12    1    3    3    0    0 -0.12106973328E+02  0.33137474926E+02 -0.10540901947E+02  0.36820940530E+02  0.00000000000E+00 0. -1.
         11    1    4    4    0    0  0.21376146139E+02 -0.35059726697E+02  0.69793080287E+01  0.41651348125E+02  0.51100000000E-03 0. -1.
        -11    1    4    4    0    0 -0.81570924657E+01  0.27492898151E+01 -0.29977489025E+00  0.86131653431E+01  0.51100000000E-03 0.  1.
         12    1    4    4    0    0 -0.11120803453E+01 -0.82703804472E+00  0.38613688084E+01  0.41025460017E+01  0.00000000000E+00 0. -1.
</event>
<event>
 8    1  0.2530183E-006  0.9118800E+02  0.7816164E-02  0.1184000E+00
        -11   -1    0    0    0    0  0.00000000000E+00  0.00000000000E+00  0.45593999997E+02  0.45594000000E+02  0.51100000000E-03 0. -1.
         11   -1    0    0    0    0 -0.00000000000E+00 -0.00000000000E+00 -0.45593999997E+02  0.45594000000E+02  0.51100000000E-03 0.  1.
         23    2    1    2    0    0  0.00000000000E+00  0.00000000000E+00  0.00000000000E+00  0.91188000000E+02  0.91188000000E+02 0.  0.
    9900012    2    3    3    0    0  0.10129236552E+02  0.15353451411E+02  0.31897489585E+02  0.54367085492E+02  0.40000002997E+02 0.  0.
        -12    1    3    3    0    0 -0.10129236552E+02 -0.15353451411E+02 -0.31897489585E+02  0.36820914508E+02  0.00000000000E+00 0.  1.
         11    1    4    4    0    0  0.61051107153E+01 -0.15956284005E+01  0.31467555606E+02  0.32094009767E+02  0.51100000000E-03 0. -1.
        -11    1    4    4    0    0  0.80919017758E+01  0.16016369030E+02  0.13649456385E+01  0.17996278174E+02  0.51100000000E-03 0.  1.
         12    1    4    4    0    0 -0.40677759389E+01  0.93271078147E+00 -0.93501165982E+00  0.42767975513E+01  0.00000000000E+00 0. -1.
</event>
<event>
 8    1  0.2530183E-006  0.9118800E+02  0.7816164E-02  0.1184000E+00
        -11   -1    0    0    0    0  0.00000000000E+00  0.00000000000E+00  0.45593999997E+02  0.45594000000E+02  0.51100000000E-03 0.  1.
         11   -1    0    0    0    0 -0.00000000000E+00 -0.00000000000E+00 -0.45593999997E+02  0.45594000000E+02  0.51100000000E-03 0. -1.
         23    2    1    2    0    0  0.00000000000E+00  0.00000000000E+00 -0.53290705182E-14  0.91188000000E+02  0.91188000000E+02 0.  0.
    9900012    2    3    3    0    0  0.30867789062E+02  0.17304142575E+02 -0.10174806247E+02  0.54367076138E+02  0.39999981672E+02 0.  0.
        -12    1    3    3    0    0 -0.30867789062E+02 -0.17304142575E+02  0.10174806247E+02  0.36820923862E+02  0.00000000000E+00 0.  1.
         11    1    4    4    0    0  0.14355992715E+02  0.59781389925E+00  0.11944368241E+02  0.18684748894E+02  0.51100000000E-03 0. -1.
        -11    1    4    4    0    0  0.23234841925E+01 -0.17396460605E+01  0.80912485520E+00  0.30132425228E+01  0.51100000000E-03 0.  1.
         12    1    4    4    0    0  0.14188312154E+02  0.18445974737E+02 -0.22928299343E+02  0.32669084722E+02  0.00000000000E+00 0. -1.
</event>
<event>
 8    1  0.2530183E-006  0.9118800E+02  0.7816164E-02  0.1184000E+00
        -11   -1    0    0    0    0  0.00000000000E+00  0.00000000000E+00  0.45593999997E+02  0.45594000000E+02  0.51100000000E-03 0.  1.
         11   -1    0    0    0    0 -0.00000000000E+00 -0.00000000000E+00 -0.45593999997E+02  0.45594000000E+02  0.51100000000E-03 0. -1.
         23    2    1    2    0    0  0.00000000000E+00  0.00000000000E+00  0.00000000000E+00  0.91188000000E+02  0.91188000000E+02 0.  0.
    9900012    2    3    3    0    0  0.26247032751E+02 -0.17548886536E+02  0.18944900784E+02  0.54367090009E+02  0.40000013293E+02 0.  0.
         12    1    3    3    0    0 -0.26247032751E+02  0.17548886536E+02 -0.18944900784E+02  0.36820909991E+02  0.00000000000E+00 0. -1.
         11    1    4    4    0    0  0.10165101533E+02 -0.23374630989E+02  0.99965552365E+01  0.27379440825E+02  0.51100000000E-03 0. -1.
        -11    1    4    4    0    0  0.18345412170E+02 -0.34275545008E+00  0.89543952349E+01  0.20416973901E+02  0.51100000000E-03 0.  1.
        -12    1    4    4    0    0 -0.22634809521E+01  0.61684999031E+01 -0.60496873351E-02  0.65706752829E+01  0.00000000000E+00 0.  1.
</event>
<event>
 8    1  0.2530183E-006  0.9118800E+02  0.7816164E-02  0.1184000E+00
        -11   -1    0    0    0    0  0.00000000000E+00  0.00000000000E+00  0.45593999997E+02  0.45594000000E+02  0.51100000000E-03 0. -1.
         11   -1    0    0    0    0 -0.00000000000E+00 -0.00000000000E+00 -0.45593999997E+02  0.45594000000E+02  0.51100000000E-03 0.  1.
         23    2    1    2    0    0  0.22204460493E-15  0.35527136788E-14  0.35527136788E-14  0.91188000000E+02  0.91188000000E+02 0.  0.
    9900012    2    3    3    0    0  0.82778261866E+00 -0.25750486826E+02 -0.26306022249E+02  0.54367087430E+02  0.40000007415E+02 0.  0.
         12    1    3    3    0    0 -0.82778261866E+00  0.25750486826E+02  0.26306022249E+02  0.36820912570E+02  0.00000000000E+00 0. -1.
         11    1    4    4    0    0  0.11509408745E+01 -0.16158261857E+02 -0.58394194606E-01  0.16199305580E+02  0.51100000000E-03 0. -1.
        -11    1    4    4    0    0  0.35911238294E+01  0.44392811252E+00  0.43914137281E+01  0.56901456326E+01  0.51100000000E-03 0.  1.
        -12    1    4    4    0    0 -0.39142820853E+01 -0.10036153082E+02 -0.30639041783E+02  0.32477636218E+02  0.00000000000E+00 0.  1.
</event>
<event>
 8    1  0.2530183E-006  0.9118800E+02  0.7816164E-02  0.1184000E+00
        -11   -1    0    0    0    0  0.00000000000E+00  0.00000000000E+00  0.45593999997E+02  0.45594000000E+02  0.51100000000E-03 0.  1.
         11   -1    0    0    0    0 -0.00000000000E+00 -0.00000000000E+00 -0.45593999997E+02  0.45594000000E+02  0.51100000000E-03 0. -1.
         23    2    1    2    0    0  0.00000000000E+00  0.35527136788E-14 -0.35527136788E-14  0.91188000000E+02  0.91188000000E+02 0.  0.
    9900012    2    3    3    0    0  0.17215163343E+02  0.26658689198E+02  0.18674456528E+02  0.54367042852E+02  0.39999905789E+02 0.  0.
         12    1    3    3    0    0 -0.17215163343E+02 -0.26658689198E+02 -0.18674456528E+02  0.36820957148E+02  0.00000000000E+00 0. -1.
         11    1    4    4    0    0  0.34939426299E+01 -0.11854258227E+01 -0.93734726464E+01  0.10073473045E+02  0.51100000000E-03 0. -1.
        -11    1    4    4    0    0  0.70934195698E+01  0.21572150790E+02  0.11637459575E+02  0.25516754427E+02  0.51100000000E-03 0.  1.
        -12    1    4    4    0    0  0.66278011432E+01  0.62719642311E+01  0.16410469599E+02  0.18776815379E+02  0.00000000000E+00 0.  1.
</event>
<event>
 8    1  0.2530183E-006  0.9118800E+02  0.7816164E-02  0.1184000E+00
        -11   -1    0    0    0    0  0.00000000000E+00  0.00000000000E+00  0.45593999997E+02  0.45594000000E+02  0.51100000000E-03 0. -1.
         11   -1    0    0    0    0 -0.00000000000E+00 -0.00000000000E+00 -0.45593999997E+02  0.45594000000E+02  0.51100000000E-03 0.  1.
         23    2    1    2    0    0  0.00000000000E+00  0.00000000000E+00  0.33306690739E-14  0.91188000000E+02  0.91188000000E+02 0.  0.
    9900012    2    3    3    0    0  0.30232211720E+02  0.21016233583E+02  0.33840342803E+00  0.54367038357E+02  0.39999895541E+02 0.  0.
         12    1    3    3    0    0 -0.30232211720E+02 -0.21016233583E+02 -0.33840342803E+00  0.36820961643E+02  0.00000000000E+00 0. -1.
         11    1    4    4    0    0 -0.52081229340E+01 -0.18765280398E+01  0.79239384170E+00  0.55922974028E+01  0.51100000000E-03 0. -1.
        -11    1    4    4    0    0  0.19295438304E+02  0.12729633016E+02  0.11947107653E+02  0.26020969959E+02  0.51100000000E-03 0.  1.
        -12    1    4    4    0    0  0.16144896350E+02  0.10163128606E+02 -0.12401098067E+02  0.22753770995E+02  0.00000000000E+00 0.  1.
</event>
<event>
 8    1  0.2530183E-006  0.9118800E+02  0.7816164E-02  0.1184000E+00
        -11   -1    0    0    0    0  0.00000000000E+00  0.00000000000E+00  0.45593999997E+02  0.45594000000E+02  0.51100000000E-03 0.  1.
         11   -1    0    0    0    0 -0.00000000000E+00 -0.00000000000E+00 -0.45593999997E+02  0.45594000000E+02  0.51100000000E-03 0. -1.
         23    2    1    2    0    0  0.88817841970E-15  0.00000000000E+00  0.00000000000E+00  0.91188000000E+02  0.91188000000E+02 0.  0.
    9900012    2    3    3    0    0 -0.64373401378E+01 -0.62080078628E+01 -0.35718384621E+02  0.54367058817E+02  0.39999942186E+02 0.  0.
        -12    1    3    3    0    0  0.64373401378E+01  0.62080078628E+01  0.35718384621E+02  0.36820941183E+02  0.00000000000E+00 0.  1.
         11    1    4    4    0    0  0.90916058847E+01 -0.69805426718E+01 -0.12164146615E+02  0.16713818735E+02  0.51100000000E-03 0.  1.
        -11    1    4    4    0    0 -0.14815710480E+01 -0.53932013906E+00 -0.23491753008E+02  0.23544604023E+02  0.51100000000E-03 0. -1.
         12    1    4    4    0    0 -0.14047374975E+02  0.13118549481E+01 -0.62484997705E-01  0.14108636059E+02  0.00000000000E+00 0. -1.
</event>
<event>
 8    1  0.2530183E-006  0.9118800E+02  0.7816164E-02  0.1184000E+00
        -11   -1    0    0    0    0  0.00000000000E+00  0.00000000000E+00  0.45593999997E+02  0.45594000000E+02  0.51100000000E-03 0. -1.
         11   -1    0    0    0    0 -0.00000000000E+00 -0.00000000000E+00 -0.45593999997E+02  0.45594000000E+02  0.51100000000E-03 0.  1.
         23    2    1    2    0    0 -0.35527136788E-14  0.00000000000E+00  0.00000000000E+00  0.91188000000E+02  0.91188000000E+02 0.  0.
    9900012    2    3    3    0    0 -0.30414787744E+02 -0.70691574188E+01 -0.19512732575E+02  0.54367095168E+02  0.40000025053E+02 0.  0.
         12    1    3    3    0    0  0.30414787744E+02  0.70691574188E+01  0.19512732575E+02  0.36820904832E+02  0.00000000000E+00 0. -1.
         11    1    4    4    0    0 -0.20604120900E+02 -0.13836055632E+02 -0.26828840315E+02  0.36547953519E+02  0.51100000000E-03 0. -1.
        -11    1    4    4    0    0 -0.84095576536E+01  0.71603224556E+01  0.72437897558E+00  0.11068676649E+02  0.51100000000E-03 0.  1.
         12    1    4    4    0    0 -0.14011091900E+01 -0.39342424287E+00  0.65917287648E+01  0.67504649992E+01  0.00000000000E+00 0. -1.
</event>
<event>
 8    1  0.2530183E-006  0.9118800E+02  0.7816164E-02  0.1184000E+00
        -11   -1    0    0    0    0  0.00000000000E+00  0.00000000000E+00  0.45593999997E+02  0.45594000000E+02  0.51100000000E-03 0. -1.
         11   -1    0    0    0    0 -0.00000000000E+00 -0.00000000000E+00 -0.45593999997E+02  0.45594000000E+02  0.51100000000E-03 0.  1.
         23    2    1    2    0    0  0.17763568394E-14  0.17763568394E-14  0.00000000000E+00  0.91188000000E+02  0.91188000000E+02 0.  0.
    9900012    2    3    3    0    0  0.15145681288E+02 -0.15306125776E+02  0.29868237495E+02  0.54367071725E+02  0.39999971612E+02 0.  0.
        -12    1    3    3    0    0 -0.15145681288E+02  0.15306125776E+02 -0.29868237495E+02  0.36820928275E+02  0.00000000000E+00 0.  1.
         11    1    4    4    0    0  0.21931976682E+02  0.10241646734E+01  0.20106301633E+02  0.29771192117E+02  0.51100000000E-03 0. -1.
        -11    1    4    4    0    0 -0.47940153039E+01 -0.30730260388E+00 -0.13564623203E+01  0.49916938921E+01  0.51100000000E-03 0.  1.
         12    1    4    4    0    0 -0.19922800895E+01 -0.16022987846E+02  0.11118398183E+02  0.19604185716E+02  0.00000000000E+00 0. -1.
</event>
<event>
 8    1  0.2530183E-006  0.9118800E+02  0.7816164E-02  0.1184000E+00
        -11   -1    0    0    0    0  0.00000000000E+00  0.00000000000E+00  0.45593999997E+02  0.45594000000E+02  0.51100000000E-03 0. -1.
         11   -1    0    0    0    0 -0.00000000000E+00 -0.00000000000E+00 -0.45593999997E+02  0.45594000000E+02  0.51100000000E-03 0.  1.
         23    2    1    2    0    0  0.00000000000E+00  0.00000000000E+00  0.35527136788E-14  0.91188000000E+02  0.91188000000E+02 0.  0.
    9900012    2    3    3    0    0  0.18411895463E+02 -0.24439186352E+02 -0.20482018972E+02  0.54367016509E+02  0.39999845736E+02 0.  0.
         12    1    3    3    0    0 -0.18411895463E+02  0.24439186352E+02  0.20482018972E+02  0.36820983491E+02  0.00000000000E+00 0. -1.
         11    1    4    4    0    0 -0.16716048578E+01 -0.16440437694E+02  0.42672712759E+01  0.17067274498E+02  0.51100000000E-03 0. -1.
        -11    1    4    4    0    0 -0.23297017871E+01  0.12455107983E+01  0.16919700426E-01  0.26417975137E+01  0.51100000000E-03 0.  1.
        -12    1    4    4    0    0  0.22413202108E+02 -0.92442594557E+01 -0.24766209948E+02  0.34657944498E+02  0.00000000000E+00 0.  1.
</event>
<event>
 8    1  0.2530183E-006  0.9118800E+02  0.7816164E-02  0.1184000E+00
        -11   -1    0    0    0    0  0.00000000000E+00  0.00000000000E+00  0.45593999997E+02  0.45594000000E+02  0.51100000000E-03 0. -1.
         11   -1    0    0    0    0 -0.00000000000E+00 -0.00000000000E+00 -0.45593999997E+02  0.45594000000E+02  0.51100000000E-03 0.  1.
         23    2    1    2    0    0  0.88817841970E-15 -0.44408920985E-15  0.00000000000E+00  0.91188000000E+02  0.91188000000E+02 0.  0.
    9900012    2    3    3    0    0  0.57001570189E+01  0.30121587620E+01 -0.36252062445E+02  0.54367123829E+02  0.40000090394E+02 0.  0.
         12    1    3    3    0    0 -0.57001570189E+01 -0.30121587620E+01  0.36252062445E+02  0.36820876171E+02  0.00000000000E+00 0. -1.
         11    1    4    4    0    0 -0.40969922595E+01 -0.35442066485E+01 -0.23480917390E+02  0.24097722467E+02  0.51100000000E-03 0. -1.
        -11    1    4    4    0    0  0.10873522520E+02  0.51427363916E+01 -0.19718945664E+02  0.23098009610E+02  0.51100000000E-03 0.  1.
         12    1    4    4    0    0 -0.10763732412E+01  0.14136290189E+01  0.69478006094E+01  0.71713917524E+01  0.00000000000E+00 0. -1.
</event>
<event>
 8    1  0.2530183E-006  0.9118800E+02  0.7816164E-02  0.1184000E+00
        -11   -1    0    0    0    0  0.00000000000E+00  0.00000000000E+00  0.45593999997E+02  0.45594000000E+02  0.51100000000E-03 0.  1.
         11   -1    0    0    0    0 -0.00000000000E+00 -0.00000000000E+00 -0.45593999997E+02  0.45594000000E+02  0.51100000000E-03 0. -1.
         23    2    1    2    0    0  0.00000000000E+00  0.15265566589E-15  0.71054273576E-14  0.91188000000E+02  0.91188000000E+02 0.  0.
    9900012    2    3    3    0    0 -0.21158450863E+01  0.40292973338E-01  0.36760055067E+02  0.54367081048E+02  0.39999992864E+02 0.  0.
         12    1    3    3    0    0  0.21158450863E+01 -0.40292973338E-01 -0.36760055067E+02  0.36820918952E+02  0.00000000000E+00 0. -1.
         11    1    4    4    0    0  0.48493096446E+01 -0.10558440139E+02  0.11025301906E+02  0.16017295171E+02  0.51100000000E-03 0. -1.
        -11    1    4    4    0    0 -0.18183827312E+01 -0.45644952221E+01 -0.27808829096E+01  0.56457455139E+01  0.51100000000E-03 0.  1.
        -12    1    4    4    0    0 -0.51467719997E+01  0.15163228335E+02  0.28515636071E+02  0.32704040363E+02  0.00000000000E+00 0.  1.
</event>
<event>
 8    1  0.2530183E-006  0.9118800E+02  0.7816164E-02  0.1184000E+00
        -11   -1    0    0    0    0  0.00000000000E+00  0.00000000000E+00  0.45593999997E+02  0.45594000000E+02  0.51100000000E-03 0.  1.
         11   -1    0    0    0    0 -0.00000000000E+00 -0.00000000000E+00 -0.45593999997E+02  0.45594000000E+02  0.51100000000E-03 0. -1.
         23    2    1    2    0    0  0.71054273576E-14  0.00000000000E+00  0.44408920985E-15  0.91188000000E+02  0.91188000000E+02 0.  0.
    9900012    2    3    3    0    0  0.28859977690E+02 -0.22638898714E+02 -0.32188126689E+01  0.54367098296E+02  0.40000032186E+02 0.  0.
         12    1    3    3    0    0 -0.28859977690E+02  0.22638898714E+02  0.32188126689E+01  0.36820901704E+02  0.00000000000E+00 0. -1.
         11    1    4    4    0    0 -0.38328026600E+01 -0.28527322746E+01  0.29355854138E+01  0.56076839822E+01  0.51100000000E-03 0. -1.
        -11    1    4    4    0    0 -0.29612777542E+01 -0.10957163159E+02 -0.37344108982E+01  0.11948824857E+02  0.51100000000E-03 0.  1.
         12    1    4    4    0    0  0.35654058104E+02 -0.88290032801E+01 -0.24199871846E+01  0.36810589458E+02  0.00000000000E+00 0. -1.
</event>
<event>
 8    1  0.2530183E-006  0.9118800E+02  0.7816164E-02  0.1184000E+00
        -11   -1    0    0    0    0  0.00000000000E+00  0.00000000000E+00  0.45593999997E+02  0.45594000000E+02  0.51100000000E-03 0. -1.
         11   -1    0    0    0    0 -0.00000000000E+00 -0.00000000000E+00 -0.45593999997E+02  0.45594000000E+02  0.51100000000E-03 0.  1.
         23    2    1    2    0    0  0.00000000000E+00  0.00000000000E+00  0.71054273576E-14  0.91188000000E+02  0.91188000000E+02 0.  0.
    9900012    2    3    3    0    0 -0.12432664681E+02 -0.56438904317E+01  0.34195848762E+02  0.54367072217E+02  0.39999972732E+02 0.  0.
        -12    1    3    3    0    0  0.12432664681E+02  0.56438904317E+01 -0.34195848762E+02  0.36820927783E+02  0.00000000000E+00 0.  1.
         11    1    4    4    0    0 -0.11901961776E+02 -0.10570071158E+01  0.29885462885E+02  0.32185631115E+02  0.51100000000E-03 0. -1.
        -11    1    4    4    0    0 -0.85037415731E+01 -0.89117002096E+01  0.44856656767E+01  0.13109279850E+02  0.51100000000E-03 0.  1.
         12    1    4    4    0    0  0.79730386682E+01  0.43248168937E+01 -0.17527979939E+00  0.90721612517E+01  0.00000000000E+00 0. -1.
</event>
<event>
 8    1  0.2530183E-006  0.9118800E+02  0.7816164E-02  0.1184000E+00
        -11   -1    0    0    0    0  0.00000000000E+00  0.00000000000E+00  0.45593999997E+02  0.45594000000E+02  0.51100000000E-03 0. -1.
         11   -1    0    0    0    0 -0.00000000000E+00 -0.00000000000E+00 -0.45593999997E+02  0.45594000000E+02  0.51100000000E-03 0.  1.
         23    2    1    2    0    0  0.88817841970E-15  0.00000000000E+00  0.00000000000E+00  0.91188000000E+02  0.91188000000E+02 0.  0.
    9900012    2    3    3    0    0  0.59870411182E+01  0.32513675947E+02  0.16211132710E+02  0.54367019450E+02  0.39999852439E+02 0.  0.
        -12    1    3    3    0    0 -0.59870411182E+01 -0.32513675947E+02 -0.16211132710E+02  0.36820980550E+02  0.00000000000E+00 0.  1.
         11    1    4    4    0    0 -0.74660963062E+01  0.27432434177E+02  0.21486776184E+02  0.35636534483E+02  0.51100000000E-03 0. -1.
        -11    1    4    4    0    0  0.88648996833E+01  0.77012286686E+01 -0.73838517059E+00  0.11766077610E+02  0.51100000000E-03 0.  1.
        -12    1    4    4    0    0  0.45882377411E+01 -0.26199868988E+01 -0.45372583032E+01  0.69644073566E+01  0.00000000000E+00 0.  1.
</event>
<event>
 8    1  0.2530183E-006  0.9118800E+02  0.7816164E-02  0.1184000E+00
        -11   -1    0    0    0    0  0.00000000000E+00  0.00000000000E+00  0.45593999997E+02  0.45594000000E+02  0.51100000000E-03 0. -1.
         11   -1    0    0    0    0 -0.00000000000E+00 -0.00000000000E+00 -0.45593999997E+02  0.45594000000E+02  0.51100000000E-03 0.  1.
         23    2    1    2    0    0  0.17763568394E-14 -0.17763568394E-14  0.00000000000E+00  0.91188000000E+02  0.91188000000E+02 0.  0.
    9900012    2    3    3    0    0 -0.13886115839E+02  0.14773178300E+02  0.30736152248E+02  0.54367053988E+02  0.39999931177E+02 0.  0.
        -12    1    3    3    0    0  0.13886115839E+02 -0.14773178300E+02 -0.30736152248E+02  0.36820946012E+02  0.00000000000E+00 0.  1.
         11    1    4    4    0    0 -0.24966959617E+01  0.95566486901E+01  0.14897225510E+02  0.17874293079E+02  0.51100000000E-03 0. -1.
        -11    1    4    4    0    0 -0.43667923243E+01 -0.97377791307E+01  0.16844894437E+02  0.19941005152E+02  0.51100000000E-03 0.  1.
        -12    1    4    4    0    0 -0.70226275528E+01  0.14954308740E+02 -0.10059676987E+01  0.16551755758E+02  0.00000000000E+00 0.  1.
</event>
<event>
 8    1  0.2530183E-006  0.9118800E+02  0.7816164E-02  0.1184000E+00
        -11   -1    0    0    0    0  0.00000000000E+00  0.00000000000E+00  0.45593999997E+02  0.45594000000E+02  0.51100000000E-03 0.  1.
         11   -1    0    0    0    0 -0.00000000000E+00 -0.00000000000E+00 -0.45593999997E+02  0.45594000000E+02  0.51100000000E-03 0. -1.
         23    2    1    2    0    0  0.00000000000E+00  0.00000000000E+00  0.00000000000E+00  0.91188000000E+02  0.91188000000E+02 0.  0.
    9900012    2    3    3    0    0  0.16688182886E+02 -0.31276781480E+02 -0.99523022839E+01  0.54367070781E+02  0.39999969460E+02 0.  0.
        -12    1    3    3    0    0 -0.16688182886E+02  0.31276781480E+02  0.99523022839E+01  0.36820929219E+02  0.00000000000E+00 0.  1.
         11    1    4    4    0    0  0.15615521473E+02 -0.27232047631E+02  0.83330761754E+01  0.32478748250E+02  0.51100000000E-03 0. -1.
        -11    1    4    4    0    0  0.52860164925E+01 -0.43155337781E+01 -0.67237245521E+01  0.95798890528E+01  0.51100000000E-03 0.  1.
        -12    1    4    4    0    0 -0.42133550795E+01  0.27079992976E+00 -0.11561653907E+02  0.12308433479E+02  0.00000000000E+00 0.  1.
</event>
<event>
 8    1  0.2530183E-006  0.9118800E+02  0.7816164E-02  0.1184000E+00
        -11   -1    0    0    0    0  0.00000000000E+00  0.00000000000E+00  0.45593999997E+02  0.45594000000E+02  0.51100000000E-03 0. -1.
         11   -1    0    0    0    0 -0.00000000000E+00 -0.00000000000E+00 -0.45593999997E+02  0.45594000000E+02  0.51100000000E-03 0.  1.
         23    2    1    2    0    0  0.00000000000E+00  0.44408920985E-15  0.71054273576E-14  0.91188000000E+02  0.91188000000E+02 0.  0.
    9900012    2    3    3    0    0  0.20364430714E+02 -0.20654116922E+01  0.30607239543E+02  0.54367094577E+02  0.40000023707E+02 0.  0.
        -12    1    3    3    0    0 -0.20364430714E+02  0.20654116922E+01 -0.30607239543E+02  0.36820905423E+02  0.00000000000E+00 0.  1.
         11    1    4    4    0    0 -0.18093147419E+01 -0.17447375433E+01 -0.13599171547E+00  0.25171855192E+01  0.51100000000E-03 0. -1.
        -11    1    4    4    0    0  0.28507923494E+02 -0.66059076055E+01  0.13065275366E+02  0.32047482551E+02  0.51100000000E-03 0.  1.
        -12    1    4    4    0    0 -0.63341780380E+01  0.62852334566E+01  0.17677955892E+02  0.19802426507E+02  0.00000000000E+00 0.  1.
</event>
<event>
 8    1  0.2530183E-006  0.9118800E+02  0.7816164E-02  0.1184000E+00
        -11   -1    0    0    0    0  0.00000000000E+00  0.00000000000E+00  0.45593999997E+02  0.45594000000E+02  0.51100000000E-03 0.  1.
         11   -1    0    0    0    0 -0.00000000000E+00 -0.00000000000E+00 -0.45593999997E+02  0.45594000000E+02  0.51100000000E-03 0. -1.
         23    2    1    2    0    0  0.44408920985E-15  0.00000000000E+00  0.00000000000E+00  0.91188000000E+02  0.91188000000E+02 0.  0.
    9900012    2    3    3    0    0 -0.39862744200E+01 -0.27448409993E+02  0.24217237047E+02  0.54367079790E+02  0.39999989998E+02 0.  0.
         12    1    3    3    0    0  0.39862744200E+01  0.27448409993E+02 -0.24217237047E+02  0.36820920210E+02  0.00000000000E+00 0. -1.
         11    1    4    4    0    0  0.85764953886E+01 -0.59325621114E+01  0.76561080850E+01  0.12937061398E+02  0.51100000000E-03 0. -1.
        -11    1    4    4    0    0 -0.24614267722E+01 -0.74291345211E+01  0.21929031494E+02  0.23283751502E+02  0.51100000000E-03 0.  1.
         12    1    4    4    0    0 -0.10101343036E+02 -0.14086713361E+02 -0.53679025324E+01  0.18146266890E+02  0.00000000000E+00 0. -1.
</event>
<event>
 8    1  0.2530183E-006  0.9118800E+02  0.7816164E-02  0.1184000E+00
        -11   -1    0    0    0    0  0.00000000000E+00  0.00000000000E+00  0.45593999997E+02  0.45594000000E+02  0.51100000000E-03 0.  1.
         11   -1    0    0    0    0 -0.00000000000E+00 -0.00000000000E+00 -0.45593999997E+02  0.45594000000E+02  0.51100000000E-03 0. -1.
         23    2    1    2    0    0 -0.35527136788E-14  0.17763568394E-14  0.35527136788E-14  0.91188000000E+02  0.91188000000E+02 0.  0.
    9900012    2    3    3    0    0  0.22751264375E+02 -0.12236352945E+02 -0.26237988304E+02  0.54367076678E+02  0.39999982902E+02 0.  0.
         12    1    3    3    0    0 -0.22751264375E+02  0.12236352945E+02  0.26237988304E+02  0.36820923322E+02  0.00000000000E+00 0. -1.
         11    1    4    4    0    0 -0.22036630100E+01 -0.37529625932E+01  0.61675174076E+01  0.75484521673E+01  0.51100000000E-03 0. -1.
        -11    1    4    4    0    0  0.12198763963E+02 -0.47578949657E+01 -0.15028438776E+01  0.13179755184E+02  0.51100000000E-03 0.  1.
        -12    1    4    4    0    0  0.12756163422E+02 -0.37254953857E+01 -0.30902661834E+02  0.33638869326E+02  0.00000000000E+00 0.  1.
</event>
<event>
 8    1  0.2530183E-006  0.9118800E+02  0.7816164E-02  0.1184000E+00
        -11   -1    0    0    0    0  0.00000000000E+00  0.00000000000E+00  0.45593999997E+02  0.45594000000E+02  0.51100000000E-03 0.  1.
         11   -1    0    0    0    0 -0.00000000000E+00 -0.00000000000E+00 -0.45593999997E+02  0.45594000000E+02  0.51100000000E-03 0. -1.
         23    2    1    2    0    0  0.45796699766E-15  0.15543122345E-14  0.00000000000E+00  0.91188000000E+02  0.91188000000E+02 0.  0.
    9900012    2    3    3    0    0 -0.94446205919E-01  0.15588980939E+01 -0.36787808344E+02  0.54367055877E+02  0.39999935483E+02 0.  0.
        -12    1    3    3    0    0  0.94446205919E-01 -0.15588980939E+01  0.36787808344E+02  0.36820944123E+02  0.00000000000E+00 0.  1.
         11    1    4    4    0    0  0.23262661810E+01 -0.11438995490E+02 -0.34406734712E+02  0.36332981242E+02  0.51100000000E-03 0. -1.
        -11    1    4    4    0    0 -0.38495440204E+01 -0.33721021823E+00  0.13832034820E+01  0.41043820522E+01  0.51100000000E-03 0.  1.
        -12    1    4    4    0    0  0.14288316335E+01  0.13335103802E+02 -0.37642771140E+01  0.13929692583E+02  0.00000000000E+00 0.  1.
</event>
<event>
 8    1  0.2530183E-006  0.9118800E+02  0.7816164E-02  0.1184000E+00
        -11   -1    0    0    0    0  0.00000000000E+00  0.00000000000E+00  0.45593999997E+02  0.45594000000E+02  0.51100000000E-03 0.  1.
         11   -1    0    0    0    0 -0.00000000000E+00 -0.00000000000E+00 -0.45593999997E+02  0.45594000000E+02  0.51100000000E-03 0. -1.
         23    2    1    2    0    0 -0.35527136788E-14 -0.35527136788E-14  0.88817841970E-15  0.91188000000E+02  0.91188000000E+02 0.  0.
    9900012    2    3    3    0    0 -0.30442538899E+02 -0.20306668505E+02 -0.40829390503E+01  0.54367090835E+02  0.40000015177E+02 0.  0.
         12    1    3    3    0    0  0.30442538899E+02  0.20306668505E+02  0.40829390503E+01  0.36820909165E+02  0.00000000000E+00 0. -1.
         11    1    4    4    0    0 -0.40036025552E+00  0.55761839192E+01  0.50030001642E+01  0.75022747443E+01  0.51100000000E-03 0. -1.
        -11    1    4    4    0    0 -0.16667329972E+02 -0.25957130564E+02 -0.27568104791E+00  0.30848800882E+02  0.51100000000E-03 0.  1.
         12    1    4    4    0    0 -0.13374848672E+02  0.74278139724E-01 -0.88102581666E+01  0.16016015210E+02  0.00000000000E+00 0. -1.
</event>
<event>
 8    1  0.2530183E-006  0.9118800E+02  0.7816164E-02  0.1184000E+00
        -11   -1    0    0    0    0  0.00000000000E+00  0.00000000000E+00  0.45593999997E+02  0.45594000000E+02  0.51100000000E-03 0.  1.
         11   -1    0    0    0    0 -0.00000000000E+00 -0.00000000000E+00 -0.45593999997E+02  0.45594000000E+02  0.51100000000E-03 0. -1.
         23    2    1    2    0    0  0.88817841970E-15 -0.44408920985E-15  0.00000000000E+00  0.91188000000E+02  0.91188000000E+02 0.  0.
    9900012    2    3    3    0    0 -0.32732158266E+01  0.21616849093E+01  0.36611374855E+02  0.54367087568E+02  0.40000007730E+02 0.  0.
         12    1    3    3    0    0  0.32732158266E+01 -0.21616849093E+01 -0.36611374855E+02  0.36820912432E+02  0.00000000000E+00 0. -1.
         11    1    4    4    0    0 -0.11610895294E+02  0.40665358789E+01  0.24542177746E+01  0.12544831156E+02  0.51100000000E-03 0. -1.
        -11    1    4    4    0    0 -0.49280600561E+01 -0.49915607430E+00 -0.20911480089E+00  0.49576871587E+01  0.51100000000E-03 0.  1.
        -12    1    4    4    0    0  0.13265739523E+02 -0.14056948953E+01  0.34366271882E+02  0.36864569254E+02  0.00000000000E+00 0.  1.
</event>
<event>
 8    1  0.2530183E-006  0.9118800E+02  0.7816164E-02  0.1184000E+00
        -11   -1    0    0    0    0  0.00000000000E+00  0.00000000000E+00  0.45593999997E+02  0.45594000000E+02  0.51100000000E-03 0. -1.
         11   -1    0    0    0    0 -0.00000000000E+00 -0.00000000000E+00 -0.45593999997E+02  0.45594000000E+02  0.51100000000E-03 0.  1.
         23    2    1    2    0    0  0.17763568394E-14  0.00000000000E+00  0.00000000000E+00  0.91188000000E+02  0.91188000000E+02 0.  0.
    9900012    2    3    3    0    0 -0.15034446602E+02  0.23691602185E+02 -0.23842252126E+02  0.54367087665E+02  0.40000007951E+02 0.  0.
         12    1    3    3    0    0  0.15034446602E+02 -0.23691602185E+02  0.23842252126E+02  0.36820912335E+02  0.00000000000E+00 0. -1.
         11    1    4    4    0    0 -0.11179172519E+02 -0.96042205674E+00 -0.20869529242E+01  0.11412785878E+02  0.51100000000E-03 0. -1.
        -11    1    4    4    0    0 -0.48798084125E+01  0.10500873822E+02 -0.25733722140E+02  0.28218882625E+02  0.51100000000E-03 0.  1.
        -12    1    4    4    0    0  0.10245343293E+01  0.14151150420E+02  0.39784229384E+01  0.14735419162E+02  0.00000000000E+00 0.  1.
</event>
<event>
 8    1  0.2530183E-006  0.9118800E+02  0.7816164E-02  0.1184000E+00
        -11   -1    0    0    0    0  0.00000000000E+00  0.00000000000E+00  0.45593999997E+02  0.45594000000E+02  0.51100000000E-03 0.  1.
         11   -1    0    0    0    0 -0.00000000000E+00 -0.00000000000E+00 -0.45593999997E+02  0.45594000000E+02  0.51100000000E-03 0. -1.
         23    2    1    2    0    0 -0.71054273576E-14  0.00000000000E+00 -0.88817841970E-15  0.91188000000E+02  0.91188000000E+02 0.  0.
    9900012    2    3    3    0    0 -0.32747069991E+02 -0.15469976380E+02 -0.66400358867E+01  0.54367070642E+02  0.39999969143E+02 0.  0.
         12    1    3    3    0    0  0.32747069991E+02  0.15469976380E+02  0.66400358867E+01  0.36820929358E+02  0.00000000000E+00 0. -1.
         11    1    4    4    0    0 -0.28545807623E+02  0.18370588613E+01 -0.57110693737E+01  0.29169405749E+02  0.51100000000E-03 0. -1.
        -11    1    4    4    0    0 -0.49884225021E+01  0.23448390150E+01 -0.28939047822E+00  0.55196355111E+01  0.51100000000E-03 0.  1.
        -12    1    4    4    0    0  0.78716013386E+00 -0.19651874256E+02 -0.63957603481E+00  0.19678029382E+02  0.00000000000E+00 0.  1.
</event>
<event>
 8    1  0.2530183E-006  0.9118800E+02  0.7816164E-02  0.1184000E+00
        -11   -1    0    0    0    0  0.00000000000E+00  0.00000000000E+00  0.45593999997E+02  0.45594000000E+02  0.51100000000E-03 0.  1.
         11   -1    0    0    0    0 -0.00000000000E+00 -0.00000000000E+00 -0.45593999997E+02  0.45594000000E+02  0.51100000000E-03 0. -1.
         23    2    1    2    0    0  0.35527136788E-14  0.00000000000E+00  0.00000000000E+00  0.91188000000E+02  0.91188000000E+02 0.  0.
    9900012    2    3    3    0    0 -0.19222198493E+02 -0.20521448907E+02  0.23772808793E+02  0.54367228443E+02  0.40000328880E+02 0.  0.
         12    1    3    3    0    0  0.19222198493E+02  0.20521448907E+02 -0.23772808793E+02  0.36820771557E+02  0.00000000000E+00 0. -1.
         11    1    4    4    0    0 -0.27537942546E+01  0.81400352194E+01 -0.46177607077E+01  0.97553713607E+01  0.51100000000E-03 0. -1.
        -11    1    4    4    0    0 -0.54007629025E+00 -0.46994965331E+01  0.81824204666E+01  0.94513996327E+01  0.51100000000E-03 0.  1.
         12    1    4    4    0    0 -0.15928327948E+02 -0.23961987594E+02  0.20208149034E+02  0.35160457449E+02  0.00000000000E+00 0. -1.
</event>
<event>
 8    1  0.2530183E-006  0.9118800E+02  0.7816164E-02  0.1184000E+00
        -11   -1    0    0    0    0  0.00000000000E+00  0.00000000000E+00  0.45593999997E+02  0.45594000000E+02  0.51100000000E-03 0.  1.
         11   -1    0    0    0    0 -0.00000000000E+00 -0.00000000000E+00 -0.45593999997E+02  0.45594000000E+02  0.51100000000E-03 0. -1.
         23    2    1    2    0    0 -0.15543122345E-14  0.17763568394E-14 -0.71054273576E-14  0.91188000000E+02  0.91188000000E+02 0.  0.
    9900012    2    3    3    0    0 -0.11568310402E+01 -0.14920328519E+02 -0.33642624339E+02  0.54367073428E+02  0.39999975494E+02 0.  0.
        -12    1    3    3    0    0  0.11568310402E+01  0.14920328519E+02  0.33642624339E+02  0.36820926572E+02  0.00000000000E+00 0.  1.
         11    1    4    4    0    0  0.92492885173E+01  0.78847813949E+01 -0.23621560115E+01  0.12381393177E+02  0.51100000000E-03 0. -1.
        -11    1    4    4    0    0  0.17267880283E+01 -0.10032785722E+02 -0.90497071662E+01  0.13621152165E+02  0.51100000000E-03 0.  1.
         12    1    4    4    0    0 -0.12132907586E+02 -0.12772324192E+02 -0.22230761161E+02  0.28364528087E+02  0.00000000000E+00 0. -1.
</event>
<event>
 8    1  0.2530183E-006  0.9118800E+02  0.7816164E-02  0.1184000E+00
        -11   -1    0    0    0    0  0.00000000000E+00  0.00000000000E+00  0.45593999997E+02  0.45594000000E+02  0.51100000000E-03 0.  1.
         11   -1    0    0    0    0 -0.00000000000E+00 -0.00000000000E+00 -0.45593999997E+02  0.45594000000E+02  0.51100000000E-03 0. -1.
         23    2    1    2    0    0  0.00000000000E+00  0.71054273576E-14  0.88817841970E-15  0.91188000000E+02  0.91188000000E+02 0.  0.
    9900012    2    3    3    0    0  0.12649423646E+02  0.33953163406E+02 -0.65542956581E+01  0.54367027506E+02  0.39999870804E+02 0.  0.
         12    1    3    3    0    0 -0.12649423646E+02 -0.33953163406E+02  0.65542956581E+01  0.36820972494E+02  0.00000000000E+00 0. -1.
         11    1    4    4    0    0  0.17829254147E+02  0.42076226672E+01 -0.25225354935E+01  0.18491878691E+02  0.51100000000E-03 0. -1.
        -11    1    4    4    0    0 -0.32065513865E+01  0.14116198426E+02 -0.11455493082E+02  0.18460155791E+02  0.51100000000E-03 0.  1.
         12    1    4    4    0    0 -0.19732791147E+01  0.15629342313E+02  0.74237329172E+01  0.17414993024E+02  0.00000000000E+00 0. -1.
</event>
<event>
 8    1  0.2530183E-006  0.9118800E+02  0.7816164E-02  0.1184000E+00
        -11   -1    0    0    0    0  0.00000000000E+00  0.00000000000E+00  0.45593999997E+02  0.45594000000E+02  0.51100000000E-03 0.  1.
         11   -1    0    0    0    0 -0.00000000000E+00 -0.00000000000E+00 -0.45593999997E+02  0.45594000000E+02  0.51100000000E-03 0. -1.
         23    2    1    2    0    0  0.00000000000E+00 -0.71054273576E-14  0.00000000000E+00  0.91188000000E+02  0.91188000000E+02 0.  0.
    9900012    2    3    3    0    0  0.11448150008E+02 -0.31471650352E+02  0.15305405450E+02  0.54367077273E+02  0.39999984259E+02 0.  0.
         12    1    3    3    0    0 -0.11448150008E+02  0.31471650352E+02 -0.15305405450E+02  0.36820922727E+02  0.00000000000E+00 0. -1.
         11    1    4    4    0    0  0.11049044960E+02  0.42414996513E+01  0.61644203443E+01  0.13344354321E+02  0.51100000000E-03 0. -1.
        -11    1    4    4    0    0 -0.68073918904E+01 -0.12825229524E+02  0.88910231135E+01  0.17025786001E+02  0.51100000000E-03 0.  1.
         12    1    4    4    0    0  0.72064969383E+01 -0.22887920480E+02  0.24996199185E+00  0.23996936951E+02  0.00000000000E+00 0. -1.
</event>
<event>
 8    1  0.2530183E-006  0.9118800E+02  0.7816164E-02  0.1184000E+00
        -11   -1    0    0    0    0  0.00000000000E+00  0.00000000000E+00  0.45593999997E+02  0.45594000000E+02  0.51100000000E-03 0. -1.
         11   -1    0    0    0    0 -0.00000000000E+00 -0.00000000000E+00 -0.45593999997E+02  0.45594000000E+02  0.51100000000E-03 0.  1.
         23    2    1    2    0    0  0.71054273576E-14  0.66613381478E-15 -0.17763568394E-14  0.91188000000E+02  0.91188000000E+02 0.  0.
    9900012    2    3    3    0    0  0.36188444074E+02 -0.75200780643E+00 -0.67535490624E+01  0.54367089838E+02  0.40000012903E+02 0.  0.
         12    1    3    3    0    0 -0.36188444074E+02  0.75200780643E+00  0.67535490624E+01  0.36820910162E+02  0.00000000000E+00 0. -1.
         11    1    4    4    0    0  0.38832400560E+01 -0.29663240337E+01 -0.43335994464E+01  0.65313640252E+01  0.51100000000E-03 0. -1.
        -11    1    4    4    0    0  0.33022323872E+02  0.52345083270E+01  0.10107825399E+02  0.34929100846E+02  0.51100000000E-03 0.  1.
         12    1    4    4    0    0 -0.71711985453E+00 -0.30201920997E+01 -0.12527775015E+02  0.12906624967E+02  0.00000000000E+00 0. -1.
</event>
<event>
 8    1  0.2530183E-006  0.9118800E+02  0.7816164E-02  0.1184000E+00
        -11   -1    0    0    0    0  0.00000000000E+00  0.00000000000E+00  0.45593999997E+02  0.45594000000E+02  0.51100000000E-03 0. -1.
         11   -1    0    0    0    0 -0.00000000000E+00 -0.00000000000E+00 -0.45593999997E+02  0.45594000000E+02  0.51100000000E-03 0.  1.
         23    2    1    2    0    0 -0.35527136788E-14  0.13322676296E-14  0.00000000000E+00  0.91188000000E+02  0.91188000000E+02 0.  0.
    9900012    2    3    3    0    0 -0.27717987310E+02  0.56053810486E+00  0.24231774911E+02  0.54367082863E+02  0.39999997002E+02 0.  0.
        -12    1    3    3    0    0  0.27717987310E+02 -0.56053810486E+00 -0.24231774911E+02  0.36820917137E+02  0.00000000000E+00 0.  1.
         11    1    4    4    0    0 -0.18093281318E+02  0.79535756096E+01  0.17794343312E+02  0.26594451452E+02  0.51100000000E-03 0. -1.
        -11    1    4    4    0    0  0.44756591351E+01 -0.16668392330E+01 -0.63147608942E+01  0.79174543342E+01  0.51100000000E-03 0.  1.
         12    1    4    4    0    0 -0.14100365127E+02 -0.57261982718E+01  0.12752192493E+02  0.19855177077E+02  0.00000000000E+00 0. -1.
</event>
<event>
 8    1  0.2530183E-006  0.9118800E+02  0.7816164E-02  0.1184000E+00
        -11   -1    0    0    0    0  0.00000000000E+00  0.00000000000E+00  0.45593999997E+02  0.45594000000E+02  0.51100000000E-03 0.  1.
         11   -1    0    0    0    0 -0.00000000000E+00 -0.00000000000E+00 -0.45593999997E+02  0.45594000000E+02  0.51100000000E-03 0. -1.
         23    2    1    2    0    0  0.00000000000E+00  0.00000000000E+00 -0.35527136788E-14  0.91188000000E+02  0.91188000000E+02 0.  0.
    9900012    2    3    3    0    0 -0.17050189516E+02  0.20741907732E+02  0.25196143998E+02  0.54367063412E+02  0.39999952659E+02 0.  0.
         12    1    3    3    0    0  0.17050189516E+02 -0.20741907732E+02 -0.25196143998E+02  0.36820936588E+02  0.00000000000E+00 0. -1.
         11    1    4    4    0    0 -0.11700824068E+02  0.10831368112E+01  0.96227188904E+00  0.11790183911E+02  0.51100000000E-03 0. -1.
        -11    1    4    4    0    0 -0.16597117822E+02  0.13411790812E+02  0.19379581178E+02  0.28825485593E+02  0.51100000000E-03 0.  1.
         12    1    4    4    0    0  0.11247752374E+02  0.62469801088E+01  0.48542909312E+01  0.13751393907E+02  0.00000000000E+00 0. -1.
</event>
<event>
 8    1  0.2530183E-006  0.9118800E+02  0.7816164E-02  0.1184000E+00
        -11   -1    0    0    0    0  0.00000000000E+00  0.00000000000E+00  0.45593999997E+02  0.45594000000E+02  0.51100000000E-03 0.  1.
         11   -1    0    0    0    0 -0.00000000000E+00 -0.00000000000E+00 -0.45593999997E+02  0.45594000000E+02  0.51100000000E-03 0. -1.
         23    2    1    2    0    0  0.71054273576E-14  0.00000000000E+00 -0.35527136788E-14  0.91188000000E+02  0.91188000000E+02 0.  0.
    9900012    2    3    3    0    0 -0.18976743010E+02 -0.25836819783E+02  0.18114125083E+02  0.54367088017E+02  0.40000008753E+02 0.  0.
         12    1    3    3    0    0  0.18976743010E+02  0.25836819783E+02 -0.18114125083E+02  0.36820911983E+02  0.00000000000E+00 0. -1.
         11    1    4    4    0    0  0.13751727459E+01  0.18339312134E+01  0.14849168707E+01  0.27311869490E+01  0.51100000000E-03 0. -1.
        -11    1    4    4    0    0  0.39849500307E+01 -0.16115854480E+02  0.18219260598E+02  0.24648368087E+02  0.51100000000E-03 0.  1.
        -12    1    4    4    0    0 -0.24336865786E+02 -0.11554896516E+02 -0.15900523862E+01  0.26987532981E+02  0.00000000000E+00 0.  1.
</event>
<event>
 8    1  0.2530183E-006  0.9118800E+02  0.7816164E-02  0.1184000E+00
        -11   -1    0    0    0    0  0.00000000000E+00  0.00000000000E+00  0.45593999997E+02  0.45594000000E+02  0.51100000000E-03 0.  1.
         11   -1    0    0    0    0 -0.00000000000E+00 -0.00000000000E+00 -0.45593999997E+02  0.45594000000E+02  0.51100000000E-03 0. -1.
         23    2    1    2    0    0 -0.53290705182E-14  0.00000000000E+00 -0.35527136788E-14  0.91188000000E+02  0.91188000000E+02 0.  0.
    9900012    2    3    3    0    0  0.14516133885E+02 -0.13616007290E+02 -0.30978520577E+02  0.54367047613E+02  0.39999916644E+02 0.  0.
        -12    1    3    3    0    0 -0.14516133885E+02  0.13616007290E+02  0.30978520577E+02  0.36820952387E+02  0.00000000000E+00 0.  1.
         11    1    4    4    0    0 -0.83013859050E+01 -0.14287598139E+02 -0.74111616553E+01  0.18110046545E+02  0.51100000000E-03 0. -1.
        -11    1    4    4    0    0  0.71550100740E+01 -0.22807656031E+01  0.34735126127E+00  0.75177599094E+01  0.51100000000E-03 0.  1.
         12    1    4    4    0    0  0.15662509716E+02  0.29523564521E+01 -0.23914710183E+02  0.28739241159E+02  0.00000000000E+00 0. -1.
</event>
<event>
 8    1  0.2530183E-006  0.9118800E+02  0.7816164E-02  0.1184000E+00
        -11   -1    0    0    0    0  0.00000000000E+00  0.00000000000E+00  0.45593999997E+02  0.45594000000E+02  0.51100000000E-03 0. -1.
         11   -1    0    0    0    0 -0.00000000000E+00 -0.00000000000E+00 -0.45593999997E+02  0.45594000000E+02  0.51100000000E-03 0.  1.
         23    2    1    2    0    0  0.00000000000E+00 -0.35527136788E-14 -0.35527136788E-14  0.91188000000E+02  0.91188000000E+02 0.  0.
    9900012    2    3    3    0    0  0.18822188732E+02 -0.19516315670E+02 -0.24912209481E+02  0.54367088180E+02  0.40000009124E+02 0.  0.
         12    1    3    3    0    0 -0.18822188732E+02  0.19516315670E+02  0.24912209481E+02  0.36820911820E+02  0.00000000000E+00 0. -1.
         11    1    4    4    0    0  0.55075321029E+01 -0.47355808311E+01  0.10321085111E+02  0.12620754090E+02  0.51100000000E-03 0. -1.
        -11    1    4    4    0    0  0.23787491054E+00 -0.60609615098E+01 -0.14589582366E+02  0.15800245339E+02  0.51100000000E-03 0.  1.
        -12    1    4    4    0    0  0.13076781718E+02 -0.87197733295E+01 -0.20643712226E+02  0.25946088752E+02  0.00000000000E+00 0.  1.
</event>
<event>
 8    1  0.2530183E-006  0.9118800E+02  0.7816164E-02  0.1184000E+00
        -11   -1    0    0    0    0  0.00000000000E+00  0.00000000000E+00  0.45593999997E+02  0.45594000000E+02  0.51100000000E-03 0.  1.
         11   -1    0    0    0    0 -0.00000000000E+00 -0.00000000000E+00 -0.45593999997E+02  0.45594000000E+02  0.51100000000E-03 0. -1.
         23    2    1    2    0    0 -0.35527136788E-14 -0.35527136788E-14 -0.35527136788E-14  0.91188000000E+02  0.91188000000E+02 0.  0.
    9900012    2    3    3    0    0 -0.27656751925E+02  0.70991787770E+01 -0.23248339184E+02  0.54367088263E+02  0.40000009313E+02 0.  0.
        -12    1    3    3    0    0  0.27656751925E+02 -0.70991787770E+01  0.23248339184E+02  0.36820911737E+02  0.00000000000E+00 0.  1.
         11    1    4    4    0    0 -0.99994048289E+01 -0.97042045649E+01 -0.38201484025E+00  0.13939355034E+02  0.51100000000E-03 0. -1.
        -11    1    4    4    0    0  0.38224976450E+01 -0.20734312853E+01 -0.53466613450E+01  0.68918352665E+01  0.51100000000E-03 0.  1.
         12    1    4    4    0    0 -0.21479844741E+02  0.18876814627E+02 -0.17519662999E+02  0.33535897962E+02  0.00000000000E+00 0. -1.
</event>
<event>
 8    1  0.2530183E-006  0.9118800E+02  0.7816164E-02  0.1184000E+00
        -11   -1    0    0    0    0  0.00000000000E+00  0.00000000000E+00  0.45593999997E+02  0.45594000000E+02  0.51100000000E-03 0.  1.
         11   -1    0    0    0    0 -0.00000000000E+00 -0.00000000000E+00 -0.45593999997E+02  0.45594000000E+02  0.51100000000E-03 0. -1.
         23    2    1    2    0    0  0.00000000000E+00  0.00000000000E+00 -0.35527136788E-14  0.91188000000E+02  0.91188000000E+02 0.  0.
    9900012    2    3    3    0    0  0.19634244688E+02  0.12338328374E+02 -0.28601424425E+02  0.54367090307E+02  0.40000013972E+02 0.  0.
        -12    1    3    3    0    0 -0.19634244688E+02 -0.12338328374E+02  0.28601424425E+02  0.36820909693E+02  0.00000000000E+00 0.  1.
         11    1    4    4    0    0 -0.64864645309E+01  0.15437924397E+01 -0.12659524634E+02  0.14308077489E+02  0.51100000000E-03 0. -1.
        -11    1    4    4    0    0  0.15728845878E+01 -0.32822292706E+01 -0.10671168687E+02  0.11274787640E+02  0.51100000000E-03 0.  1.
        -12    1    4    4    0    0  0.24547824631E+02  0.14076765205E+02 -0.52707311041E+01  0.28784225178E+02  0.00000000000E+00 0.  1.
</event>
<event>
 8    1  0.2530183E-006  0.9118800E+02  0.7816164E-02  0.1184000E+00
        -11   -1    0    0    0    0  0.00000000000E+00  0.00000000000E+00  0.45593999997E+02  0.45594000000E+02  0.51100000000E-03 0. -1.
         11   -1    0    0    0    0 -0.00000000000E+00 -0.00000000000E+00 -0.45593999997E+02  0.45594000000E+02  0.51100000000E-03 0.  1.
         23    2    1    2    0    0 -0.17763568394E-14  0.00000000000E+00  0.00000000000E+00  0.91188000000E+02  0.91188000000E+02 0.  0.
    9900012    2    3    3    0    0  0.15273757427E+02 -0.12541480922E+02  0.31067717834E+02  0.54367088807E+02  0.40000010553E+02 0.  0.
        -12    1    3    3    0    0 -0.15273757427E+02  0.12541480922E+02 -0.31067717834E+02  0.36820911193E+02  0.00000000000E+00 0.  1.
         11    1    4    4    0    0  0.13543528424E+02  0.21894360858E-02 -0.22919257181E+00  0.13545467746E+02  0.51100000000E-03 0. -1.
        -11    1    4    4    0    0 -0.43923382616E+01 -0.48750383735E+01 -0.13779723272E+01  0.67050311366E+01  0.51100000000E-03 0.  1.
         12    1    4    4    0    0  0.61225672643E+01 -0.76686319848E+01  0.32674882733E+02  0.34116589924E+02  0.00000000000E+00 0. -1.
</event>
<event>
 8    1  0.2530183E-006  0.9118800E+02  0.7816164E-02  0.1184000E+00
        -11   -1    0    0    0    0  0.00000000000E+00  0.00000000000E+00  0.45593999997E+02  0.45594000000E+02  0.51100000000E-03 0.  1.
         11   -1    0    0    0    0 -0.00000000000E+00 -0.00000000000E+00 -0.45593999997E+02  0.45594000000E+02  0.51100000000E-03 0. -1.
         23    2    1    2    0    0 -0.35527136788E-14 -0.17763568394E-14  0.35527136788E-14  0.91188000000E+02  0.91188000000E+02 0.  0.
    9900012    2    3    3    0    0 -0.22875713964E+02  0.31742614975E+01  0.28677615970E+02  0.54367083619E+02  0.39999998727E+02 0.  0.
         12    1    3    3    0    0  0.22875713964E+02 -0.31742614975E+01 -0.28677615970E+02  0.36820916381E+02  0.00000000000E+00 0. -1.
         11    1    4    4    0    0 -0.78611311705E+01  0.17020684338E+02  0.31669992539E+01  0.19013967581E+02  0.51100000000E-03 0. -1.
        -11    1    4    4    0    0 -0.19420781676E+01 -0.67540619086E+01  0.16573444451E+02  0.18001891042E+02  0.51100000000E-03 0.  1.
         12    1    4    4    0    0 -0.13072504626E+02 -0.70923609324E+01  0.89371722650E+01  0.17351224996E+02  0.00000000000E+00 0. -1.
</event>
<event>
 8    1  0.2530183E-006  0.9118800E+02  0.7816164E-02  0.1184000E+00
        -11   -1    0    0    0    0  0.00000000000E+00  0.00000000000E+00  0.45593999997E+02  0.45594000000E+02  0.51100000000E-03 0.  1.
         11   -1    0    0    0    0 -0.00000000000E+00 -0.00000000000E+00 -0.45593999997E+02  0.45594000000E+02  0.51100000000E-03 0. -1.
         23    2    1    2    0    0  0.35527136788E-14 -0.35527136788E-14  0.00000000000E+00  0.91188000000E+02  0.91188000000E+02 0.  0.
    9900012    2    3    3    0    0  0.85582800336E+01 -0.18314343580E+02  0.30775310794E+02  0.54367094357E+02  0.40000023205E+02 0.  0.
         12    1    3    3    0    0 -0.85582800336E+01  0.18314343580E+02 -0.30775310794E+02  0.36820905643E+02  0.00000000000E+00 0. -1.
         11    1    4    4    0    0 -0.54816675162E+01 -0.16003611360E+02  0.20914362333E+02  0.26899345854E+02  0.51100000000E-03 0. -1.
        -11    1    4    4    0    0  0.18413104859E+02 -0.57901853371E+01  0.10270289424E+02  0.21864297882E+02  0.51100000000E-03 0.  1.
        -12    1    4    4    0    0 -0.43731573089E+01  0.34794531166E+01 -0.40934096196E+00  0.56034506210E+01  0.00000000000E+00 0.  1.
</event>
<event>
 8    1  0.2530183E-006  0.9118800E+02  0.7816164E-02  0.1184000E+00
        -11   -1    0    0    0    0  0.00000000000E+00  0.00000000000E+00  0.45593999997E+02  0.45594000000E+02  0.51100000000E-03 0.  1.
         11   -1    0    0    0    0 -0.00000000000E+00 -0.00000000000E+00 -0.45593999997E+02  0.45594000000E+02  0.51100000000E-03 0. -1.
         23    2    1    2    0    0  0.44408920985E-15 -0.71054273576E-14  0.00000000000E+00  0.91188000000E+02  0.91188000000E+02 0.  0.
    9900012    2    3    3    0    0  0.34137731093E+01  0.32865071550E+02  0.16248485242E+02  0.54367081387E+02  0.39999993638E+02 0.  0.
        -12    1    3    3    0    0 -0.34137731093E+01 -0.32865071550E+02 -0.16248485242E+02  0.36820918613E+02  0.00000000000E+00 0.  1.
         11    1    4    4    0    0 -0.65402446894E+00 -0.24771244408E+01 -0.36011412306E+00  0.25871946088E+01  0.51100000000E-03 0. -1.
        -11    1    4    4    0    0  0.45286578002E+01  0.33616118422E+00 -0.78530419759E+01  0.90714946040E+01  0.51100000000E-03 0.  1.
         12    1    4    4    0    0 -0.46086022189E+00  0.35006034806E+02  0.24461641341E+02  0.42708392174E+02  0.00000000000E+00 0. -1.
</event>
<event>
 8    1  0.2530183E-006  0.9118800E+02  0.7816164E-02  0.1184000E+00
        -11   -1    0    0    0    0  0.00000000000E+00  0.00000000000E+00  0.45593999997E+02  0.45594000000E+02  0.51100000000E-03 0.  1.
         11   -1    0    0    0    0 -0.00000000000E+00 -0.00000000000E+00 -0.45593999997E+02  0.45594000000E+02  0.51100000000E-03 0. -1.
         23    2    1    2    0    0  0.00000000000E+00 -0.35527136788E-14  0.88817841970E-15  0.91188000000E+02  0.91188000000E+02 0.  0.
    9900012    2    3    3    0    0  0.19015217065E+02 -0.31128417799E+02  0.50222638667E+01  0.54367081909E+02  0.39999994827E+02 0.  0.
         12    1    3    3    0    0 -0.19015217065E+02  0.31128417799E+02 -0.50222638667E+01  0.36820918091E+02  0.00000000000E+00 0. -1.
         11    1    4    4    0    0 -0.92802691459E+00 -0.24991603925E+02  0.12167107025E+02  0.27811508307E+02  0.51100000000E-03 0. -1.
        -11    1    4    4    0    0  0.76608693571E+01 -0.10006148238E+02 -0.23797624973E+01  0.12824788173E+02  0.51100000000E-03 0.  1.
         12    1    4    4    0    0  0.12282374623E+02  0.38693343637E+01 -0.47650806605E+01  0.13730785429E+02  0.00000000000E+00 0. -1.
</event>
<event>
 8    1  0.2530183E-006  0.9118800E+02  0.7816164E-02  0.1184000E+00
        -11   -1    0    0    0    0  0.00000000000E+00  0.00000000000E+00  0.45593999997E+02  0.45594000000E+02  0.51100000000E-03 0.  1.
         11   -1    0    0    0    0 -0.00000000000E+00 -0.00000000000E+00 -0.45593999997E+02  0.45594000000E+02  0.51100000000E-03 0. -1.
         23    2    1    2    0    0 -0.17763568394E-14  0.71054273576E-14  0.66613381478E-15  0.91188000000E+02  0.91188000000E+02 0.  0.
    9900012    2    3    3    0    0  0.98557957294E+01 -0.35439685437E+02 -0.16337984087E+01  0.54367118552E+02  0.40000078364E+02 0.  0.
         12    1    3    3    0    0 -0.98557957294E+01  0.35439685437E+02  0.16337984087E+01  0.36820881448E+02  0.00000000000E+00 0. -1.
         11    1    4    4    0    0  0.18495132932E+01 -0.19737452831E+02 -0.67952532201E+01  0.20956221278E+02  0.51100000000E-03 0. -1.
        -11    1    4    4    0    0 -0.82618400209E+01  0.12065659011E+01 -0.25201125228E+01  0.87215118639E+01  0.51100000000E-03 0.  1.
        -12    1    4    4    0    0  0.16268122457E+02 -0.16908798507E+02  0.76815673342E+01  0.24689385411E+02  0.00000000000E+00 0.  1.
</event>
<event>
 8    1  0.2530183E-006  0.9118800E+02  0.7816164E-02  0.1184000E+00
        -11   -1    0    0    0    0  0.00000000000E+00  0.00000000000E+00  0.45593999997E+02  0.45594000000E+02  0.51100000000E-03 0.  1.
         11   -1    0    0    0    0 -0.00000000000E+00 -0.00000000000E+00 -0.45593999997E+02  0.45594000000E+02  0.51100000000E-03 0. -1.
         23    2    1    2    0    0  0.00000000000E+00  0.00000000000E+00  0.11102230246E-15  0.91188000000E+02  0.91188000000E+02 0.  0.
    9900012    2    3    3    0    0 -0.32900975170E+02 -0.16526813375E+02 -0.41267015035E+00  0.54367081704E+02  0.39999994361E+02 0.  0.
        -12    1    3    3    0    0  0.32900975170E+02  0.16526813375E+02  0.41267015035E+00  0.36820918296E+02  0.00000000000E+00 0.  1.
         11    1    4    4    0    0 -0.15918735051E+02 -0.15807686586E+02 -0.44710330900E+01  0.22875297112E+02  0.51100000000E-03 0. -1.
        -11    1    4    4    0    0 -0.37603602313E+01 -0.10572560473E+02  0.88819406733E+01  0.14311122053E+02  0.51100000000E-03 0.  1.
         12    1    4    4    0    0 -0.13221879888E+02  0.98534336837E+01 -0.48235777336E+01  0.17180662539E+02  0.00000000000E+00 0. -1.
</event>
<event>
 8    1  0.2530183E-006  0.9118800E+02  0.7816164E-02  0.1184000E+00
        -11   -1    0    0    0    0  0.00000000000E+00  0.00000000000E+00  0.45593999997E+02  0.45594000000E+02  0.51100000000E-03 0. -1.
         11   -1    0    0    0    0 -0.00000000000E+00 -0.00000000000E+00 -0.45593999997E+02  0.45594000000E+02  0.51100000000E-03 0.  1.
         23    2    1    2    0    0  0.35527136788E-14 -0.35527136788E-14 -0.17763568394E-14  0.91188000000E+02  0.91188000000E+02 0.  0.
    9900012    2    3    3    0    0  0.25924527668E+02 -0.24908278927E+02 -0.79545583418E+01  0.54367102505E+02  0.40000041781E+02 0.  0.
        -12    1    3    3    0    0 -0.25924527668E+02  0.24908278927E+02  0.79545583418E+01  0.36820897495E+02  0.00000000000E+00 0.  1.
         11    1    4    4    0    0  0.63778447978E+01 -0.19638804482E+02 -0.17302909002E+01  0.20720845847E+02  0.51100000000E-03 0. -1.
        -11    1    4    4    0    0  0.18356501428E+02 -0.12940225505E+02 -0.10490825524E+02  0.24788465084E+02  0.51100000000E-03 0.  1.
         12    1    4    4    0    0  0.11901814422E+01  0.76707510604E+01  0.42665580827E+01  0.88577915740E+01  0.00000000000E+00 0. -1.
</event>
<event>
 8    1  0.2530183E-006  0.9118800E+02  0.7816164E-02  0.1184000E+00
        -11   -1    0    0    0    0  0.00000000000E+00  0.00000000000E+00  0.45593999997E+02  0.45594000000E+02  0.51100000000E-03 0.  1.
         11   -1    0    0    0    0 -0.00000000000E+00 -0.00000000000E+00 -0.45593999997E+02  0.45594000000E+02  0.51100000000E-03 0. -1.
         23    2    1    2    0    0 -0.35527136788E-14  0.00000000000E+00  0.00000000000E+00  0.91188000000E+02  0.91188000000E+02 0.  0.
    9900012    2    3    3    0    0 -0.28632401274E+02  0.20352698307E+02 -0.11033351472E+02  0.54367060634E+02  0.39999946327E+02 0.  0.
         12    1    3    3    0    0  0.28632401274E+02 -0.20352698307E+02  0.11033351472E+02  0.36820939366E+02  0.00000000000E+00 0. -1.
         11    1    4    4    0    0 -0.15194091805E+02  0.17902117452E+02 -0.15167744282E+02  0.27953652747E+02  0.51100000000E-03 0. -1.
        -11    1    4    4    0    0  0.25255445259E+01  0.85595109784E+01  0.49884386222E+00  0.89382575931E+01  0.51100000000E-03 0.  1.
         12    1    4    4    0    0 -0.15963853996E+02 -0.61089301233E+01  0.36355489479E+01  0.17475150294E+02  0.00000000000E+00 0. -1.
</event>
<event>
 8    1  0.2530183E-006  0.9118800E+02  0.7816164E-02  0.1184000E+00
        -11   -1    0    0    0    0  0.00000000000E+00  0.00000000000E+00  0.45593999997E+02  0.45594000000E+02  0.51100000000E-03 0.  1.
         11   -1    0    0    0    0 -0.00000000000E+00 -0.00000000000E+00 -0.45593999997E+02  0.45594000000E+02  0.51100000000E-03 0. -1.
         23    2    1    2    0    0  0.00000000000E+00  0.17763568394E-14  0.35527136788E-14  0.91188000000E+02  0.91188000000E+02 0.  0.
    9900012    2    3    3    0    0  0.16272988630E+02  0.15116211667E+02 -0.29367786563E+02  0.54367124104E+02  0.40000091019E+02 0.  0.
         12    1    3    3    0    0 -0.16272988630E+02 -0.15116211667E+02  0.29367786563E+02  0.36820875896E+02  0.00000000000E+00 0. -1.
         11    1    4    4    0    0 -0.33154172018E+01 -0.22713926956E+01 -0.47796142628E+01  0.62446720300E+01  0.51100000000E-03 0. -1.
        -11    1    4    4    0    0  0.64614271448E+01 -0.66465177346E+01  0.25025384747E+01  0.96015070600E+01  0.51100000000E-03 0.  1.
         12    1    4    4    0    0  0.13126978687E+02  0.24034122098E+02 -0.27090710775E+02  0.38520945014E+02  0.00000000000E+00 0. -1.
</event>
<event>
 8    1  0.2530183E-006  0.9118800E+02  0.7816164E-02  0.1184000E+00
        -11   -1    0    0    0    0  0.00000000000E+00  0.00000000000E+00  0.45593999997E+02  0.45594000000E+02  0.51100000000E-03 0.  1.
         11   -1    0    0    0    0 -0.00000000000E+00 -0.00000000000E+00 -0.45593999997E+02  0.45594000000E+02  0.51100000000E-03 0. -1.
         23    2    1    2    0    0  0.00000000000E+00  0.17763568394E-14  0.35527136788E-14  0.91188000000E+02  0.91188000000E+02 0.  0.
    9900012    2    3    3    0    0  0.25724886837E+02  0.15281703472E+02  0.21458770843E+02  0.54367094119E+02  0.40000022663E+02 0.  0.
         12    1    3    3    0    0 -0.25724886837E+02 -0.15281703472E+02 -0.21458770843E+02  0.36820905881E+02  0.00000000000E+00 0. -1.
         11    1    4    4    0    0  0.27759053477E+02  0.17909345297E+02  0.95153719469E+01  0.34378074443E+02  0.51100000000E-03 0. -1.
        -11    1    4    4    0    0 -0.24438510115E+01  0.48155221148E+01  0.11278926986E+02  0.12505033195E+02  0.51100000000E-03 0.  1.
         12    1    4    4    0    0  0.40968437244E+00 -0.74431639397E+01  0.66447191007E+00  0.74839864803E+01  0.00000000000E+00 0. -1.
</event>
<event>
 8    1  0.2530183E-006  0.9118800E+02  0.7816164E-02  0.1184000E+00
        -11   -1    0    0    0    0  0.00000000000E+00  0.00000000000E+00  0.45593999997E+02  0.45594000000E+02  0.51100000000E-03 0.  1.
         11   -1    0    0    0    0 -0.00000000000E+00 -0.00000000000E+00 -0.45593999997E+02  0.45594000000E+02  0.51100000000E-03 0. -1.
         23    2    1    2    0    0  0.00000000000E+00  0.00000000000E+00  0.00000000000E+00  0.91188000000E+02  0.91188000000E+02 0.  0.
    9900012    2    3    3    0    0  0.16130952270E+02  0.32366535571E+02  0.69268227432E+01  0.54367066832E+02  0.39999960458E+02 0.  0.
        -12    1    3    3    0    0 -0.16130952270E+02 -0.32366535571E+02 -0.69268227432E+01  0.36820933168E+02  0.00000000000E+00 0.  1.
         11    1    4    4    0    0  0.60607370509E+00  0.29430379120E+02 -0.34389517603E+01  0.29636817136E+02  0.51100000000E-03 0. -1.
        -11    1    4    4    0    0  0.35377976087E+01  0.42956401113E+01  0.11335072555E+02  0.12627446534E+02  0.51100000000E-03 0.  1.
        -12    1    4    4    0    0  0.11987080957E+02 -0.13594836601E+01 -0.96929805128E+00  0.12102803163E+02  0.00000000000E+00 0.  1.
</event>
<event>
 8    1  0.2530183E-006  0.9118800E+02  0.7816164E-02  0.1184000E+00
        -11   -1    0    0    0    0  0.00000000000E+00  0.00000000000E+00  0.45593999997E+02  0.45594000000E+02  0.51100000000E-03 0.  1.
         11   -1    0    0    0    0 -0.00000000000E+00 -0.00000000000E+00 -0.45593999997E+02  0.45594000000E+02  0.51100000000E-03 0. -1.
         23    2    1    2    0    0 -0.35527136788E-14  0.00000000000E+00  0.35527136788E-14  0.91188000000E+02  0.91188000000E+02 0.  0.
    9900012    2    3    3    0    0 -0.25669916542E+02  0.65969859993E+01  0.25560029612E+02  0.54367082666E+02  0.39999996554E+02 0.  0.
         12    1    3    3    0    0  0.25669916542E+02 -0.65969859993E+01 -0.25560029612E+02  0.36820917334E+02  0.00000000000E+00 0. -1.
         11    1    4    4    0    0 -0.17417865778E+02  0.23980172822E+01 -0.41298790140E+01  0.18060687586E+02  0.51100000000E-03 0. -1.
        -11    1    4    4    0    0 -0.11709632033E+02  0.89595412454E+01  0.23686439611E+02  0.27900471024E+02  0.51100000000E-03 0.  1.
        -12    1    4    4    0    0  0.34575812683E+01 -0.47605725283E+01  0.60034690155E+01  0.84059240565E+01  0.00000000000E+00 0.  1.
</event>
<event>
 8    1  0.2530183E-006  0.9118800E+02  0.7816164E-02  0.1184000E+00
        -11   -1    0    0    0    0  0.00000000000E+00  0.00000000000E+00  0.45593999997E+02  0.45594000000E+02  0.51100000000E-03 0. -1.
         11   -1    0    0    0    0 -0.00000000000E+00 -0.00000000000E+00 -0.45593999997E+02  0.45594000000E+02  0.51100000000E-03 0.  1.
         23    2    1    2    0    0  0.17763568394E-14  0.00000000000E+00  0.35527136788E-14  0.91188000000E+02  0.91188000000E+02 0.  0.
    9900012    2    3    3    0    0 -0.62973428620E+01  0.29017875535E+02 -0.21773518180E+02  0.54367085812E+02  0.40000003726E+02 0.  0.
         12    1    3    3    0    0  0.62973428620E+01 -0.29017875535E+02  0.21773518180E+02  0.36820914188E+02  0.00000000000E+00 0. -1.
         11    1    4    4    0    0  0.77594043160E+00  0.33551653282E+01 -0.51509804655E+01  0.61961131325E+01  0.51100000000E-03 0. -1.
        -11    1    4    4    0    0  0.95485186937E+00  0.66213941898E+01 -0.24994984601E+02  0.25874772628E+02  0.51100000000E-03 0.  1.
         12    1    4    4    0    0 -0.80281351630E+01  0.19041316017E+02  0.83724468865E+01  0.22296200051E+02  0.00000000000E+00 0. -1.
</event>
<event>
 8    1  0.2530183E-006  0.9118800E+02  0.7816164E-02  0.1184000E+00
        -11   -1    0    0    0    0  0.00000000000E+00  0.00000000000E+00  0.45593999997E+02  0.45594000000E+02  0.51100000000E-03 0.  1.
         11   -1    0    0    0    0 -0.00000000000E+00 -0.00000000000E+00 -0.45593999997E+02  0.45594000000E+02  0.51100000000E-03 0. -1.
         23    2    1    2    0    0  0.17763568394E-14 -0.35527136788E-14  0.00000000000E+00  0.91188000000E+02  0.91188000000E+02 0.  0.
    9900012    2    3    3    0    0  0.12624591401E+02 -0.30020860730E+02 -0.17179859949E+02  0.54367082373E+02  0.39999995885E+02 0.  0.
        -12    1    3    3    0    0 -0.12624591401E+02  0.30020860730E+02  0.17179859949E+02  0.36820917627E+02  0.00000000000E+00 0.  1.
         11    1    4    4    0    0 -0.40856454641E+01  0.52903683568E+00 -0.49968229309E+01  0.64761576955E+01  0.51100000000E-03 0. -1.
        -11    1    4    4    0    0  0.22787489280E+02 -0.32498584260E+02 -0.12147091531E+02  0.41508787979E+02  0.51100000000E-03 0.  1.
        -12    1    4    4    0    0 -0.60772524157E+01  0.19486866936E+01 -0.35945487681E-01  0.63821366980E+01  0.00000000000E+00 0.  1.
</event>
<event>
 8    1  0.2530183E-006  0.9118800E+02  0.7816164E-02  0.1184000E+00
        -11   -1    0    0    0    0  0.00000000000E+00  0.00000000000E+00  0.45593999997E+02  0.45594000000E+02  0.51100000000E-03 0.  1.
         11   -1    0    0    0    0 -0.00000000000E+00 -0.00000000000E+00 -0.45593999997E+02  0.45594000000E+02  0.51100000000E-03 0. -1.
         23    2    1    2    0    0  0.00000000000E+00  0.35527136788E-14 -0.35527136788E-14  0.91188000000E+02  0.91188000000E+02 0.  0.
    9900012    2    3    3    0    0  0.18540139275E+02  0.23928166946E+02 -0.20963910998E+02  0.54367088794E+02  0.40000010523E+02 0.  0.
        -12    1    3    3    0    0 -0.18540139275E+02 -0.23928166946E+02  0.20963910998E+02  0.36820911206E+02  0.00000000000E+00 0.  1.
         11    1    4    4    0    0 -0.70173260444E+01 -0.42306845692E+01 -0.72644528339E+01  0.10950517430E+02  0.51100000000E-03 0. -1.
        -11    1    4    4    0    0  0.13370093698E+02  0.11781879794E+02  0.16193426256E+01  0.17893975739E+02  0.51100000000E-03 0.  1.
         12    1    4    4    0    0  0.12187371621E+02  0.16376971721E+02 -0.15318800789E+02  0.25522595625E+02  0.00000000000E+00 0. -1.
</event>
<event>
 8    1  0.2530183E-006  0.9118800E+02  0.7816164E-02  0.1184000E+00
        -11   -1    0    0    0    0  0.00000000000E+00  0.00000000000E+00  0.45593999997E+02  0.45594000000E+02  0.51100000000E-03 0.  1.
         11   -1    0    0    0    0 -0.00000000000E+00 -0.00000000000E+00 -0.45593999997E+02  0.45594000000E+02  0.51100000000E-03 0. -1.
         23    2    1    2    0    0  0.88817841970E-15  0.00000000000E+00  0.71054273576E-14  0.91188000000E+02  0.91188000000E+02 0.  0.
    9900012    2    3    3    0    0 -0.15343260179E+01 -0.53869800616E+01  0.36392369502E+02  0.54367105545E+02  0.40000048711E+02 0.  0.
         12    1    3    3    0    0  0.15343260179E+01  0.53869800616E+01 -0.36392369502E+02  0.36820894455E+02  0.00000000000E+00 0. -1.
         11    1    4    4    0    0  0.26343337993E+01 -0.84578707912E+01 -0.20999618437E+01  0.91041272450E+01  0.51100000000E-03 0. -1.
        -11    1    4    4    0    0 -0.56736736407E+01  0.12238315703E+02  0.16000513199E+02  0.20928052149E+02  0.51100000000E-03 0.  1.
        -12    1    4    4    0    0  0.15050138235E+01 -0.91674249739E+01  0.22491818146E+02  0.24334926151E+02  0.00000000000E+00 0.  1.
</event>
<event>
 8    1  0.2530183E-006  0.9118800E+02  0.7816164E-02  0.1184000E+00
        -11   -1    0    0    0    0  0.00000000000E+00  0.00000000000E+00  0.45593999997E+02  0.45594000000E+02  0.51100000000E-03 0.  1.
         11   -1    0    0    0    0 -0.00000000000E+00 -0.00000000000E+00 -0.45593999997E+02  0.45594000000E+02  0.51100000000E-03 0. -1.
         23    2    1    2    0    0 -0.35527136788E-14  0.00000000000E+00  0.00000000000E+00  0.91188000000E+02  0.91188000000E+02 0.  0.
    9900012    2    3    3    0    0 -0.27472764092E+02  0.18504660719E+01 -0.24445930874E+02  0.54367074865E+02  0.39999978770E+02 0.  0.
        -12    1    3    3    0    0  0.27472764092E+02 -0.18504660719E+01  0.24445930874E+02  0.36820925135E+02  0.00000000000E+00 0.  1.
         11    1    4    4    0    0 -0.32136999947E+02  0.11142123543E+02 -0.17906030566E+02  0.38439037625E+02  0.51100000000E-03 0. -1.
        -11    1    4    4    0    0  0.25732811906E+01 -0.11302292556E+02 -0.56401564049E+01  0.12890886612E+02  0.51100000000E-03 0.  1.
         12    1    4    4    0    0  0.20909546644E+01  0.20106350846E+01 -0.89974390288E+00  0.30371506289E+01  0.00000000000E+00 0. -1.
</event>
<event>
 8    1  0.2530183E-006  0.9118800E+02  0.7816164E-02  0.1184000E+00
        -11   -1    0    0    0    0  0.00000000000E+00  0.00000000000E+00  0.45593999997E+02  0.45594000000E+02  0.51100000000E-03 0.  1.
         11   -1    0    0    0    0 -0.00000000000E+00 -0.00000000000E+00 -0.45593999997E+02  0.45594000000E+02  0.51100000000E-03 0. -1.
         23    2    1    2    0    0  0.00000000000E+00  0.17763568394E-14  0.00000000000E+00  0.91188000000E+02  0.91188000000E+02 0.  0.
    9900012    2    3    3    0    0 -0.27653866403E+01  0.85000545872E+01 -0.35719566428E+02  0.54367004399E+02  0.39999818128E+02 0.  0.
        -12    1    3    3    0    0  0.27653866403E+01 -0.85000545872E+01  0.35719566428E+02  0.36820995601E+02  0.00000000000E+00 0.  1.
         11    1    4    4    0    0  0.95998331480E+01  0.53458030486E+01 -0.36502702782E+02  0.38120620631E+02  0.51100000000E-03 0. -1.
        -11    1    4    4    0    0 -0.10015276314E+02 -0.20550836384E+01  0.19638371017E+01  0.10410849381E+02  0.51100000000E-03 0.  1.
         12    1    4    4    0    0 -0.23499434738E+01  0.52093351770E+01 -0.11807007481E+01  0.58355343863E+01  0.00000000000E+00 0. -1.
</event>
<event>
 8    1  0.2530183E-006  0.9118800E+02  0.7816164E-02  0.1184000E+00
        -11   -1    0    0    0    0  0.00000000000E+00  0.00000000000E+00  0.45593999997E+02  0.45594000000E+02  0.51100000000E-03 0.  1.
         11   -1    0    0    0    0 -0.00000000000E+00 -0.00000000000E+00 -0.45593999997E+02  0.45594000000E+02  0.51100000000E-03 0. -1.
         23    2    1    2    0    0  0.00000000000E+00  0.00000000000E+00 -0.71054273576E-14  0.91188000000E+02  0.91188000000E+02 0.  0.
    9900012    2    3    3    0    0 -0.17385437882E+02  0.17054073169E+02 -0.27616714881E+02  0.54367111868E+02  0.40000063125E+02 0.  0.
        -12    1    3    3    0    0  0.17385437882E+02 -0.17054073169E+02  0.27616714881E+02  0.36820888132E+02  0.00000000000E+00 0.  1.
         11    1    4    4    0    0  0.37828116013E+01  0.60864355355E+01 -0.25628021732E+02  0.26611085271E+02  0.51100000000E-03 0. -1.
        -11    1    4    4    0    0 -0.13080227641E+02 -0.73669545930E+00 -0.31732942129E+01  0.13479794945E+02  0.51100000000E-03 0.  1.
        -12    1    4    4    0    0 -0.80880218428E+01  0.11704333093E+02  0.11846010641E+01  0.14276231651E+02  0.00000000000E+00 0.  1.
</event>
<event>
 8    1  0.2530183E-006  0.9118800E+02  0.7816164E-02  0.1184000E+00
        -11   -1    0    0    0    0  0.00000000000E+00  0.00000000000E+00  0.45593999997E+02  0.45594000000E+02  0.51100000000E-03 0. -1.
         11   -1    0    0    0    0 -0.00000000000E+00 -0.00000000000E+00 -0.45593999997E+02  0.45594000000E+02  0.51100000000E-03 0.  1.
         23    2    1    2    0    0  0.00000000000E+00 -0.35527136788E-14  0.00000000000E+00  0.91188000000E+02  0.91188000000E+02 0.  0.
    9900012    2    3    3    0    0  0.24516415580E+02 -0.26590249968E+02 -0.69053864681E+01  0.54367076757E+02  0.39999983082E+02 0.  0.
         12    1    3    3    0    0 -0.24516415580E+02  0.26590249968E+02  0.69053864681E+01  0.36820923243E+02  0.00000000000E+00 0. -1.
         11    1    4    4    0    0  0.10565187735E+02 -0.32828094541E+01 -0.14108709140E+00  0.11064354279E+02  0.51100000000E-03 0. -1.
        -11    1    4    4    0    0  0.14918545061E+02 -0.29876872806E+01 -0.14991158197E+02  0.21359402762E+02  0.51100000000E-03 0.  1.
        -12    1    4    4    0    0 -0.96731721652E+00 -0.20319753233E+02  0.82268588201E+01  0.21943319715E+02  0.00000000000E+00 0.  1.
</event>
<event>
 8    1  0.2530183E-006  0.9118800E+02  0.7816164E-02  0.1184000E+00
        -11   -1    0    0    0    0  0.00000000000E+00  0.00000000000E+00  0.45593999997E+02  0.45594000000E+02  0.51100000000E-03 0.  1.
         11   -1    0    0    0    0 -0.00000000000E+00 -0.00000000000E+00 -0.45593999997E+02  0.45594000000E+02  0.51100000000E-03 0. -1.
         23    2    1    2    0    0  0.00000000000E+00  0.35527136788E-14  0.00000000000E+00  0.91188000000E+02  0.91188000000E+02 0.  0.
    9900012    2    3    3    0    0  0.21170073523E+02 -0.17134443750E+02  0.24779401833E+02  0.54367082972E+02  0.39999997251E+02 0.  0.
         12    1    3    3    0    0 -0.21170073523E+02  0.17134443750E+02 -0.24779401833E+02  0.36820917028E+02  0.00000000000E+00 0. -1.
         11    1    4    4    0    0  0.77086648525E+01  0.10059659543E+00  0.12091364496E+02  0.14339969635E+02  0.51100000000E-03 0. -1.
        -11    1    4    4    0    0  0.79310129012E+01 -0.88970202035E+01  0.22846568412E+02  0.25768655817E+02  0.51100000000E-03 0.  1.
         12    1    4    4    0    0  0.55303957693E+01 -0.83380201424E+01 -0.10158531075E+02  0.14258457521E+02  0.00000000000E+00 0. -1.
</event>
<event>
 8    1  0.2530183E-006  0.9118800E+02  0.7816164E-02  0.1184000E+00
        -11   -1    0    0    0    0  0.00000000000E+00  0.00000000000E+00  0.45593999997E+02  0.45594000000E+02  0.51100000000E-03 0. -1.
         11   -1    0    0    0    0 -0.00000000000E+00 -0.00000000000E+00 -0.45593999997E+02  0.45594000000E+02  0.51100000000E-03 0.  1.
         23    2    1    2    0    0  0.17763568394E-14  0.00000000000E+00  0.00000000000E+00  0.91188000000E+02  0.91188000000E+02 0.  0.
    9900012    2    3    3    0    0  0.13665966453E+02 -0.94760744589E+01  0.32851602848E+02  0.54367048954E+02  0.39999919699E+02 0.  0.
        -12    1    3    3    0    0 -0.13665966453E+02  0.94760744589E+01 -0.32851602848E+02  0.36820951046E+02  0.00000000000E+00 0.  1.
         11    1    4    4    0    0  0.65657645418E+01 -0.55789069789E+01  0.20408288532E+02  0.22152465058E+02  0.51100000000E-03 0. -1.
        -11    1    4    4    0    0  0.51139414599E+01  0.72334519763E+01 -0.59164302961E+01  0.10652669734E+02  0.51100000000E-03 0.  1.
        -12    1    4    4    0    0  0.19862604514E+01 -0.11130619456E+02  0.18359744613E+02  0.21561914161E+02  0.00000000000E+00 0.  1.
</event>
<event>
 8    1  0.2530183E-006  0.9118800E+02  0.7816164E-02  0.1184000E+00
        -11   -1    0    0    0    0  0.00000000000E+00  0.00000000000E+00  0.45593999997E+02  0.45594000000E+02  0.51100000000E-03 0. -1.
         11   -1    0    0    0    0 -0.00000000000E+00 -0.00000000000E+00 -0.45593999997E+02  0.45594000000E+02  0.51100000000E-03 0.  1.
         23    2    1    2    0    0 -0.88817841970E-15  0.00000000000E+00  0.00000000000E+00  0.91188000000E+02  0.91188000000E+02 0.  0.
    9900012    2    3    3    0    0 -0.46671284351E+01  0.19562084290E+02 -0.30843505738E+02  0.54367094582E+02  0.40000023718E+02 0.  0.
         12    1    3    3    0    0  0.46671284351E+01 -0.19562084290E+02  0.30843505738E+02  0.36820905418E+02  0.00000000000E+00 0. -1.
         11    1    4    4    0    0  0.50903669243E+01 -0.33758664327E+01 -0.73792947897E+01  0.95792641392E+01  0.51100000000E-03 0. -1.
        -11    1    4    4    0    0  0.44083140195E+01  0.20233160814E+02 -0.48993158469E+01  0.21279504812E+02  0.51100000000E-03 0.  1.
         12    1    4    4    0    0 -0.14165809379E+02  0.27047899087E+01 -0.18564895102E+02  0.23508325630E+02  0.00000000000E+00 0. -1.
</event>
<event>
 8    1  0.2530183E-006  0.9118800E+02  0.7816164E-02  0.1184000E+00
        -11   -1    0    0    0    0  0.00000000000E+00  0.00000000000E+00  0.45593999997E+02  0.45594000000E+02  0.51100000000E-03 0.  1.
         11   -1    0    0    0    0 -0.00000000000E+00 -0.00000000000E+00 -0.45593999997E+02  0.45594000000E+02  0.51100000000E-03 0. -1.
         23    2    1    2    0    0 -0.88817841970E-15 -0.35527136788E-14  0.35527136788E-14  0.91188000000E+02  0.91188000000E+02 0.  0.
    9900012    2    3    3    0    0 -0.51674318905E+01  0.24638160325E+02  0.26870781015E+02  0.54367079739E+02  0.39999989880E+02 0.  0.
         12    1    3    3    0    0  0.51674318905E+01 -0.24638160325E+02 -0.26870781015E+02  0.36820920261E+02  0.00000000000E+00 0. -1.
         11    1    4    4    0    0 -0.75500247953E+01 -0.12780837090E+01  0.18924440682E+02  0.20414965780E+02  0.51100000000E-03 0.  1.
        -11    1    4    4    0    0  0.10891814917E+02  0.12718374288E+02  0.72116103123E+01  0.18231730590E+02  0.51100000000E-03 0. -1.
        -12    1    4    4    0    0 -0.85092220126E+01  0.13197869746E+02  0.73473001998E+00  0.15720383370E+02  0.00000000000E+00 0.  1.
</event>
<event>
 8    1  0.2530183E-006  0.9118800E+02  0.7816164E-02  0.1184000E+00
        -11   -1    0    0    0    0  0.00000000000E+00  0.00000000000E+00  0.45593999997E+02  0.45594000000E+02  0.51100000000E-03 0.  1.
         11   -1    0    0    0    0 -0.00000000000E+00 -0.00000000000E+00 -0.45593999997E+02  0.45594000000E+02  0.51100000000E-03 0. -1.
         23    2    1    2    0    0  0.17763568394E-14  0.00000000000E+00 -0.35527136788E-14  0.91188000000E+02  0.91188000000E+02 0.  0.
    9900012    2    3    3    0    0 -0.11559688666E+02  0.14750185919E+02 -0.31695180201E+02  0.54367097856E+02  0.40000031183E+02 0.  0.
        -12    1    3    3    0    0  0.11559688666E+02 -0.14750185919E+02  0.31695180201E+02  0.36820902144E+02  0.00000000000E+00 0.  1.
         11    1    4    4    0    0 -0.45110744625E+01  0.13060495552E+02 -0.11495367086E+02  0.17974142583E+02  0.51100000000E-03 0. -1.
        -11    1    4    4    0    0 -0.11338440992E+02  0.76012205341E+01  0.12749899171E+01  0.13710010842E+02  0.51100000000E-03 0.  1.
         12    1    4    4    0    0  0.42898267885E+01 -0.59115301673E+01 -0.21474803032E+02  0.22682944431E+02  0.00000000000E+00 0. -1.
</event>
<event>
 8    1  0.2530183E-006  0.9118800E+02  0.7816164E-02  0.1184000E+00
        -11   -1    0    0    0    0  0.00000000000E+00  0.00000000000E+00  0.45593999997E+02  0.45594000000E+02  0.51100000000E-03 0.  1.
         11   -1    0    0    0    0 -0.00000000000E+00 -0.00000000000E+00 -0.45593999997E+02  0.45594000000E+02  0.51100000000E-03 0. -1.
         23    2    1    2    0    0  0.35527136788E-14 -0.88817841970E-15  0.71054273576E-14  0.91188000000E+02  0.91188000000E+02 0.  0.
    9900012    2    3    3    0    0  0.20879695524E+02 -0.63176504831E+01  0.29663220975E+02  0.54367067483E+02  0.39999961941E+02 0.  0.
         12    1    3    3    0    0 -0.20879695524E+02  0.63176504831E+01 -0.29663220975E+02  0.36820932517E+02  0.00000000000E+00 0. -1.
         11    1    4    4    0    0  0.15506054019E+02 -0.12978771794E+02  0.13670028605E+02  0.24408111579E+02  0.51100000000E-03 0. -1.
        -11    1    4    4    0    0  0.11346857906E+01 -0.82316755864E+01  0.10800512293E+02  0.13627144267E+02  0.51100000000E-03 0.  1.
         12    1    4    4    0    0  0.42389557148E+01  0.14892796898E+02  0.51926800768E+01  0.16331811638E+02  0.00000000000E+00 0. -1.
</event>
<event>
 8    1  0.2530183E-006  0.9118800E+02  0.7816164E-02  0.1184000E+00
        -11   -1    0    0    0    0  0.00000000000E+00  0.00000000000E+00  0.45593999997E+02  0.45594000000E+02  0.51100000000E-03 0.  1.
         11   -1    0    0    0    0 -0.00000000000E+00 -0.00000000000E+00 -0.45593999997E+02  0.45594000000E+02  0.51100000000E-03 0. -1.
         23    2    1    2    0    0 -0.35527136788E-14 -0.55511151231E-16  0.71054273576E-14  0.91188000000E+02  0.91188000000E+02 0.  0.
    9900012    2    3    3    0    0 -0.16166912534E+02 -0.43201020491E+00  0.33079055081E+02  0.54367087752E+02  0.40000008148E+02 0.  0.
         12    1    3    3    0    0  0.16166912534E+02  0.43201020491E+00 -0.33079055081E+02  0.36820912248E+02  0.00000000000E+00 0. -1.
         11    1    4    4    0    0 -0.14582418307E+02 -0.99530580914E+01  0.37915827089E+01  0.18057862242E+02  0.51100000000E-03 0. -1.
        -11    1    4    4    0    0 -0.65597712360E+01  0.10947661841E+02  0.96472852364E+01  0.15998500278E+02  0.51100000000E-03 0.  1.
        -12    1    4    4    0    0  0.49752770097E+01 -0.14266139546E+01  0.19640187136E+02  0.20310725232E+02  0.00000000000E+00 0.  1.
</event>
<event>
 8    1  0.2530183E-006  0.9118800E+02  0.7816164E-02  0.1184000E+00
        -11   -1    0    0    0    0  0.00000000000E+00  0.00000000000E+00  0.45593999997E+02  0.45594000000E+02  0.51100000000E-03 0.  1.
         11   -1    0    0    0    0 -0.00000000000E+00 -0.00000000000E+00 -0.45593999997E+02  0.45594000000E+02  0.51100000000E-03 0. -1.
         23    2    1    2    0    0  0.00000000000E+00  0.00000000000E+00  0.00000000000E+00  0.91188000000E+02  0.91188000000E+02 0.  0.
    9900012    2    3    3    0    0  0.32222065925E+02 -0.17124431913E+02 -0.49266474326E+01  0.54367088065E+02  0.40000008862E+02 0.  0.
        -12    1    3    3    0    0 -0.32222065925E+02  0.17124431913E+02  0.49266474326E+01  0.36820911935E+02  0.00000000000E+00 0.  1.
         11    1    4    4    0    0  0.74834311368E+01 -0.13058565532E+02 -0.48912103812E+01  0.15825669483E+02  0.51100000000E-03 0. -1.
        -11    1    4    4    0    0  0.16000633504E+02 -0.11264764124E+02 -0.11278435631E+02  0.22585798499E+02  0.51100000000E-03 0.  1.
        -12    1    4    4    0    0  0.87380012839E+01  0.71988977438E+01  0.11242998579E+02  0.15955620082E+02  0.00000000000E+00 0.  1.
</event>
<event>
 8    1  0.2530183E-006  0.9118800E+02  0.7816164E-02  0.1184000E+00
        -11   -1    0    0    0    0  0.00000000000E+00  0.00000000000E+00  0.45593999997E+02  0.45594000000E+02  0.51100000000E-03 0. -1.
         11   -1    0    0    0    0 -0.00000000000E+00 -0.00000000000E+00 -0.45593999997E+02  0.45594000000E+02  0.51100000000E-03 0.  1.
         23    2    1    2    0    0  0.00000000000E+00  0.00000000000E+00  0.17763568394E-14  0.91188000000E+02  0.91188000000E+02 0.  0.
    9900012    2    3    3    0    0 -0.32448881123E+02 -0.99381363335E+01 -0.14285786283E+02  0.54367080272E+02  0.39999991096E+02 0.  0.
         12    1    3    3    0    0  0.32448881123E+02  0.99381363335E+01  0.14285786283E+02  0.36820919728E+02  0.00000000000E+00 0. -1.
         11    1    4    4    0    0 -0.36077363727E+02 -0.56172838015E+01 -0.22357879194E+00  0.36512738031E+02  0.51100000000E-03 0. -1.
        -11    1    4    4    0    0  0.67320938082E+01 -0.36932410252E+01 -0.85058971626E+01  0.11459118776E+02  0.51100000000E-03 0.  1.
         12    1    4    4    0    0 -0.31036112038E+01 -0.62761150683E+00 -0.55563103280E+01  0.63952234652E+01  0.00000000000E+00 0. -1.
</event>
<event>
 8    1  0.2530183E-006  0.9118800E+02  0.7816164E-02  0.1184000E+00
        -11   -1    0    0    0    0  0.00000000000E+00  0.00000000000E+00  0.45593999997E+02  0.45594000000E+02  0.51100000000E-03 0. -1.
         11   -1    0    0    0    0 -0.00000000000E+00 -0.00000000000E+00 -0.45593999997E+02  0.45594000000E+02  0.51100000000E-03 0.  1.
         23    2    1    2    0    0  0.00000000000E+00  0.35527136788E-14  0.00000000000E+00  0.91188000000E+02  0.91188000000E+02 0.  0.
    9900012    2    3    3    0    0 -0.10098669008E+02  0.17355102171E+02  0.30864172753E+02  0.54367084113E+02  0.39999999852E+02 0.  0.
        -12    1    3    3    0    0  0.10098669008E+02 -0.17355102171E+02 -0.30864172753E+02  0.36820915887E+02  0.00000000000E+00 0.  1.
         11    1    4    4    0    0 -0.70397820600E+00  0.10408337428E+01  0.12076198232E+01  0.17427753995E+01  0.51100000000E-03 0. -1.
        -11    1    4    4    0    0 -0.68179002550E+00 -0.28326655009E+01 -0.85371635482E+01  0.90206426151E+01  0.51100000000E-03 0.  1.
        -12    1    4    4    0    0 -0.87129007765E+01  0.19146933929E+02  0.38193716478E+02  0.43603666098E+02  0.00000000000E+00 0.  1.
</event>
<event>
 8    1  0.2530183E-006  0.9118800E+02  0.7816164E-02  0.1184000E+00
        -11   -1    0    0    0    0  0.00000000000E+00  0.00000000000E+00  0.45593999997E+02  0.45594000000E+02  0.51100000000E-03 0.  1.
         11   -1    0    0    0    0 -0.00000000000E+00 -0.00000000000E+00 -0.45593999997E+02  0.45594000000E+02  0.51100000000E-03 0. -1.
         23    2    1    2    0    0 -0.71054273576E-14  0.00000000000E+00 -0.35527136788E-14  0.91188000000E+02  0.91188000000E+02 0.  0.
    9900012    2    3    3    0    0 -0.27563438061E+02 -0.21812417786E+02 -0.10966090604E+02  0.54367084333E+02  0.40000000354E+02 0.  0.
         12    1    3    3    0    0  0.27563438061E+02  0.21812417786E+02  0.10966090604E+02  0.36820915667E+02  0.00000000000E+00 0. -1.
         11    1    4    4    0    0 -0.45339927384E+01 -0.14741354246E+02 -0.14806834877E+02  0.21380060208E+02  0.51100000000E-03 0. -1.
        -11    1    4    4    0    0 -0.39638222332E+01 -0.11716282355E+02  0.49732189155E+01  0.13331018925E+02  0.51100000000E-03 0.  1.
        -12    1    4    4    0    0 -0.19065623089E+02  0.46452188151E+01 -0.11324746433E+01  0.19656005201E+02  0.00000000000E+00 0.  1.
</event>
<event>
 8    1  0.2530183E-006  0.9118800E+02  0.7816164E-02  0.1184000E+00
        -11   -1    0    0    0    0  0.00000000000E+00  0.00000000000E+00  0.45593999997E+02  0.45594000000E+02  0.51100000000E-03 0.  1.
         11   -1    0    0    0    0 -0.00000000000E+00 -0.00000000000E+00 -0.45593999997E+02  0.45594000000E+02  0.51100000000E-03 0. -1.
         23    2    1    2    0    0  0.44408920985E-15 -0.35527136788E-14  0.00000000000E+00  0.91188000000E+02  0.91188000000E+02 0.  0.
    9900012    2    3    3    0    0  0.13463317854E+01  0.17424570788E+02  0.32409138482E+02  0.54367074787E+02  0.39999978591E+02 0.  0.
         12    1    3    3    0    0 -0.13463317854E+01 -0.17424570788E+02 -0.32409138482E+02  0.36820925213E+02  0.00000000000E+00 0. -1.
         11    1    4    4    0    0  0.10367150081E+02 -0.58302191059E+01 -0.92380076000E+00  0.11929906275E+02  0.51100000000E-03 0. -1.
        -11    1    4    4    0    0 -0.40575850030E+01  0.16008007653E+02  0.26843010411E+02  0.31516146865E+02  0.51100000000E-03 0.  1.
         12    1    4    4    0    0 -0.49632332923E+01  0.72467822419E+01  0.64899288311E+01  0.10921021647E+02  0.00000000000E+00 0. -1.
</event>
<event>
 8    1  0.2530183E-006  0.9118800E+02  0.7816164E-02  0.1184000E+00
        -11   -1    0    0    0    0  0.00000000000E+00  0.00000000000E+00  0.45593999997E+02  0.45594000000E+02  0.51100000000E-03 0.  1.
         11   -1    0    0    0    0 -0.00000000000E+00 -0.00000000000E+00 -0.45593999997E+02  0.45594000000E+02  0.51100000000E-03 0. -1.
         23    2    1    2    0    0  0.35527136788E-14  0.17763568394E-14  0.00000000000E+00  0.91188000000E+02  0.91188000000E+02 0.  0.
    9900012    2    3    3    0    0  0.24116246164E+02  0.14502957035E+02  0.23745548944E+02  0.54367079501E+02  0.39999989337E+02 0.  0.
         12    1    3    3    0    0 -0.24116246164E+02 -0.14502957035E+02 -0.23745548944E+02  0.36820920499E+02  0.00000000000E+00 0. -1.
         11    1    4    4    0    0  0.10461763493E+02  0.11104123801E+02  0.26616350210E+02  0.30678659677E+02  0.51100000000E-03 0. -1.
        -11    1    4    4    0    0  0.97889716094E+01  0.66533526552E+00  0.74593038421E+01  0.12325090274E+02  0.51100000000E-03 0.  1.
         12    1    4    4    0    0  0.38655110614E+01  0.27334979687E+01 -0.10330105109E+02  0.11363329550E+02  0.00000000000E+00 0. -1.
</event>
<event>
 8    1  0.2530183E-006  0.9118800E+02  0.7816164E-02  0.1184000E+00
        -11   -1    0    0    0    0  0.00000000000E+00  0.00000000000E+00  0.45593999997E+02  0.45594000000E+02  0.51100000000E-03 0. -1.
         11   -1    0    0    0    0 -0.00000000000E+00 -0.00000000000E+00 -0.45593999997E+02  0.45594000000E+02  0.51100000000E-03 0.  1.
         23    2    1    2    0    0  0.44408920985E-15 -0.88817841970E-15  0.71054273576E-14  0.91188000000E+02  0.91188000000E+02 0.  0.
    9900012    2    3    3    0    0 -0.39139977123E+01  0.23355891529E+01 -0.36537747168E+02  0.54367064068E+02  0.39999954156E+02 0.  0.
         12    1    3    3    0    0  0.39139977123E+01 -0.23355891529E+01  0.36537747168E+02  0.36820935932E+02  0.00000000000E+00 0. -1.
         11    1    4    4    0    0 -0.46589143335E+01 -0.68137753853E+01 -0.27087153796E+02  0.28316901646E+02  0.51100000000E-03 0. -1.
        -11    1    4    4    0    0  0.10359809901E+01 -0.30650908910E+01 -0.12944314324E+02  0.13342537704E+02  0.51100000000E-03 0.  1.
         12    1    4    4    0    0 -0.29106436889E+00  0.12214455429E+02  0.34937209529E+01  0.12707624719E+02  0.00000000000E+00 0. -1.
</event>
<event>
 8    1  0.2530183E-006  0.9118800E+02  0.7816164E-02  0.1184000E+00
        -11   -1    0    0    0    0  0.00000000000E+00  0.00000000000E+00  0.45593999997E+02  0.45594000000E+02  0.51100000000E-03 0.  1.
         11   -1    0    0    0    0 -0.00000000000E+00 -0.00000000000E+00 -0.45593999997E+02  0.45594000000E+02  0.51100000000E-03 0. -1.
         23    2    1    2    0    0  0.17763568394E-14  0.00000000000E+00  0.00000000000E+00  0.91188000000E+02  0.91188000000E+02 0.  0.
    9900012    2    3    3    0    0  0.11485536045E+02 -0.20694947186E+02 -0.28206050986E+02  0.54367086248E+02  0.40000004720E+02 0.  0.
        -12    1    3    3    0    0 -0.11485536045E+02  0.20694947186E+02  0.28206050986E+02  0.36820913752E+02  0.00000000000E+00 0.  1.
         11    1    4    4    0    0 -0.96293636890E+01 -0.31530092590E+01 -0.77811411930E+01  0.12775455803E+02  0.51100000000E-03 0. -1.
        -11    1    4    4    0    0  0.25417035728E+02 -0.11471161602E+02 -0.19644077128E+02  0.34110160072E+02  0.51100000000E-03 0.  1.
        -12    1    4    4    0    0 -0.43021359937E+01 -0.60707763247E+01 -0.78083266552E+00  0.74814703732E+01  0.00000000000E+00 0.  1.
</event>
<event>
 8    1  0.2530183E-006  0.9118800E+02  0.7816164E-02  0.1184000E+00
        -11   -1    0    0    0    0  0.00000000000E+00  0.00000000000E+00  0.45593999997E+02  0.45594000000E+02  0.51100000000E-03 0.  1.
         11   -1    0    0    0    0 -0.00000000000E+00 -0.00000000000E+00 -0.45593999997E+02  0.45594000000E+02  0.51100000000E-03 0. -1.
         23    2    1    2    0    0 -0.35527136788E-14  0.35527136788E-14  0.88817841970E-15  0.91188000000E+02  0.91188000000E+02 0.  0.
    9900012    2    3    3    0    0  0.19238009687E+02 -0.30400742289E+02 -0.78405259399E+01  0.54367082094E+02  0.39999995249E+02 0.  0.
        -12    1    3    3    0    0 -0.19238009687E+02  0.30400742289E+02  0.78405259399E+01  0.36820917906E+02  0.00000000000E+00 0.  1.
         11    1    4    4    0    0  0.10604416286E+01 -0.23600805761E+02 -0.12457665008E+02  0.26707976088E+02  0.51100000000E-03 0. -1.
        -11    1    4    4    0    0 -0.11779949955E+01 -0.42345064976E+01  0.67110873389E+01  0.80223070883E+01  0.51100000000E-03 0.  1.
         12    1    4    4    0    0  0.19355563054E+02 -0.25654300311E+01 -0.20939482710E+01  0.19636798918E+02  0.00000000000E+00 0. -1.
</event>
<event>
 8    1  0.2530183E-006  0.9118800E+02  0.7816164E-02  0.1184000E+00
        -11   -1    0    0    0    0  0.00000000000E+00  0.00000000000E+00  0.45593999997E+02  0.45594000000E+02  0.51100000000E-03 0.  1.
         11   -1    0    0    0    0 -0.00000000000E+00 -0.00000000000E+00 -0.45593999997E+02  0.45594000000E+02  0.51100000000E-03 0. -1.
         23    2    1    2    0    0  0.35527136788E-14  0.35527136788E-14  0.17763568394E-14  0.91188000000E+02  0.91188000000E+02 0.  0.
    9900012    2    3    3    0    0  0.26367095409E+02  0.23119127716E+02  0.11227745000E+02  0.54367081429E+02  0.39999993733E+02 0.  0.
         12    1    3    3    0    0 -0.26367095409E+02 -0.23119127716E+02 -0.11227745000E+02  0.36820918571E+02  0.00000000000E+00 0. -1.
         11    1    4    4    0    0  0.43794523502E+01 -0.61332727613E+01 -0.91492926878E+01  0.11853530892E+02  0.51100000000E-03 0. -1.
        -11    1    4    4    0    0  0.17843697352E+02  0.20071289272E+02  0.17436681758E+02  0.32020182062E+02  0.51100000000E-03 0.  1.
        -12    1    4    4    0    0  0.41439457059E+01  0.91811112050E+01  0.29403559294E+01  0.10493368476E+02  0.00000000000E+00 0.  1.
</event>
<event>
 8    1  0.2530183E-006  0.9118800E+02  0.7816164E-02  0.1184000E+00
        -11   -1    0    0    0    0  0.00000000000E+00  0.00000000000E+00  0.45593999997E+02  0.45594000000E+02  0.51100000000E-03 0.  1.
         11   -1    0    0    0    0 -0.00000000000E+00 -0.00000000000E+00 -0.45593999997E+02  0.45594000000E+02  0.51100000000E-03 0. -1.
         23    2    1    2    0    0  0.00000000000E+00  0.35527136788E-14  0.00000000000E+00  0.91188000000E+02  0.91188000000E+02 0.  0.
    9900012    2    3    3    0    0  0.80185577943E+01  0.31315375735E+02  0.17630381006E+02  0.54367077131E+02  0.39999983936E+02 0.  0.
         12    1    3    3    0    0 -0.80185577943E+01 -0.31315375735E+02 -0.17630381006E+02  0.36820922869E+02  0.00000000000E+00 0. -1.
         11    1    4    4    0    0 -0.27590434595E+01  0.50659256628E+01 -0.25864288030E+01  0.63218302608E+01  0.51100000000E-03 0. -1.
        -11    1    4    4    0    0 -0.42187744128E+00  0.20367411213E+02 -0.39653865449E+01  0.20754125152E+02  0.51100000000E-03 0.  1.
        -12    1    4    4    0    0  0.11199478695E+02  0.58820388588E+01  0.24182196353E+02  0.27291121719E+02  0.00000000000E+00 0.  1.
</event>
<event>
 8    1  0.2530183E-006  0.9118800E+02  0.7816164E-02  0.1184000E+00
        -11   -1    0    0    0    0  0.00000000000E+00  0.00000000000E+00  0.45593999997E+02  0.45594000000E+02  0.51100000000E-03 0. -1.
         11   -1    0    0    0    0 -0.00000000000E+00 -0.00000000000E+00 -0.45593999997E+02  0.45594000000E+02  0.51100000000E-03 0.  1.
         23    2    1    2    0    0  0.00000000000E+00  0.71054273576E-14  0.00000000000E+00  0.91188000000E+02  0.91188000000E+02 0.  0.
    9900012    2    3    3    0    0 -0.79052861359E+01 -0.34944765090E+02  0.84951052236E+01  0.54366851609E+02  0.39999469809E+02 0.  0.
        -12    1    3    3    0    0  0.79052861359E+01  0.34944765090E+02 -0.84951052236E+01  0.36821148391E+02  0.00000000000E+00 0.  1.
         11    1    4    4    0    0 -0.99412257408E+01 -0.77391318362E+01 -0.43007413649E+01  0.13312344172E+02  0.51100000000E-03 0.  1.
        -11    1    4    4    0    0  0.14950648768E+02 -0.15791753391E+02  0.79035384025E+01  0.23138005387E+02  0.51100000000E-03 0. -1.
         12    1    4    4    0    0 -0.12914709163E+02 -0.11413879863E+02  0.48923081861E+01  0.17916502049E+02  0.00000000000E+00 0. -1.
</event>
<event>
 8    1  0.2530183E-006  0.9118800E+02  0.7816164E-02  0.1184000E+00
        -11   -1    0    0    0    0  0.00000000000E+00  0.00000000000E+00  0.45593999997E+02  0.45594000000E+02  0.51100000000E-03 0. -1.
         11   -1    0    0    0    0 -0.00000000000E+00 -0.00000000000E+00 -0.45593999997E+02  0.45594000000E+02  0.51100000000E-03 0.  1.
         23    2    1    2    0    0  0.00000000000E+00  0.00000000000E+00  0.00000000000E+00  0.91188000000E+02  0.91188000000E+02 0.  0.
    9900012    2    3    3    0    0 -0.23791637050E+02  0.10954444675E+02  0.25879302689E+02  0.54367079869E+02  0.39999990177E+02 0.  0.
        -12    1    3    3    0    0  0.23791637050E+02 -0.10954444675E+02 -0.25879302689E+02  0.36820920131E+02  0.00000000000E+00 0.  1.
         11    1    4    4    0    0  0.61092398045E+01  0.29144853284E+01  0.99485461216E+01  0.12032896821E+02  0.51100000000E-03 0. -1.
        -11    1    4    4    0    0 -0.16349250254E+02 -0.41244990475E+01  0.17191393128E+02  0.24080146889E+02  0.51100000000E-03 0.  1.
        -12    1    4    4    0    0 -0.13551626600E+02  0.12164458395E+02 -0.12606365604E+01  0.18254036159E+02  0.00000000000E+00 0.  1.
</event>
<event>
 8    1  0.2530183E-006  0.9118800E+02  0.7816164E-02  0.1184000E+00
        -11   -1    0    0    0    0  0.00000000000E+00  0.00000000000E+00  0.45593999997E+02  0.45594000000E+02  0.51100000000E-03 0. -1.
         11   -1    0    0    0    0 -0.00000000000E+00 -0.00000000000E+00 -0.45593999997E+02  0.45594000000E+02  0.51100000000E-03 0.  1.
         23    2    1    2    0    0  0.00000000000E+00  0.00000000000E+00  0.00000000000E+00  0.91188000000E+02  0.91188000000E+02 0.  0.
    9900012    2    3    3    0    0  0.15891066695E+02  0.24826122342E+02 -0.22066324929E+02  0.54367013496E+02  0.39999838867E+02 0.  0.
         12    1    3    3    0    0 -0.15891066695E+02 -0.24826122342E+02  0.22066324929E+02  0.36820986504E+02  0.00000000000E+00 0. -1.
         11    1    4    4    0    0  0.56734059295E+01  0.18138096637E+02 -0.22695673793E+02  0.29601886657E+02  0.51100000000E-03 0.  1.
        -11    1    4    4    0    0  0.12636755215E+02  0.13464344690E+01  0.82486792603E+01  0.15150616422E+02  0.51100000000E-03 0. -1.
         12    1    4    4    0    0 -0.24190944500E+01  0.53415912355E+01 -0.76193303967E+01  0.96145104181E+01  0.00000000000E+00 0. -1.
</event>
<event>
 8    1  0.2530183E-006  0.9118800E+02  0.7816164E-02  0.1184000E+00
        -11   -1    0    0    0    0  0.00000000000E+00  0.00000000000E+00  0.45593999997E+02  0.45594000000E+02  0.51100000000E-03 0. -1.
         11   -1    0    0    0    0 -0.00000000000E+00 -0.00000000000E+00 -0.45593999997E+02  0.45594000000E+02  0.51100000000E-03 0.  1.
         23    2    1    2    0    0  0.00000000000E+00  0.00000000000E+00  0.00000000000E+00  0.91188000000E+02  0.91188000000E+02 0.  0.
    9900012    2    3    3    0    0  0.52854768541E+01  0.19789454743E+02 -0.30597721438E+02  0.54367090970E+02  0.40000015484E+02 0.  0.
         12    1    3    3    0    0 -0.52854768541E+01 -0.19789454743E+02  0.30597721438E+02  0.36820909030E+02  0.00000000000E+00 0. -1.
         11    1    4    4    0    0 -0.31394147419E+01  0.15883704238E+02 -0.42621383340E+01  0.16742574733E+02  0.51100000000E-03 0. -1.
        -11    1    4    4    0    0  0.90364202708E+01  0.66584010265E+01 -0.30553948237E+02  0.32550498439E+02  0.51100000000E-03 0.  1.
        -12    1    4    4    0    0 -0.61152867485E+00 -0.27526505219E+01  0.42183651327E+01  0.50740177974E+01  0.00000000000E+00 0.  1.
</event>
<event>
 8    1  0.2530183E-006  0.9118800E+02  0.7816164E-02  0.1184000E+00
        -11   -1    0    0    0    0  0.00000000000E+00  0.00000000000E+00  0.45593999997E+02  0.45594000000E+02  0.51100000000E-03 0. -1.
         11   -1    0    0    0    0 -0.00000000000E+00 -0.00000000000E+00 -0.45593999997E+02  0.45594000000E+02  0.51100000000E-03 0.  1.
         23    2    1    2    0    0  0.00000000000E+00  0.17763568394E-14  0.00000000000E+00  0.91188000000E+02  0.91188000000E+02 0.  0.
    9900012    2    3    3    0    0  0.32023345684E+02 -0.13837980991E+02 -0.11781111185E+02  0.54367096053E+02  0.40000027073E+02 0.  0.
         12    1    3    3    0    0 -0.32023345684E+02  0.13837980991E+02  0.11781111185E+02  0.36820903947E+02  0.00000000000E+00 0. -1.
         11    1    4    4    0    0  0.12327853015E+02  0.27358361249E+01  0.17267629588E+01  0.12745292065E+02  0.51100000000E-03 0. -1.
        -11    1    4    4    0    0 -0.52901052921E+01 -0.12757839778E+02 -0.71818960226E+01  0.15566866112E+02  0.51100000000E-03 0.  1.
        -12    1    4    4    0    0  0.24985597961E+02 -0.38159773377E+01 -0.63259781215E+01  0.26054937876E+02  0.00000000000E+00 0.  1.
</event>
<event>
 8    1  0.2530183E-006  0.9118800E+02  0.7816164E-02  0.1184000E+00
        -11   -1    0    0    0    0  0.00000000000E+00  0.00000000000E+00  0.45593999997E+02  0.45594000000E+02  0.51100000000E-03 0.  1.
         11   -1    0    0    0    0 -0.00000000000E+00 -0.00000000000E+00 -0.45593999997E+02  0.45594000000E+02  0.51100000000E-03 0. -1.
         23    2    1    2    0    0  0.35527136788E-14 -0.35527136788E-14  0.44408920985E-15  0.91188000000E+02  0.91188000000E+02 0.  0.
    9900012    2    3    3    0    0 -0.27137982637E+02  0.24612989821E+02  0.36755558994E+01  0.54367094515E+02  0.40000023567E+02 0.  0.
         12    1    3    3    0    0  0.27137982637E+02 -0.24612989821E+02 -0.36755558994E+01  0.36820905485E+02  0.00000000000E+00 0. -1.
         11    1    4    4    0    0 -0.20247490968E+02 -0.48083037802E+01  0.50530389739E+01  0.21415272094E+02  0.51100000000E-03 0. -1.
        -11    1    4    4    0    0  0.28544387083E+01  0.16088590808E+02  0.37944212367E+00  0.16344251317E+02  0.51100000000E-03 0.  1.
         12    1    4    4    0    0 -0.97449303775E+01  0.13332702793E+02 -0.17569251982E+01  0.16607571104E+02  0.00000000000E+00 0. -1.
</event>
<event>
 8    1  0.2530183E-006  0.9118800E+02  0.7816164E-02  0.1184000E+00
        -11   -1    0    0    0    0  0.00000000000E+00  0.00000000000E+00  0.45593999997E+02  0.45594000000E+02  0.51100000000E-03 0. -1.
         11   -1    0    0    0    0 -0.00000000000E+00 -0.00000000000E+00 -0.45593999997E+02  0.45594000000E+02  0.51100000000E-03 0.  1.
         23    2    1    2    0    0  0.71054273576E-14 -0.17763568394E-14 -0.35527136788E-14  0.91188000000E+02  0.91188000000E+02 0.  0.
    9900012    2    3    3    0    0  0.33058765515E+02 -0.11762108578E+02 -0.11160240400E+02  0.54367080113E+02  0.39999990733E+02 0.  0.
        -12    1    3    3    0    0 -0.33058765515E+02  0.11762108578E+02  0.11160240400E+02  0.36820919887E+02  0.00000000000E+00 0.  1.
         11    1    4    4    0    0  0.11742918172E+02  0.53540627581E+01 -0.68219940782E+00  0.12923912392E+02  0.51100000000E-03 0. -1.
        -11    1    4    4    0    0 -0.70301597532E+01 -0.97718902935E-01 -0.16311140062E+01  0.72175638759E+01  0.51100000000E-03 0.  1.
         12    1    4    4    0    0  0.28346007096E+02 -0.17018452433E+02 -0.88469269860E+01  0.34225603845E+02  0.00000000000E+00 0. -1.
</event>
<event>
 8    1  0.2530183E-006  0.9118800E+02  0.7816164E-02  0.1184000E+00
        -11   -1    0    0    0    0  0.00000000000E+00  0.00000000000E+00  0.45593999997E+02  0.45594000000E+02  0.51100000000E-03 0. -1.
         11   -1    0    0    0    0 -0.00000000000E+00 -0.00000000000E+00 -0.45593999997E+02  0.45594000000E+02  0.51100000000E-03 0.  1.
         23    2    1    2    0    0 -0.17763568394E-14  0.00000000000E+00  0.00000000000E+00  0.91188000000E+02  0.91188000000E+02 0.  0.
    9900012    2    3    3    0    0  0.15084948201E+02  0.21745808977E+02  0.25599721166E+02  0.54367060386E+02  0.39999945762E+02 0.  0.
        -12    1    3    3    0    0 -0.15084948201E+02 -0.21745808977E+02 -0.25599721166E+02  0.36820939614E+02  0.00000000000E+00 0.  1.
         11    1    4    4    0    0  0.52065695233E+01 -0.22028948833E+00  0.14503215005E+01  0.54092815027E+01  0.51100000000E-03 0. -1.
        -11    1    4    4    0    0  0.21047433282E+02  0.12153330611E+02  0.23902284748E+02  0.34088372052E+02  0.51100000000E-03 0.  1.
        -12    1    4    4    0    0 -0.11169054605E+02  0.98127678549E+01  0.24711491724E+00  0.14869406831E+02  0.00000000000E+00 0.  1.
</event>
<event>
 8    1  0.2530183E-006  0.9118800E+02  0.7816164E-02  0.1184000E+00
        -11   -1    0    0    0    0  0.00000000000E+00  0.00000000000E+00  0.45593999997E+02  0.45594000000E+02  0.51100000000E-03 0.  1.
         11   -1    0    0    0    0 -0.00000000000E+00 -0.00000000000E+00 -0.45593999997E+02  0.45594000000E+02  0.51100000000E-03 0. -1.
         23    2    1    2    0    0  0.00000000000E+00 -0.44408920985E-15  0.71054273576E-14  0.91188000000E+02  0.91188000000E+02 0.  0.
    9900012    2    3    3    0    0  0.78091411882E+01  0.31387136505E+01 -0.35846125818E+02  0.54367096350E+02  0.40000027748E+02 0.  0.
        -12    1    3    3    0    0 -0.78091411882E+01 -0.31387136505E+01  0.35846125818E+02  0.36820903650E+02  0.00000000000E+00 0.  1.
         11    1    4    4    0    0  0.55462546921E+01  0.43338851013E+01 -0.37575440591E+02  0.38229010412E+02  0.51100000000E-03 0. -1.
        -11    1    4    4    0    0 -0.79484307641E+00  0.25919866626E+01 -0.62379438625E+01  0.68016258548E+01  0.51100000000E-03 0.  1.
        -12    1    4    4    0    0  0.30577295725E+01 -0.37871581134E+01  0.79672586357E+01  0.93364600831E+01  0.00000000000E+00 0.  1.
</event>
<event>
 8    1  0.2530183E-006  0.9118800E+02  0.7816164E-02  0.1184000E+00
        -11   -1    0    0    0    0  0.00000000000E+00  0.00000000000E+00  0.45593999997E+02  0.45594000000E+02  0.51100000000E-03 0.  1.
         11   -1    0    0    0    0 -0.00000000000E+00 -0.00000000000E+00 -0.45593999997E+02  0.45594000000E+02  0.51100000000E-03 0. -1.
         23    2    1    2    0    0 -0.35527136788E-14  0.35527136788E-14  0.00000000000E+00  0.91188000000E+02  0.91188000000E+02 0.  0.
    9900012    2    3    3    0    0  0.19002090648E+02  0.24757502135E+02  0.19538781916E+02  0.54367117885E+02  0.40000076842E+02 0.  0.
         12    1    3    3    0    0 -0.19002090648E+02 -0.24757502135E+02 -0.19538781916E+02  0.36820882115E+02  0.00000000000E+00 0. -1.
         11    1    4    4    0    0 -0.44128519923E+01  0.10599365887E+02 -0.62453842609E+01  0.13069990235E+02  0.51100000000E-03 0. -1.
        -11    1    4    4    0    0  0.89083526852E+01  0.14270009562E+02  0.88826684776E+01  0.19023504410E+02  0.51100000000E-03 0.  1.
        -12    1    4    4    0    0  0.14506589955E+02 -0.11187331433E+00  0.16901497700E+02  0.22273623240E+02  0.00000000000E+00 0.  1.
</event>
<event>
 8    1  0.2530183E-006  0.9118800E+02  0.7816164E-02  0.1184000E+00
        -11   -1    0    0    0    0  0.00000000000E+00  0.00000000000E+00  0.45593999997E+02  0.45594000000E+02  0.51100000000E-03 0.  1.
         11   -1    0    0    0    0 -0.00000000000E+00 -0.00000000000E+00 -0.45593999997E+02  0.45594000000E+02  0.51100000000E-03 0. -1.
         23    2    1    2    0    0  0.00000000000E+00  0.00000000000E+00  0.00000000000E+00  0.91188000000E+02  0.91188000000E+02 0.  0.
    9900012    2    3    3    0    0 -0.10886644898E+02 -0.17297846699E+02 -0.30627502849E+02  0.54367102831E+02  0.40000042523E+02 0.  0.
        -12    1    3    3    0    0  0.10886644898E+02  0.17297846699E+02  0.30627502849E+02  0.36820897169E+02  0.00000000000E+00 0.  1.
         11    1    4    4    0    0 -0.51879170061E+01  0.25482859142E+01 -0.32107703905E+02  0.32623808703E+02  0.51100000000E-03 0. -1.
        -11    1    4    4    0    0 -0.55892037266E+01 -0.10988319272E+02 -0.14492208156E+01  0.12413001247E+02  0.51100000000E-03 0.  1.
         12    1    4    4    0    0 -0.10952416551E+00 -0.88578133416E+01  0.29294218717E+01  0.93302928807E+01  0.00000000000E+00 0. -1.
</event>
<event>
 8    1  0.2530183E-006  0.9118800E+02  0.7816164E-02  0.1184000E+00
        -11   -1    0    0    0    0  0.00000000000E+00  0.00000000000E+00  0.45593999997E+02  0.45594000000E+02  0.51100000000E-03 0.  1.
         11   -1    0    0    0    0 -0.00000000000E+00 -0.00000000000E+00 -0.45593999997E+02  0.45594000000E+02  0.51100000000E-03 0. -1.
         23    2    1    2    0    0 -0.11102230246E-14  0.35527136788E-14  0.35527136788E-14  0.91188000000E+02  0.91188000000E+02 0.  0.
    9900012    2    3    3    0    0  0.12241659546E+01  0.18481813450E+02  0.31823012008E+02  0.54367080620E+02  0.39999991890E+02 0.  0.
        -12    1    3    3    0    0 -0.12241659546E+01 -0.18481813450E+02 -0.31823012008E+02  0.36820919380E+02  0.00000000000E+00 0.  1.
         11    1    4    4    0    0 -0.73497143703E+01  0.27069506099E+02  0.20424545333E+02  0.34697817138E+02  0.51100000000E-03 0. -1.
        -11    1    4    4    0    0  0.86430927769E+01 -0.60553111202E+01  0.31094304247E+01  0.11001745468E+02  0.51100000000E-03 0.  1.
         12    1    4    4    0    0 -0.69212451967E-01 -0.25323815294E+01  0.82890362504E+01  0.86675180146E+01  0.00000000000E+00 0. -1.
</event>
<event>
 8    1  0.2530183E-006  0.9118800E+02  0.7816164E-02  0.1184000E+00
        -11   -1    0    0    0    0  0.00000000000E+00  0.00000000000E+00  0.45593999997E+02  0.45594000000E+02  0.51100000000E-03 0.  1.
         11   -1    0    0    0    0 -0.00000000000E+00 -0.00000000000E+00 -0.45593999997E+02  0.45594000000E+02  0.51100000000E-03 0. -1.
         23    2    1    2    0    0  0.35527136788E-14  0.00000000000E+00  0.00000000000E+00  0.91188000000E+02  0.91188000000E+02 0.  0.
    9900012    2    3    3    0    0 -0.19682293486E+02  0.25008036449E+02  0.18519841694E+02  0.54367094249E+02  0.40000022960E+02 0.  0.
         12    1    3    3    0    0  0.19682293486E+02 -0.25008036449E+02 -0.18519841694E+02  0.36820905751E+02  0.00000000000E+00 0. -1.
         11    1    4    4    0    0 -0.19482580880E+02  0.14140108284E+02 -0.57171469484E+01  0.24742663347E+02  0.51100000000E-03 0. -1.
        -11    1    4    4    0    0 -0.46808716047E+01 -0.10445817157E+00  0.39349409686E+01  0.61159816200E+01  0.51100000000E-03 0.  1.
         12    1    4    4    0    0  0.44811589987E+01  0.10972386337E+02  0.20302047674E+02  0.23508449282E+02  0.00000000000E+00 0. -1.
</event>
<event>
 8    1  0.2530183E-006  0.9118800E+02  0.7816164E-02  0.1184000E+00
        -11   -1    0    0    0    0  0.00000000000E+00  0.00000000000E+00  0.45593999997E+02  0.45594000000E+02  0.51100000000E-03 0. -1.
         11   -1    0    0    0    0 -0.00000000000E+00 -0.00000000000E+00 -0.45593999997E+02  0.45594000000E+02  0.51100000000E-03 0.  1.
         23    2    1    2    0    0 -0.35527136788E-14  0.55511151231E-16  0.71054273576E-14  0.91188000000E+02  0.91188000000E+02 0.  0.
    9900012    2    3    3    0    0  0.16383575234E+02 -0.30546518097E+00 -0.32973701849E+02  0.54367083933E+02  0.39999999441E+02 0.  0.
         12    1    3    3    0    0 -0.16383575234E+02  0.30546518097E+00  0.32973701849E+02  0.36820916067E+02  0.00000000000E+00 0. -1.
         11    1    4    4    0    0  0.12116601505E+02 -0.70552786462E+00 -0.11344531505E+02  0.16613494423E+02  0.51100000000E-03 0. -1.
        -11    1    4    4    0    0  0.14394163251E+02  0.15827546889E+01 -0.23288382249E+02  0.27423453395E+02  0.51100000000E-03 0.  1.
         12    1    4    4    0    0 -0.10127189522E+02 -0.11826920052E+01  0.16592119053E+01  0.10330136114E+02  0.00000000000E+00 0. -1.
</event>
<event>
 8    1  0.2530183E-006  0.9118800E+02  0.7816164E-02  0.1184000E+00
        -11   -1    0    0    0    0  0.00000000000E+00  0.00000000000E+00  0.45593999997E+02  0.45594000000E+02  0.51100000000E-03 0.  1.
         11   -1    0    0    0    0 -0.00000000000E+00 -0.00000000000E+00 -0.45593999997E+02  0.45594000000E+02  0.51100000000E-03 0. -1.
         23    2    1    2    0    0 -0.88817841970E-15  0.00000000000E+00 -0.35527136788E-14  0.91188000000E+02  0.91188000000E+02 0.  0.
    9900012    2    3    3    0    0 -0.56430059823E+01 -0.21101900546E+02  0.29641969800E+02  0.54367080718E+02  0.39999992112E+02 0.  0.
         12    1    3    3    0    0  0.56430059823E+01  0.21101900546E+02 -0.29641969800E+02  0.36820919282E+02  0.00000000000E+00 0. -1.
         11    1    4    4    0    0 -0.21483876809E+01  0.83028256034E+01  0.39270925068E+00  0.85852608256E+01  0.51100000000E-03 0. -1.
        -11    1    4    4    0    0 -0.88745892181E+01 -0.15288733907E+02  0.72757823330E+01  0.19116504050E+02  0.51100000000E-03 0.  1.
        -12    1    4    4    0    0  0.53799709167E+01 -0.14115992243E+02  0.21973478216E+02  0.26665315843E+02  0.00000000000E+00 0.  1.
</event>
<event>
 8    1  0.2530183E-006  0.9118800E+02  0.7816164E-02  0.1184000E+00
        -11   -1    0    0    0    0  0.00000000000E+00  0.00000000000E+00  0.45593999997E+02  0.45594000000E+02  0.51100000000E-03 0. -1.
         11   -1    0    0    0    0 -0.00000000000E+00 -0.00000000000E+00 -0.45593999997E+02  0.45594000000E+02  0.51100000000E-03 0.  1.
         23    2    1    2    0    0  0.00000000000E+00 -0.30531133177E-15  0.00000000000E+00  0.91188000000E+02  0.91188000000E+02 0.  0.
    9900012    2    3    3    0    0  0.10038737871E+02  0.21645918927E+00  0.35425340862E+02  0.54367110714E+02  0.40000060494E+02 0.  0.
        -12    1    3    3    0    0 -0.10038737871E+02 -0.21645918927E+00 -0.35425340862E+02  0.36820889286E+02  0.00000000000E+00 0.  1.
         11    1    4    4    0    0  0.13651612599E+02  0.30943604918E+01  0.25390513972E+02  0.28993443973E+02  0.51100000000E-03 0. -1.
        -11    1    4    4    0    0  0.60956166566E+00  0.73452682479E+01 -0.32770539792E+01  0.80662019626E+01  0.51100000000E-03 0.  1.
         12    1    4    4    0    0 -0.42224363939E+01 -0.10223169550E+02  0.13311880869E+02  0.17307464778E+02  0.00000000000E+00 0. -1.
</event>
<event>
 8    1  0.2530183E-006  0.9118800E+02  0.7816164E-02  0.1184000E+00
        -11   -1    0    0    0    0  0.00000000000E+00  0.00000000000E+00  0.45593999997E+02  0.45594000000E+02  0.51100000000E-03 0.  1.
         11   -1    0    0    0    0 -0.00000000000E+00 -0.00000000000E+00 -0.45593999997E+02  0.45594000000E+02  0.51100000000E-03 0. -1.
         23    2    1    2    0    0  0.00000000000E+00  0.71054273576E-14  0.00000000000E+00  0.91188000000E+02  0.91188000000E+02 0.  0.
    9900012    2    3    3    0    0 -0.80222847191E+01  0.32585598801E+02  0.15152617711E+02  0.54367080337E+02  0.39999991244E+02 0.  0.
        -12    1    3    3    0    0  0.80222847191E+01 -0.32585598801E+02 -0.15152617711E+02  0.36820919663E+02  0.00000000000E+00 0.  1.
         11    1    4    4    0    0 -0.13055157254E+01  0.27571369247E+02  0.11609556071E+02  0.29944391226E+02  0.51100000000E-03 0. -1.
        -11    1    4    4    0    0 -0.12790141963E+02 -0.84665516684E+00 -0.36560205090E+01  0.13329330164E+02  0.51100000000E-03 0.  1.
        -12    1    4    4    0    0  0.60733729692E+01  0.58608847206E+01  0.71990821490E+01  0.11093358947E+02  0.00000000000E+00 0.  1.
</event>
<event>
 8    1  0.2530183E-006  0.9118800E+02  0.7816164E-02  0.1184000E+00
        -11   -1    0    0    0    0  0.00000000000E+00  0.00000000000E+00  0.45593999997E+02  0.45594000000E+02  0.51100000000E-03 0. -1.
         11   -1    0    0    0    0 -0.00000000000E+00 -0.00000000000E+00 -0.45593999997E+02  0.45594000000E+02  0.51100000000E-03 0.  1.
         23    2    1    2    0    0  0.17763568394E-14 -0.35527136788E-14 -0.71054273576E-14  0.91188000000E+02  0.91188000000E+02 0.  0.
    9900012    2    3    3    0    0  0.11069977291E+02 -0.28143651884E+02 -0.21004079045E+02  0.54367070149E+02  0.39999968018E+02 0.  0.
         12    1    3    3    0    0 -0.11069977291E+02  0.28143651884E+02  0.21004079045E+02  0.36820929851E+02  0.00000000000E+00 0. -1.
         11    1    4    4    0    0 -0.63711732924E+01 -0.22531115930E+02 -0.88610612078E+01  0.25035204017E+02  0.51100000000E-03 0.  1.
        -11    1    4    4    0    0  0.71172833403E+01 -0.57967000642E+01  0.41251490267E+01  0.10063513727E+02  0.51100000000E-03 0. -1.
        -12    1    4    4    0    0  0.10323867243E+02  0.18416411029E+00 -0.16268166864E+02  0.19268352405E+02  0.00000000000E+00 0.  1.
</event>
<event>
 8    1  0.2530183E-006  0.9118800E+02  0.7816164E-02  0.1184000E+00
        -11   -1    0    0    0    0  0.00000000000E+00  0.00000000000E+00  0.45593999997E+02  0.45594000000E+02  0.51100000000E-03 0.  1.
         11   -1    0    0    0    0 -0.00000000000E+00 -0.00000000000E+00 -0.45593999997E+02  0.45594000000E+02  0.51100000000E-03 0. -1.
         23    2    1    2    0    0  0.00000000000E+00 -0.35527136788E-14  0.00000000000E+00  0.91188000000E+02  0.91188000000E+02 0.  0.
    9900012    2    3    3    0    0  0.21938954061E+02 -0.20386948314E+02  0.21420420182E+02  0.54367085188E+02  0.40000002304E+02 0.  0.
         12    1    3    3    0    0 -0.21938954061E+02  0.20386948314E+02 -0.21420420182E+02  0.36820914812E+02  0.00000000000E+00 0. -1.
         11    1    4    4    0    0 -0.40788271119E+01 -0.24752360081E+01  0.14315386110E+02  0.15089529604E+02  0.51100000000E-03 0. -1.
        -11    1    4    4    0    0  0.19226046844E+02 -0.78203780681E+01  0.14244162764E+02  0.25173306566E+02  0.51100000000E-03 0.  1.
        -12    1    4    4    0    0  0.67917343284E+01 -0.10091334237E+02 -0.71391286926E+01  0.14104249018E+02  0.00000000000E+00 0.  1.
</event>
<event>
 8    1  0.2530183E-006  0.9118800E+02  0.7816164E-02  0.1184000E+00
        -11   -1    0    0    0    0  0.00000000000E+00  0.00000000000E+00  0.45593999997E+02  0.45594000000E+02  0.51100000000E-03 0.  1.
         11   -1    0    0    0    0 -0.00000000000E+00 -0.00000000000E+00 -0.45593999997E+02  0.45594000000E+02  0.51100000000E-03 0. -1.
         23    2    1    2    0    0  0.00000000000E+00  0.17763568394E-14  0.35527136788E-14  0.91188000000E+02  0.91188000000E+02 0.  0.
    9900012    2    3    3    0    0 -0.26405752106E+02  0.11499956542E+02 -0.22940470315E+02  0.54367110236E+02  0.40000059404E+02 0.  0.
        -12    1    3    3    0    0  0.26405752106E+02 -0.11499956542E+02  0.22940470315E+02  0.36820889764E+02  0.00000000000E+00 0.  1.
         11    1    4    4    0    0  0.53627135503E+01  0.14446787350E+01 -0.99897230178E+00  0.56430257124E+01  0.51100000000E-03 0. -1.
        -11    1    4    4    0    0  0.32693990683E+00 -0.65740713216E+01 -0.29093581783E+00  0.65886225689E+01  0.51100000000E-03 0.  1.
         12    1    4    4    0    0 -0.32095405563E+02  0.16629349129E+02 -0.21650562196E+02  0.42135461954E+02  0.00000000000E+00 0. -1.
</event>
<event>
 8    1  0.2530183E-006  0.9118800E+02  0.7816164E-02  0.1184000E+00
        -11   -1    0    0    0    0  0.00000000000E+00  0.00000000000E+00  0.45593999997E+02  0.45594000000E+02  0.51100000000E-03 0.  1.
         11   -1    0    0    0    0 -0.00000000000E+00 -0.00000000000E+00 -0.45593999997E+02  0.45594000000E+02  0.51100000000E-03 0. -1.
         23    2    1    2    0    0  0.00000000000E+00  0.00000000000E+00 -0.88817841970E-15  0.91188000000E+02  0.91188000000E+02 0.  0.
    9900012    2    3    3    0    0  0.29678560128E+02 -0.21378915993E+02  0.42314115271E+01  0.54367084424E+02  0.40000000562E+02 0.  0.
         12    1    3    3    0    0 -0.29678560128E+02  0.21378915993E+02 -0.42314115271E+01  0.36820915576E+02  0.00000000000E+00 0. -1.
         11    1    4    4    0    0  0.71522922550E+01 -0.12408316797E+02 -0.12591784089E+02  0.19070255296E+02  0.51100000000E-03 0. -1.
        -11    1    4    4    0    0  0.66443245191E+01 -0.99006586737E+00  0.16170747238E+02  0.17510578096E+02  0.51100000000E-03 0.  1.
        -12    1    4    4    0    0  0.15881943354E+02 -0.79805333283E+01  0.65244837773E+00  0.17786251033E+02  0.00000000000E+00 0.  1.
</event>
<event>
 8    1  0.2530183E-006  0.9118800E+02  0.7816164E-02  0.1184000E+00
        -11   -1    0    0    0    0  0.00000000000E+00  0.00000000000E+00  0.45593999997E+02  0.45594000000E+02  0.51100000000E-03 0. -1.
         11   -1    0    0    0    0 -0.00000000000E+00 -0.00000000000E+00 -0.45593999997E+02  0.45594000000E+02  0.51100000000E-03 0.  1.
         23    2    1    2    0    0  0.00000000000E+00  0.35527136788E-14  0.35527136788E-14  0.91188000000E+02  0.91188000000E+02 0.  0.
    9900012    2    3    3    0    0 -0.19300771625E+02 -0.26029376952E+02 -0.17485268034E+02  0.54367043358E+02  0.39999906942E+02 0.  0.
        -12    1    3    3    0    0  0.19300771625E+02  0.26029376952E+02  0.17485268034E+02  0.36820956642E+02  0.00000000000E+00 0.  1.
         11    1    4    4    0    0 -0.25672324845E+01 -0.12118155743E+02 -0.21543894484E+02  0.24851152308E+02  0.51100000000E-03 0. -1.
        -11    1    4    4    0    0  0.33270382239E+01 -0.64925824388E+01  0.35697014076E+01  0.81219196296E+01  0.51100000000E-03 0.  1.
         12    1    4    4    0    0 -0.20060577365E+02 -0.74186387697E+01  0.48892504240E+00  0.21393971420E+02  0.00000000000E+00 0. -1.
</event>
<event>
 8    1  0.2530183E-006  0.9118800E+02  0.7816164E-02  0.1184000E+00
        -11   -1    0    0    0    0  0.00000000000E+00  0.00000000000E+00  0.45593999997E+02  0.45594000000E+02  0.51100000000E-03 0.  1.
         11   -1    0    0    0    0 -0.00000000000E+00 -0.00000000000E+00 -0.45593999997E+02  0.45594000000E+02  0.51100000000E-03 0. -1.
         23    2    1    2    0    0  0.17763568394E-14 -0.35527136788E-14 -0.71054273576E-14  0.91188000000E+02  0.91188000000E+02 0.  0.
    9900012    2    3    3    0    0 -0.15770228971E+02  0.16470671289E+02  0.28910143628E+02  0.54367088291E+02  0.40000009377E+02 0.  0.
         12    1    3    3    0    0  0.15770228971E+02 -0.16470671289E+02 -0.28910143628E+02  0.36820911709E+02  0.00000000000E+00 0. -1.
         11    1    4    4    0    0 -0.37396786086E+01  0.47209887559E+01 -0.90248303892E+00  0.60899430889E+01  0.51100000000E-03 0. -1.
        -11    1    4    4    0    0 -0.18291076123E+01  0.21242197778E+00  0.32578219599E+02  0.32630218361E+02  0.51100000000E-03 0.  1.
        -12    1    4    4    0    0 -0.10201442750E+02  0.11537260555E+02 -0.27655929326E+01  0.15646926841E+02  0.00000000000E+00 0.  1.
</event>
<event>
 8    1  0.2530183E-006  0.9118800E+02  0.7816164E-02  0.1184000E+00
        -11   -1    0    0    0    0  0.00000000000E+00  0.00000000000E+00  0.45593999997E+02  0.45594000000E+02  0.51100000000E-03 0. -1.
         11   -1    0    0    0    0 -0.00000000000E+00 -0.00000000000E+00 -0.45593999997E+02  0.45594000000E+02  0.51100000000E-03 0.  1.
         23    2    1    2    0    0 -0.17763568394E-14  0.00000000000E+00  0.00000000000E+00  0.91188000000E+02  0.91188000000E+02 0.  0.
    9900012    2    3    3    0    0 -0.10580250735E+02 -0.87866104281E+01  0.34156023861E+02  0.54367079392E+02  0.39999989091E+02 0.  0.
        -12    1    3    3    0    0  0.10580250735E+02  0.87866104281E+01 -0.34156023861E+02  0.36820920608E+02  0.00000000000E+00 0.  1.
         11    1    4    4    0    0 -0.14257920383E+02  0.30197671523E+01  0.11910326742E+02  0.18821880105E+02  0.51100000000E-03 0. -1.
        -11    1    4    4    0    0  0.41442021551E+01 -0.17946227329E+02  0.81067966213E+01  0.20123658678E+02  0.51100000000E-03 0.  1.
        -12    1    4    4    0    0 -0.46653250659E+00  0.61398497489E+01  0.14138900497E+02  0.15421540610E+02  0.00000000000E+00 0.  1.
</event>
<event>
 8    1  0.2530183E-006  0.9118800E+02  0.7816164E-02  0.1184000E+00
        -11   -1    0    0    0    0  0.00000000000E+00  0.00000000000E+00  0.45593999997E+02  0.45594000000E+02  0.51100000000E-03 0. -1.
         11   -1    0    0    0    0 -0.00000000000E+00 -0.00000000000E+00 -0.45593999997E+02  0.45594000000E+02  0.51100000000E-03 0.  1.
         23    2    1    2    0    0  0.00000000000E+00  0.00000000000E+00  0.00000000000E+00  0.91188000000E+02  0.91188000000E+02 0.  0.
    9900012    2    3    3    0    0 -0.15085052564E+02  0.25186591256E+02  0.22222895088E+02  0.54367078555E+02  0.39999987181E+02 0.  0.
        -12    1    3    3    0    0  0.15085052564E+02 -0.25186591256E+02 -0.22222895088E+02  0.36820921445E+02  0.00000000000E+00 0.  1.
         11    1    4    4    0    0 -0.59123976590E+01 -0.55473747583E+01  0.10248649071E+02  0.13067693784E+02  0.51100000000E-03 0. -1.
        -11    1    4    4    0    0 -0.13670850175E+02  0.27502439056E+02  0.31405677300E+01  0.30872956847E+02  0.51100000000E-03 0.  1.
         12    1    4    4    0    0  0.44981952693E+01  0.32315269582E+01  0.88336782874E+01  0.10426427924E+02  0.00000000000E+00 0. -1.
</event>
<event>
 8    1  0.2530183E-006  0.9118800E+02  0.7816164E-02  0.1184000E+00
        -11   -1    0    0    0    0  0.00000000000E+00  0.00000000000E+00  0.45593999997E+02  0.45594000000E+02  0.51100000000E-03 0. -1.
         11   -1    0    0    0    0 -0.00000000000E+00 -0.00000000000E+00 -0.45593999997E+02  0.45594000000E+02  0.51100000000E-03 0.  1.
         23    2    1    2    0    0  0.88817841970E-15  0.00000000000E+00  0.00000000000E+00  0.91188000000E+02  0.91188000000E+02 0.  0.
    9900012    2    3    3    0    0  0.41970398816E+01  0.88261328690E+01  0.35500223234E+02  0.54367060104E+02  0.39999945118E+02 0.  0.
        -12    1    3    3    0    0 -0.41970398816E+01 -0.88261328690E+01 -0.35500223234E+02  0.36820939896E+02  0.00000000000E+00 0.  1.
         11    1    4    4    0    0  0.29999747391E+01  0.11641561989E+02 -0.75491327025E+00  0.12045567994E+02  0.51100000000E-03 0. -1.
        -11    1    4    4    0    0 -0.86423741072E+01 -0.15018648918E+00  0.63467240543E+01  0.10723529861E+02  0.51100000000E-03 0.  1.
         12    1    4    4    0    0  0.98394392497E+01 -0.26652426309E+01  0.29908412450E+02  0.31597962249E+02  0.00000000000E+00 0. -1.
</event>
<event>
 8    1  0.2530183E-006  0.9118800E+02  0.7816164E-02  0.1184000E+00
        -11   -1    0    0    0    0  0.00000000000E+00  0.00000000000E+00  0.45593999997E+02  0.45594000000E+02  0.51100000000E-03 0. -1.
         11   -1    0    0    0    0 -0.00000000000E+00 -0.00000000000E+00 -0.45593999997E+02  0.45594000000E+02  0.51100000000E-03 0.  1.
         23    2    1    2    0    0  0.17763568394E-14 -0.71054273576E-14 -0.88817841970E-15  0.91188000000E+02  0.91188000000E+02 0.  0.
    9900012    2    3    3    0    0 -0.13595738239E+02  0.34174849746E+02  0.17369230231E+01  0.54367063632E+02  0.39999953163E+02 0.  0.
        -12    1    3    3    0    0  0.13595738239E+02 -0.34174849746E+02 -0.17369230231E+01  0.36820936368E+02  0.00000000000E+00 0.  1.
         11    1    4    4    0    0  0.29780435944E+01  0.29811399493E+01 -0.52447749275E+01  0.67278230765E+01  0.51100000000E-03 0. -1.
        -11    1    4    4    0    0 -0.86047099174E+01  0.56538868245E+01 -0.11260248300E+02  0.15257806560E+02  0.51100000000E-03 0.  1.
         12    1    4    4    0    0 -0.79690719159E+01  0.25539822972E+02  0.18241946250E+02  0.32381433996E+02  0.00000000000E+00 0. -1.
</event>
<event>
 8    1  0.2530183E-006  0.9118800E+02  0.7816164E-02  0.1184000E+00
        -11   -1    0    0    0    0  0.00000000000E+00  0.00000000000E+00  0.45593999997E+02  0.45594000000E+02  0.51100000000E-03 0.  1.
         11   -1    0    0    0    0 -0.00000000000E+00 -0.00000000000E+00 -0.45593999997E+02  0.45594000000E+02  0.51100000000E-03 0. -1.
         23    2    1    2    0    0  0.00000000000E+00  0.00000000000E+00  0.00000000000E+00  0.91188000000E+02  0.91188000000E+02 0.  0.
    9900012    2    3    3    0    0  0.28114543049E+02 -0.22682142289E+02 -0.71323913708E+01  0.54367107611E+02  0.40000053420E+02 0.  0.
        -12    1    3    3    0    0 -0.28114543049E+02  0.22682142289E+02  0.71323913708E+01  0.36820892389E+02  0.00000000000E+00 0.  1.
         11    1    4    4    0    0  0.26167991449E+01  0.68850883972E+01 -0.60804638618E+01  0.95511319245E+01  0.51100000000E-03 0. -1.
        -11    1    4    4    0    0  0.12792011592E+01 -0.12492685990E+02  0.66346393756E+01  0.14202886986E+02  0.51100000000E-03 0.  1.
         12    1    4    4    0    0  0.24218542745E+02 -0.17074544697E+02 -0.76865668846E+01  0.30613088700E+02  0.00000000000E+00 0. -1.
</event>
<event>
 8    1  0.2530183E-006  0.9118800E+02  0.7816164E-02  0.1184000E+00
        -11   -1    0    0    0    0  0.00000000000E+00  0.00000000000E+00  0.45593999997E+02  0.45594000000E+02  0.51100000000E-03 0. -1.
         11   -1    0    0    0    0 -0.00000000000E+00 -0.00000000000E+00 -0.45593999997E+02  0.45594000000E+02  0.51100000000E-03 0.  1.
         23    2    1    2    0    0 -0.88817841970E-15  0.71054273576E-14  0.00000000000E+00  0.91188000000E+02  0.91188000000E+02 0.  0.
    9900012    2    3    3    0    0  0.32885259672E+01 -0.35116745716E+02 -0.10572586698E+02  0.54367084447E+02  0.40000000613E+02 0.  0.
         12    1    3    3    0    0 -0.32885259672E+01  0.35116745716E+02  0.10572586698E+02  0.36820915553E+02  0.00000000000E+00 0. -1.
         11    1    4    4    0    0 -0.10353352843E+02 -0.23928475140E+02 -0.12025672511E+02  0.28712029486E+02  0.51100000000E-03 0. -1.
        -11    1    4    4    0    0 -0.39914222331E+01 -0.60482457746E+01  0.44765560406E+00  0.72603804442E+01  0.51100000000E-03 0.  1.
         12    1    4    4    0    0  0.17633301044E+02 -0.51400248013E+01  0.10054302092E+01  0.18394674516E+02  0.00000000000E+00 0. -1.
</event>
<event>
 8    1  0.2530183E-006  0.9118800E+02  0.7816164E-02  0.1184000E+00
        -11   -1    0    0    0    0  0.00000000000E+00  0.00000000000E+00  0.45593999997E+02  0.45594000000E+02  0.51100000000E-03 0.  1.
         11   -1    0    0    0    0 -0.00000000000E+00 -0.00000000000E+00 -0.45593999997E+02  0.45594000000E+02  0.51100000000E-03 0. -1.
         23    2    1    2    0    0  0.35527136788E-14  0.00000000000E+00  0.00000000000E+00  0.91188000000E+02  0.91188000000E+02 0.  0.
    9900012    2    3    3    0    0 -0.22237187951E+02 -0.24718348601E+02 -0.15820568218E+02  0.54367086591E+02  0.40000005501E+02 0.  0.
        -12    1    3    3    0    0  0.22237187951E+02  0.24718348601E+02  0.15820568218E+02  0.36820913409E+02  0.00000000000E+00 0.  1.
         11    1    4    4    0    0  0.25010005894E+01 -0.17689181818E+02 -0.11426631179E+02  0.21206839880E+02  0.51100000000E-03 0. -1.
        -11    1    4    4    0    0 -0.22785749836E+02 -0.76844309806E+01 -0.10851863250E+02  0.26381884151E+02  0.51100000000E-03 0.  1.
        -12    1    4    4    0    0 -0.19524387039E+01  0.65526419704E+00  0.64579262104E+01  0.67783625603E+01  0.00000000000E+00 0.  1.
</event>
<event>
 8    1  0.2530183E-006  0.9118800E+02  0.7816164E-02  0.1184000E+00
        -11   -1    0    0    0    0  0.00000000000E+00  0.00000000000E+00  0.45593999997E+02  0.45594000000E+02  0.51100000000E-03 0.  1.
         11   -1    0    0    0    0 -0.00000000000E+00 -0.00000000000E+00 -0.45593999997E+02  0.45594000000E+02  0.51100000000E-03 0. -1.
         23    2    1    2    0    0  0.00000000000E+00  0.00000000000E+00  0.17763568394E-14  0.91188000000E+02  0.91188000000E+02 0.  0.
    9900012    2    3    3    0    0  0.13165217449E+02  0.30594883505E+02  0.15697453886E+02  0.54367083313E+02  0.39999998029E+02 0.  0.
         12    1    3    3    0    0 -0.13165217449E+02 -0.30594883505E+02 -0.15697453886E+02  0.36820916687E+02  0.00000000000E+00 0. -1.
         11    1    4    4    0    0  0.72639984651E+01  0.28637144968E+02  0.13782314656E+02  0.32600673968E+02  0.51100000000E-03 0.  1.
        -11    1    4    4    0    0  0.82751499669E+01 -0.55081506176E+01 -0.51689174562E+01  0.11204264283E+02  0.51100000000E-03 0. -1.
         12    1    4    4    0    0 -0.23739309831E+01  0.74658891549E+01  0.70840566856E+01  0.10562145062E+02  0.00000000000E+00 0. -1.
</event>
<event>
 8    1  0.2530183E-006  0.9118800E+02  0.7816164E-02  0.1184000E+00
        -11   -1    0    0    0    0  0.00000000000E+00  0.00000000000E+00  0.45593999997E+02  0.45594000000E+02  0.51100000000E-03 0.  1.
         11   -1    0    0    0    0 -0.00000000000E+00 -0.00000000000E+00 -0.45593999997E+02  0.45594000000E+02  0.51100000000E-03 0. -1.
         23    2    1    2    0    0 -0.88817841970E-15 -0.35527136788E-14 -0.35527136788E-14  0.91188000000E+02  0.91188000000E+02 0.  0.
    9900012    2    3    3    0    0 -0.78615038692E+01 -0.31668673687E+02  0.17060893784E+02  0.54367051711E+02  0.39999925985E+02 0.  0.
         12    1    3    3    0    0  0.78615038692E+01  0.31668673687E+02 -0.17060893784E+02  0.36820948289E+02  0.00000000000E+00 0. -1.
         11    1    4    4    0    0 -0.55469834306E+01 -0.46692447141E+01  0.18594587038E+01  0.74852159829E+01  0.51100000000E-03 0. -1.
        -11    1    4    4    0    0  0.51508160519E+01 -0.15418735861E+01  0.19302335125E+02  0.20037175991E+02  0.51100000000E-03 0.  1.
         12    1    4    4    0    0 -0.74653364906E+01 -0.25457555387E+02 -0.41009000452E+01  0.26844659737E+02  0.00000000000E+00 0. -1.
</event>
<event>
 8    1  0.2530183E-006  0.9118800E+02  0.7816164E-02  0.1184000E+00
        -11   -1    0    0    0    0  0.00000000000E+00  0.00000000000E+00  0.45593999997E+02  0.45594000000E+02  0.51100000000E-03 0. -1.
         11   -1    0    0    0    0 -0.00000000000E+00 -0.00000000000E+00 -0.45593999997E+02  0.45594000000E+02  0.51100000000E-03 0.  1.
         23    2    1    2    0    0  0.35527136788E-14 -0.35527136788E-14  0.35527136788E-14  0.91188000000E+02  0.91188000000E+02 0.  0.
    9900012    2    3    3    0    0  0.29650860479E+02  0.15226886813E+02  0.15644683606E+02  0.54366977007E+02  0.39999755681E+02 0.  0.
        -12    1    3    3    0    0 -0.29650860479E+02 -0.15226886813E+02 -0.15644683606E+02  0.36821022993E+02  0.00000000000E+00 0.  1.
         11    1    4    4    0    0  0.12035209549E+02  0.45501555901E+01  0.47597174985E+01  0.13718786233E+02  0.51100000000E-03 0. -1.
        -11    1    4    4    0    0 -0.21129131871E+01 -0.73192279848E+01 -0.54300035241E+01  0.93552359116E+01  0.51100000000E-03 0.  1.
        -12    1    4    4    0    0  0.19728564117E+02  0.17995959207E+02  0.16314969632E+02  0.31292954862E+02  0.00000000000E+00 0.  1.
</event>
<event>
 8    1  0.2530183E-006  0.9118800E+02  0.7816164E-02  0.1184000E+00
        -11   -1    0    0    0    0  0.00000000000E+00  0.00000000000E+00  0.45593999997E+02  0.45594000000E+02  0.51100000000E-03 0.  1.
         11   -1    0    0    0    0 -0.00000000000E+00 -0.00000000000E+00 -0.45593999997E+02  0.45594000000E+02  0.51100000000E-03 0. -1.
         23    2    1    2    0    0 -0.17763568394E-14 -0.35527136788E-14  0.00000000000E+00  0.91188000000E+02  0.91188000000E+02 0.  0.
    9900012    2    3    3    0    0  0.13143152995E+02  0.19491307904E+02  0.28339461777E+02  0.54367100388E+02  0.40000036954E+02 0.  0.
         12    1    3    3    0    0 -0.13143152995E+02 -0.19491307904E+02 -0.28339461777E+02  0.36820899612E+02  0.00000000000E+00 0. -1.
         11    1    4    4    0    0 -0.58343427036E+01  0.21119252086E+02  0.12086380465E+02  0.25022848688E+02  0.51100000000E-03 0. -1.
        -11    1    4    4    0    0  0.51485597439E+01  0.24588853548E+01  0.13510121491E+02  0.14665509455E+02  0.51100000000E-03 0.  1.
         12    1    4    4    0    0  0.13828935955E+02 -0.40868295370E+01  0.27429598216E+01  0.14678742245E+02  0.00000000000E+00 0. -1.
</event>
<event>
 8    1  0.2530183E-006  0.9118800E+02  0.7816164E-02  0.1184000E+00
        -11   -1    0    0    0    0  0.00000000000E+00  0.00000000000E+00  0.45593999997E+02  0.45594000000E+02  0.51100000000E-03 0.  1.
         11   -1    0    0    0    0 -0.00000000000E+00 -0.00000000000E+00 -0.45593999997E+02  0.45594000000E+02  0.51100000000E-03 0. -1.
         23    2    1    2    0    0  0.00000000000E+00  0.00000000000E+00  0.00000000000E+00  0.91188000000E+02  0.91188000000E+02 0.  0.
    9900012    2    3    3    0    0  0.98903658419E+01 -0.30002599595E+02 -0.18915787972E+02  0.54367050073E+02  0.39999922251E+02 0.  0.
         12    1    3    3    0    0 -0.98903658419E+01  0.30002599595E+02  0.18915787972E+02  0.36820949927E+02  0.00000000000E+00 0. -1.
         11    1    4    4    0    0  0.21482873370E+02 -0.16363127522E+02 -0.39119096038E+01  0.27286788517E+02  0.51100000000E-03 0. -1.
        -11    1    4    4    0    0 -0.57765546944E+01 -0.14132060257E+02 -0.61146437001E+01  0.16446050562E+02  0.51100000000E-03 0.  1.
        -12    1    4    4    0    0 -0.58159528338E+01  0.49258818405E+00 -0.88892346686E+01  0.10634210995E+02  0.00000000000E+00 0.  1.
</event>
<event>
 8    1  0.2530183E-006  0.9118800E+02  0.7816164E-02  0.1184000E+00
        -11   -1    0    0    0    0  0.00000000000E+00  0.00000000000E+00  0.45593999997E+02  0.45594000000E+02  0.51100000000E-03 0.  1.
         11   -1    0    0    0    0 -0.00000000000E+00 -0.00000000000E+00 -0.45593999997E+02  0.45594000000E+02  0.51100000000E-03 0. -1.
         23    2    1    2    0    0  0.00000000000E+00 -0.88817841970E-15  0.00000000000E+00  0.91188000000E+02  0.91188000000E+02 0.  0.
    9900012    2    3    3    0    0  0.26436146180E+02 -0.41329833885E+01  0.25294755519E+02  0.54367135897E+02  0.40000117904E+02 0.  0.
         12    1    3    3    0    0 -0.26436146180E+02  0.41329833885E+01 -0.25294755519E+02  0.36820864103E+02  0.00000000000E+00 0. -1.
         11    1    4    4    0    0  0.22608836157E+02  0.98237857923E+01  0.26059924229E+02  0.35871797986E+02  0.51100000000E-03 0. -1.
        -11    1    4    4    0    0  0.55829919393E+01 -0.19133685831E+01  0.15601490476E+01  0.61044937252E+01  0.51100000000E-03 0.  1.
         12    1    4    4    0    0 -0.17556819160E+01 -0.12043400598E+02 -0.23253177582E+01  0.12390844185E+02  0.00000000000E+00 0. -1.
</event>
<event>
 8    1  0.2530183E-006  0.9118800E+02  0.7816164E-02  0.1184000E+00
        -11   -1    0    0    0    0  0.00000000000E+00  0.00000000000E+00  0.45593999997E+02  0.45594000000E+02  0.51100000000E-03 0.  1.
         11   -1    0    0    0    0 -0.00000000000E+00 -0.00000000000E+00 -0.45593999997E+02  0.45594000000E+02  0.51100000000E-03 0. -1.
         23    2    1    2    0    0  0.00000000000E+00  0.00000000000E+00  0.00000000000E+00  0.91188000000E+02  0.91188000000E+02 0.  0.
    9900012    2    3    3    0    0 -0.98123308997E+01  0.18972718491E+02 -0.29992203201E+02  0.54367107324E+02  0.40000052766E+02 0.  0.
        -12    1    3    3    0    0  0.98123308997E+01 -0.18972718491E+02  0.29992203201E+02  0.36820892676E+02  0.00000000000E+00 0.  1.
         11    1    4    4    0    0 -0.20452303518E+02  0.13905184133E+02 -0.15395198124E+02  0.29131820926E+02  0.51100000000E-03 0. -1.
        -11    1    4    4    0    0  0.10433222426E+01  0.66203663064E+01  0.10801950577E+01  0.67885633942E+01  0.51100000000E-03 0.  1.
         12    1    4    4    0    0  0.95966503754E+01 -0.15528319483E+01 -0.15677200135E+02  0.18446723003E+02  0.00000000000E+00 0. -1.
</event>
<event>
 8    1  0.2530183E-006  0.9118800E+02  0.7816164E-02  0.1184000E+00
        -11   -1    0    0    0    0  0.00000000000E+00  0.00000000000E+00  0.45593999997E+02  0.45594000000E+02  0.51100000000E-03 0. -1.
         11   -1    0    0    0    0 -0.00000000000E+00 -0.00000000000E+00 -0.45593999997E+02  0.45594000000E+02  0.51100000000E-03 0.  1.
         23    2    1    2    0    0  0.00000000000E+00  0.17763568394E-14  0.00000000000E+00  0.91188000000E+02  0.91188000000E+02 0.  0.
    9900012    2    3    3    0    0 -0.30679821373E+02 -0.14970471152E+02 -0.13799130354E+02  0.54367048838E+02  0.39999919435E+02 0.  0.
         12    1    3    3    0    0  0.30679821373E+02  0.14970471152E+02  0.13799130354E+02  0.36820951162E+02  0.00000000000E+00 0. -1.
         11    1    4    4    0    0 -0.10863363404E+02 -0.21372671656E+01 -0.25370705749E+01  0.11358578378E+02  0.51100000000E-03 0. -1.
        -11    1    4    4    0    0  0.59074531650E+01  0.17745873398E+01  0.61268770063E+01  0.86940085826E+01  0.51100000000E-03 0.  1.
        -12    1    4    4    0    0 -0.25723911133E+02 -0.14607791326E+02 -0.17388936785E+02  0.34314461878E+02  0.00000000000E+00 0.  1.
</event>
<event>
 8    1  0.2530183E-006  0.9118800E+02  0.7816164E-02  0.1184000E+00
        -11   -1    0    0    0    0  0.00000000000E+00  0.00000000000E+00  0.45593999997E+02  0.45594000000E+02  0.51100000000E-03 0. -1.
         11   -1    0    0    0    0 -0.00000000000E+00 -0.00000000000E+00 -0.45593999997E+02  0.45594000000E+02  0.51100000000E-03 0.  1.
         23    2    1    2    0    0 -0.17763568394E-14  0.00000000000E+00  0.00000000000E+00  0.91188000000E+02  0.91188000000E+02 0.  0.
    9900012    2    3    3    0    0 -0.10228893152E+02 -0.34711197732E+02  0.68031028225E+01  0.54367085955E+02  0.40000004051E+02 0.  0.
        -12    1    3    3    0    0  0.10228893152E+02  0.34711197732E+02 -0.68031028225E+01  0.36820914045E+02  0.00000000000E+00 0.  1.
         11    1    4    4    0    0  0.13712835967E+01 -0.29111745019E+02  0.15195838929E+02  0.32867729428E+02  0.51100000000E-03 0. -1.
        -11    1    4    4    0    0 -0.58704851859E+01  0.36496173755E+01  0.11740844723E+01  0.70114747318E+01  0.51100000000E-03 0.  1.
        -12    1    4    4    0    0 -0.57296915630E+01 -0.92490700885E+01 -0.95668205784E+01  0.14487881794E+02  0.00000000000E+00 0.  1.
</event>
<event>
 8    1  0.2530183E-006  0.9118800E+02  0.7816164E-02  0.1184000E+00
        -11   -1    0    0    0    0  0.00000000000E+00  0.00000000000E+00  0.45593999997E+02  0.45594000000E+02  0.51100000000E-03 0. -1.
         11   -1    0    0    0    0 -0.00000000000E+00 -0.00000000000E+00 -0.45593999997E+02  0.45594000000E+02  0.51100000000E-03 0.  1.
         23    2    1    2    0    0  0.17763568394E-14 -0.17763568394E-14 -0.71054273576E-14  0.91188000000E+02  0.91188000000E+02 0.  0.
    9900012    2    3    3    0    0  0.45239938326E+01 -0.94319889364E+01  0.35303692921E+02  0.54367086522E+02  0.40000005345E+02 0.  0.
        -12    1    3    3    0    0 -0.45239938326E+01  0.94319889364E+01 -0.35303692921E+02  0.36820913478E+02  0.00000000000E+00 0.  1.
         11    1    4    4    0    0 -0.23963762490E+01  0.63198684085E+01  0.16420321186E+02  0.17756979021E+02  0.51100000000E-03 0. -1.
        -11    1    4    4    0    0 -0.53165655158E+01 -0.15449606861E+02  0.18041778880E+02  0.24340542444E+02  0.51100000000E-03 0.  1.
         12    1    4    4    0    0  0.12236935597E+02 -0.30225048380E+00  0.84159285419E+00  0.12269565058E+02  0.00000000000E+00 0. -1.
</event>
<event>
 8    1  0.2530183E-006  0.9118800E+02  0.7816164E-02  0.1184000E+00
        -11   -1    0    0    0    0  0.00000000000E+00  0.00000000000E+00  0.45593999997E+02  0.45594000000E+02  0.51100000000E-03 0. -1.
         11   -1    0    0    0    0 -0.00000000000E+00 -0.00000000000E+00 -0.45593999997E+02  0.45594000000E+02  0.51100000000E-03 0.  1.
         23    2    1    2    0    0  0.00000000000E+00  0.26645352591E-14  0.71054273576E-14  0.91188000000E+02  0.91188000000E+02 0.  0.
    9900012    2    3    3    0    0  0.74671586561E+01 -0.65808306014E+01 -0.35450194234E+02  0.54367054045E+02  0.39999931306E+02 0.  0.
         12    1    3    3    0    0 -0.74671586561E+01  0.65808306014E+01  0.35450194234E+02  0.36820945955E+02  0.00000000000E+00 0. -1.
         11    1    4    4    0    0 -0.97956025031E+01 -0.41104052332E+01 -0.11621612574E+02  0.15745194145E+02  0.51100000000E-03 0. -1.
        -11    1    4    4    0    0  0.20132573890E+01  0.10305134338E+02 -0.80745365646E+01  0.13245646078E+02  0.51100000000E-03 0.  1.
        -12    1    4    4    0    0  0.15249503770E+02 -0.12775559706E+02 -0.15754045096E+02  0.25376213822E+02  0.00000000000E+00 0.  1.
</event>
<event>
 8    1  0.2530183E-006  0.9118800E+02  0.7816164E-02  0.1184000E+00
        -11   -1    0    0    0    0  0.00000000000E+00  0.00000000000E+00  0.45593999997E+02  0.45594000000E+02  0.51100000000E-03 0.  1.
         11   -1    0    0    0    0 -0.00000000000E+00 -0.00000000000E+00 -0.45593999997E+02  0.45594000000E+02  0.51100000000E-03 0. -1.
         23    2    1    2    0    0  0.00000000000E+00  0.00000000000E+00 -0.26645352591E-14  0.91188000000E+02  0.91188000000E+02 0.  0.
    9900012    2    3    3    0    0  0.28075210464E+02  0.23691973178E+02 -0.24999968169E+01  0.54367122502E+02  0.40000087367E+02 0.  0.
        -12    1    3    3    0    0 -0.28075210464E+02 -0.23691973178E+02  0.24999968169E+01  0.36820877498E+02  0.00000000000E+00 0.  1.
         11    1    4    4    0    0  0.32190228963E+01  0.10010813841E+02  0.11949825795E+02  0.15917815144E+02  0.51100000000E-03 0.  1.
        -11    1    4    4    0    0  0.20585041861E+02  0.16627393474E+02 -0.18139892605E+02  0.32082235991E+02  0.51100000000E-03 0. -1.
         12    1    4    4    0    0  0.42711457064E+01 -0.29462341371E+01  0.36900699930E+01  0.63670713668E+01  0.00000000000E+00 0. -1.
</event>
<event>
 8    1  0.2530183E-006  0.9118800E+02  0.7816164E-02  0.1184000E+00
        -11   -1    0    0    0    0  0.00000000000E+00  0.00000000000E+00  0.45593999997E+02  0.45594000000E+02  0.51100000000E-03 0. -1.
         11   -1    0    0    0    0 -0.00000000000E+00 -0.00000000000E+00 -0.45593999997E+02  0.45594000000E+02  0.51100000000E-03 0.  1.
         23    2    1    2    0    0 -0.17763568394E-14  0.00000000000E+00  0.00000000000E+00  0.91188000000E+02  0.91188000000E+02 0.  0.
    9900012    2    3    3    0    0 -0.52189403702E+01  0.24198930508E+02 -0.27257178813E+02  0.54367090544E+02  0.40000014513E+02 0.  0.
         12    1    3    3    0    0  0.52189403702E+01 -0.24198930508E+02  0.27257178813E+02  0.36820909456E+02  0.00000000000E+00 0. -1.
         11    1    4    4    0    0  0.97686118450E+01 -0.28011916529E+01 -0.63771432420E+01  0.11997516753E+02  0.51100000000E-03 0. -1.
        -11    1    4    4    0    0 -0.65383462060E+01  0.22874819341E+02 -0.22596443526E+02  0.32811683762E+02  0.51100000000E-03 0.  1.
         12    1    4    4    0    0 -0.84492060092E+01  0.41253028196E+01  0.17164079547E+01  0.95578900290E+01  0.00000000000E+00 0. -1.
</event>
<event>
 8    1  0.2530183E-006  0.9118800E+02  0.7816164E-02  0.1184000E+00
        -11   -1    0    0    0    0  0.00000000000E+00  0.00000000000E+00  0.45593999997E+02  0.45594000000E+02  0.51100000000E-03 0. -1.
         11   -1    0    0    0    0 -0.00000000000E+00 -0.00000000000E+00 -0.45593999997E+02  0.45594000000E+02  0.51100000000E-03 0.  1.
         23    2    1    2    0    0  0.00000000000E+00 -0.88817841970E-15  0.00000000000E+00  0.91188000000E+02  0.91188000000E+02 0.  0.
    9900012    2    3    3    0    0  0.34843818862E+02  0.65872115274E+01  0.99145173359E+01  0.54367072219E+02  0.39999972738E+02 0.  0.
        -12    1    3    3    0    0 -0.34843818862E+02 -0.65872115274E+01 -0.99145173359E+01  0.36820927781E+02  0.00000000000E+00 0.  1.
         11    1    4    4    0    0  0.14057721743E+02  0.62105731068E+01 -0.14091438801E+01  0.15432966197E+02  0.51100000000E-03 0.  1.
        -11    1    4    4    0    0  0.28308444329E+02  0.45123105287E+01  0.85964253490E+01  0.29927036199E+02  0.51100000000E-03 0. -1.
        -12    1    4    4    0    0 -0.75223472091E+01 -0.41356721081E+01  0.27272358670E+01  0.90070698229E+01  0.00000000000E+00 0.  1.
</event>
<event>
 8    1  0.2530183E-006  0.9118800E+02  0.7816164E-02  0.1184000E+00
        -11   -1    0    0    0    0  0.00000000000E+00  0.00000000000E+00  0.45593999997E+02  0.45594000000E+02  0.51100000000E-03 0.  1.
         11   -1    0    0    0    0 -0.00000000000E+00 -0.00000000000E+00 -0.45593999997E+02  0.45594000000E+02  0.51100000000E-03 0. -1.
         23    2    1    2    0    0  0.00000000000E+00  0.00000000000E+00  0.00000000000E+00  0.91188000000E+02  0.91188000000E+02 0.  0.
    9900012    2    3    3    0    0  0.18233083428E+02 -0.24904274642E+02 -0.20077626782E+02  0.54367091213E+02  0.40000016038E+02 0.  0.
        -12    1    3    3    0    0 -0.18233083428E+02  0.24904274642E+02  0.20077626782E+02  0.36820908787E+02  0.00000000000E+00 0.  1.
         11    1    4    4    0    0  0.16002028394E+02 -0.99750384255E+01 -0.20278115173E+02  0.27690580701E+02  0.51100000000E-03 0. -1.
        -11    1    4    4    0    0  0.55448892454E+01  0.36791145762E+01  0.34539464046E+01  0.74974280147E+01  0.51100000000E-03 0.  1.
         12    1    4    4    0    0 -0.33138342119E+01 -0.18608350792E+02 -0.32534580132E+01  0.19179082497E+02  0.00000000000E+00 0. -1.
</event>
<event>
 8    1  0.2530183E-006  0.9118800E+02  0.7816164E-02  0.1184000E+00
        -11   -1    0    0    0    0  0.00000000000E+00  0.00000000000E+00  0.45593999997E+02  0.45594000000E+02  0.51100000000E-03 0.  1.
         11   -1    0    0    0    0 -0.00000000000E+00 -0.00000000000E+00 -0.45593999997E+02  0.45594000000E+02  0.51100000000E-03 0. -1.
         23    2    1    2    0    0  0.33306690739E-15  0.71054273576E-14  0.00000000000E+00  0.91188000000E+02  0.91188000000E+02 0.  0.
    9900012    2    3    3    0    0 -0.21470406695E+00 -0.33481267007E+02 -0.15321176389E+02  0.54367084963E+02  0.40000001789E+02 0.  0.
        -12    1    3    3    0    0  0.21470406695E+00  0.33481267007E+02  0.15321176389E+02  0.36820915037E+02  0.00000000000E+00 0.  1.
         11    1    4    4    0    0 -0.83946247816E+01 -0.27532415885E+02 -0.80430536656E+01  0.29886357460E+02  0.51100000000E-03 0. -1.
        -11    1    4    4    0    0  0.19152878449E+00  0.62807434707E+01 -0.76106894540E+01  0.98694992804E+01  0.51100000000E-03 0.  1.
         12    1    4    4    0    0  0.79883919302E+01 -0.12229594593E+02  0.33256673048E+00  0.14611228222E+02  0.00000000000E+00 0. -1.
</event>
<event>
 8    1  0.2530183E-006  0.9118800E+02  0.7816164E-02  0.1184000E+00
        -11   -1    0    0    0    0  0.00000000000E+00  0.00000000000E+00  0.45593999997E+02  0.45594000000E+02  0.51100000000E-03 0.  1.
         11   -1    0    0    0    0 -0.00000000000E+00 -0.00000000000E+00 -0.45593999997E+02  0.45594000000E+02  0.51100000000E-03 0. -1.
         23    2    1    2    0    0  0.35527136788E-14  0.35527136788E-14 -0.17763568394E-14  0.91188000000E+02  0.91188000000E+02 0.  0.
    9900012    2    3    3    0    0 -0.31253657395E+02 -0.16174763247E+02  0.10833568847E+02  0.54367078221E+02  0.39999986421E+02 0.  0.
         12    1    3    3    0    0  0.31253657395E+02  0.16174763247E+02 -0.10833568847E+02  0.36820921779E+02  0.00000000000E+00 0. -1.
         11    1    4    4    0    0 -0.60977267996E+01  0.57709667289E+01 -0.83315082779E+01  0.11827948239E+02  0.51100000000E-03 0. -1.
        -11    1    4    4    0    0 -0.20924620109E+02 -0.77084992643E+01  0.70962505058E+01  0.23401227727E+02  0.51100000000E-03 0.  1.
         12    1    4    4    0    0 -0.42313104865E+01 -0.14237230711E+02  0.12068826619E+02  0.19137902255E+02  0.00000000000E+00 0. -1.
</event>
<event>
 8    1  0.2530183E-006  0.9118800E+02  0.7816164E-02  0.1184000E+00
        -11   -1    0    0    0    0  0.00000000000E+00  0.00000000000E+00  0.45593999997E+02  0.45594000000E+02  0.51100000000E-03 0.  1.
         11   -1    0    0    0    0 -0.00000000000E+00 -0.00000000000E+00 -0.45593999997E+02  0.45594000000E+02  0.51100000000E-03 0. -1.
         23    2    1    2    0    0  0.35527136788E-14  0.00000000000E+00 -0.17763568394E-14  0.91188000000E+02  0.91188000000E+02 0.  0.
    9900012    2    3    3    0    0  0.30783126676E+02 -0.19321761589E+02 -0.59032934315E+01  0.54367078879E+02  0.39999987920E+02 0.  0.
        -12    1    3    3    0    0 -0.30783126676E+02  0.19321761589E+02  0.59032934315E+01  0.36820921121E+02  0.00000000000E+00 0.  1.
         11    1    4    4    0    0  0.26560131966E+02 -0.18452394281E+02 -0.89687949316E+01  0.33561447340E+02  0.51100000000E-03 0. -1.
        -11    1    4    4    0    0 -0.52563254899E+01  0.85812975877E+00 -0.56848039791E+01  0.77898870904E+01  0.51100000000E-03 0.  1.
        -12    1    4    4    0    0  0.94793202003E+01 -0.17274970664E+01  0.87503054793E+01  0.13015744449E+02  0.00000000000E+00 0.  1.
</event>
<event>
 8    1  0.2530183E-006  0.9118800E+02  0.7816164E-02  0.1184000E+00
        -11   -1    0    0    0    0  0.00000000000E+00  0.00000000000E+00  0.45593999997E+02  0.45594000000E+02  0.51100000000E-03 0. -1.
         11   -1    0    0    0    0 -0.00000000000E+00 -0.00000000000E+00 -0.45593999997E+02  0.45594000000E+02  0.51100000000E-03 0.  1.
         23    2    1    2    0    0  0.00000000000E+00 -0.17763568394E-14  0.00000000000E+00  0.91188000000E+02  0.91188000000E+02 0.  0.
    9900012    2    3    3    0    0  0.14697719431E+02  0.96952622171E+01 -0.32338199518E+02  0.54367079126E+02  0.39999988483E+02 0.  0.
         12    1    3    3    0    0 -0.14697719431E+02 -0.96952622171E+01  0.32338199518E+02  0.36820920874E+02  0.00000000000E+00 0. -1.
         11    1    4    4    0    0  0.50724319292E+01  0.13659967792E+02 -0.18368635544E+01  0.14686672657E+02  0.51100000000E-03 0. -1.
        -11    1    4    4    0    0  0.13712119810E+02 -0.16016825696E+01 -0.31898018105E+02  0.34757318308E+02  0.51100000000E-03 0.  1.
        -12    1    4    4    0    0 -0.40868323080E+01 -0.23630230050E+01  0.13966821405E+01  0.49230881607E+01  0.00000000000E+00 0.  1.
</event>
<event>
 8    1  0.2530183E-006  0.9118800E+02  0.7816164E-02  0.1184000E+00
        -11   -1    0    0    0    0  0.00000000000E+00  0.00000000000E+00  0.45593999997E+02  0.45594000000E+02  0.51100000000E-03 0. -1.
         11   -1    0    0    0    0 -0.00000000000E+00 -0.00000000000E+00 -0.45593999997E+02  0.45594000000E+02  0.51100000000E-03 0.  1.
         23    2    1    2    0    0  0.35527136788E-14  0.35527136788E-14  0.17763568394E-14  0.91188000000E+02  0.91188000000E+02 0.  0.
    9900012    2    3    3    0    0  0.13510885971E+02  0.31138410498E+02  0.14270103980E+02  0.54367075029E+02  0.39999979144E+02 0.  0.
        -12    1    3    3    0    0 -0.13510885971E+02 -0.31138410498E+02 -0.14270103980E+02  0.36820924971E+02  0.00000000000E+00 0.  1.
         11    1    4    4    0    0  0.16811516591E+02  0.31431353066E+02  0.14667943278E+02  0.38544851873E+02  0.51100000000E-03 0. -1.
        -11    1    4    4    0    0  0.33241747747E+01  0.50598031560E+01 -0.32106375043E+01  0.68527322548E+01  0.51100000000E-03 0.  1.
        -12    1    4    4    0    0 -0.66248053941E+01 -0.53527457233E+01  0.28127982067E+01  0.89694909019E+01  0.00000000000E+00 0.  1.
</event>
<event>
 8    1  0.2530183E-006  0.9118800E+02  0.7816164E-02  0.1184000E+00
        -11   -1    0    0    0    0  0.00000000000E+00  0.00000000000E+00  0.45593999997E+02  0.45594000000E+02  0.51100000000E-03 0.  1.
         11   -1    0    0    0    0 -0.00000000000E+00 -0.00000000000E+00 -0.45593999997E+02  0.45594000000E+02  0.51100000000E-03 0. -1.
         23    2    1    2    0    0  0.22204460493E-15 -0.71054273576E-14  0.35527136788E-14  0.91188000000E+02  0.91188000000E+02 0.  0.
    9900012    2    3    3    0    0 -0.15724058861E+01  0.30459934477E+02 -0.20627671163E+02  0.54367069998E+02  0.39999967674E+02 0.  0.
         12    1    3    3    0    0  0.15724058861E+01 -0.30459934477E+02  0.20627671163E+02  0.36820930002E+02  0.00000000000E+00 0. -1.
         11    1    4    4    0    0 -0.13282924639E+02  0.46861526527E+00 -0.83566321758E+01  0.15699967796E+02  0.51100000000E-03 0. -1.
        -11    1    4    4    0    0 -0.33922406927E+01  0.13301775528E+02 -0.18097513948E+01  0.13846289376E+02  0.51100000000E-03 0.  1.
        -12    1    4    4    0    0  0.15102759445E+02  0.16689543684E+02 -0.10461287592E+02  0.24820812826E+02  0.00000000000E+00 0.  1.
</event>
<event>
 8    1  0.2530183E-006  0.9118800E+02  0.7816164E-02  0.1184000E+00
        -11   -1    0    0    0    0  0.00000000000E+00  0.00000000000E+00  0.45593999997E+02  0.45594000000E+02  0.51100000000E-03 0.  1.
         11   -1    0    0    0    0 -0.00000000000E+00 -0.00000000000E+00 -0.45593999997E+02  0.45594000000E+02  0.51100000000E-03 0. -1.
         23    2    1    2    0    0 -0.10658141036E-13  0.00000000000E+00  0.35527136788E-14  0.91188000000E+02  0.91188000000E+02 0.  0.
    9900012    2    3    3    0    0  0.27694147381E+02  0.10837740492E+02 -0.21710751483E+02  0.54367093601E+02  0.40000021481E+02 0.  0.
        -12    1    3    3    0    0 -0.27694147381E+02 -0.10837740492E+02  0.21710751483E+02  0.36820906399E+02  0.00000000000E+00 0.  1.
         11    1    4    4    0    0 -0.68168754120E+01  0.21046908328E+01 -0.27180624748E+01  0.76346170672E+01  0.51100000000E-03 0. -1.
        -11    1    4    4    0    0  0.12785186661E+01 -0.57491324236E+01 -0.18377477865E+00  0.58924449114E+01  0.51100000000E-03 0.  1.
         12    1    4    4    0    0  0.33232504127E+02  0.14482182082E+02 -0.18808914229E+02  0.40840031622E+02  0.00000000000E+00 0. -1.
</event>
<event>
 8    1  0.2530183E-006  0.9118800E+02  0.7816164E-02  0.1184000E+00
        -11   -1    0    0    0    0  0.00000000000E+00  0.00000000000E+00  0.45593999997E+02  0.45594000000E+02  0.51100000000E-03 0.  1.
         11   -1    0    0    0    0 -0.00000000000E+00 -0.00000000000E+00 -0.45593999997E+02  0.45594000000E+02  0.51100000000E-03 0. -1.
         23    2    1    2    0    0  0.88817841970E-15  0.35527136788E-14 -0.35527136788E-14  0.91188000000E+02  0.91188000000E+02 0.  0.
    9900012    2    3    3    0    0  0.72359018974E+01  0.20320255799E+02 -0.29841394739E+02  0.54367083227E+02  0.39999997833E+02 0.  0.
        -12    1    3    3    0    0 -0.72359018974E+01 -0.20320255799E+02  0.29841394739E+02  0.36820916773E+02  0.00000000000E+00 0.  1.
         11    1    4    4    0    0  0.84101053918E+01  0.13356725165E+02 -0.29170023253E+02  0.33166583132E+02  0.51100000000E-03 0. -1.
        -11    1    4    4    0    0 -0.24821890663E+01 -0.14211942060E+01 -0.89192023931E+01  0.93666016848E+01  0.51100000000E-03 0.  1.
        -12    1    4    4    0    0  0.13079855719E+01  0.83847248408E+01  0.82478309068E+01  0.11833898410E+02  0.00000000000E+00 0.  1.
</event>
<event>
 8    1  0.2530183E-006  0.9118800E+02  0.7816164E-02  0.1184000E+00
        -11   -1    0    0    0    0  0.00000000000E+00  0.00000000000E+00  0.45593999997E+02  0.45594000000E+02  0.51100000000E-03 0.  1.
         11   -1    0    0    0    0 -0.00000000000E+00 -0.00000000000E+00 -0.45593999997E+02  0.45594000000E+02  0.51100000000E-03 0. -1.
         23    2    1    2    0    0  0.00000000000E+00 -0.22204460493E-14 -0.88817841970E-15  0.91188000000E+02  0.91188000000E+02 0.  0.
    9900012    2    3    3    0    0  0.36530257890E+02  0.17226901344E+01  0.42843735534E+01  0.54367037769E+02  0.39999894203E+02 0.  0.
         12    1    3    3    0    0 -0.36530257890E+02 -0.17226901344E+01 -0.42843735534E+01  0.36820962231E+02  0.00000000000E+00 0. -1.
         11    1    4    4    0    0  0.20929538099E+00  0.11544317892E+02  0.50321026575E+01  0.12595123563E+02  0.51100000000E-03 0. -1.
        -11    1    4    4    0    0  0.17362700128E+02 -0.84784416742E+01  0.79207026510E+01  0.20882644941E+02  0.51100000000E-03 0.  1.
         12    1    4    4    0    0  0.18958262381E+02 -0.13431860835E+01 -0.86684317551E+01  0.20889269266E+02  0.00000000000E+00 0. -1.
</event>
<event>
 8    1  0.2530183E-006  0.9118800E+02  0.7816164E-02  0.1184000E+00
        -11   -1    0    0    0    0  0.00000000000E+00  0.00000000000E+00  0.45593999997E+02  0.45594000000E+02  0.51100000000E-03 0.  1.
         11   -1    0    0    0    0 -0.00000000000E+00 -0.00000000000E+00 -0.45593999997E+02  0.45594000000E+02  0.51100000000E-03 0. -1.
         23    2    1    2    0    0  0.35527136788E-14 -0.35527136788E-14 -0.35527136788E-14  0.91188000000E+02  0.91188000000E+02 0.  0.
    9900012    2    3    3    0    0  0.23896147327E+02 -0.20499598648E+02 -0.19092375688E+02  0.54367106322E+02  0.40000050483E+02 0.  0.
        -12    1    3    3    0    0 -0.23896147327E+02  0.20499598648E+02  0.19092375688E+02  0.36820893678E+02  0.00000000000E+00 0.  1.
         11    1    4    4    0    0 -0.28738150550E+01 -0.67275895300E+01 -0.14347165773E+02  0.16104671366E+02  0.51100000000E-03 0. -1.
        -11    1    4    4    0    0  0.37162308958E+00  0.14775433501E+01 -0.74987199847E+01  0.76519304585E+01  0.51100000000E-03 0.  1.
         12    1    4    4    0    0  0.26398339292E+02 -0.15249552468E+02  0.27535100689E+01  0.30610504497E+02  0.00000000000E+00 0. -1.
</event>
<event>
 8    1  0.2530183E-006  0.9118800E+02  0.7816164E-02  0.1184000E+00
        -11   -1    0    0    0    0  0.00000000000E+00  0.00000000000E+00  0.45593999997E+02  0.45594000000E+02  0.51100000000E-03 0.  1.
         11   -1    0    0    0    0 -0.00000000000E+00 -0.00000000000E+00 -0.45593999997E+02  0.45594000000E+02  0.51100000000E-03 0. -1.
         23    2    1    2    0    0  0.00000000000E+00  0.00000000000E+00  0.00000000000E+00  0.91188000000E+02  0.91188000000E+02 0.  0.
    9900012    2    3    3    0    0 -0.12209143157E+02 -0.32161440777E+02  0.13128631124E+02  0.54367049379E+02  0.39999920669E+02 0.  0.
        -12    1    3    3    0    0  0.12209143157E+02  0.32161440777E+02 -0.13128631124E+02  0.36820950621E+02  0.00000000000E+00 0.  1.
         11    1    4    4    0    0 -0.24849387016E+02 -0.11217759185E+02  0.10302376700E+02  0.29145653572E+02  0.51100000000E-03 0. -1.
        -11    1    4    4    0    0  0.10055103647E+02 -0.12660436587E+02  0.34143644524E+01  0.16524214015E+02  0.51100000000E-03 0.  1.
         12    1    4    4    0    0  0.25851402124E+01 -0.82832450047E+01 -0.58811002848E+00  0.86971817925E+01  0.00000000000E+00 0. -1.
</event>
<event>
 8    1  0.2530183E-006  0.9118800E+02  0.7816164E-02  0.1184000E+00
        -11   -1    0    0    0    0  0.00000000000E+00  0.00000000000E+00  0.45593999997E+02  0.45594000000E+02  0.51100000000E-03 0.  1.
         11   -1    0    0    0    0 -0.00000000000E+00 -0.00000000000E+00 -0.45593999997E+02  0.45594000000E+02  0.51100000000E-03 0. -1.
         23    2    1    2    0    0  0.00000000000E+00  0.00000000000E+00  0.17763568394E-14  0.91188000000E+02  0.91188000000E+02 0.  0.
    9900012    2    3    3    0    0 -0.32230175673E+02 -0.10113937592E+02  0.14652759152E+02  0.54367091425E+02  0.40000016522E+02 0.  0.
         12    1    3    3    0    0  0.32230175673E+02  0.10113937592E+02 -0.14652759152E+02  0.36820908575E+02  0.00000000000E+00 0. -1.
         11    1    4    4    0    0 -0.77841619863E+01 -0.19505046994E+02  0.83915621991E+01  0.22615444998E+02  0.51100000000E-03 0. -1.
        -11    1    4    4    0    0 -0.20733510955E+02  0.11858458220E+01 -0.27233204389E-01  0.20767413145E+02  0.51100000000E-03 0.  1.
        -12    1    4    4    0    0 -0.37125027314E+01  0.82052635800E+01  0.62884301575E+01  0.10984233282E+02  0.00000000000E+00 0.  1.
</event>
<event>
 8    1  0.2530183E-006  0.9118800E+02  0.7816164E-02  0.1184000E+00
        -11   -1    0    0    0    0  0.00000000000E+00  0.00000000000E+00  0.45593999997E+02  0.45594000000E+02  0.51100000000E-03 0.  1.
         11   -1    0    0    0    0 -0.00000000000E+00 -0.00000000000E+00 -0.45593999997E+02  0.45594000000E+02  0.51100000000E-03 0. -1.
         23    2    1    2    0    0  0.00000000000E+00  0.35527136788E-14  0.00000000000E+00  0.91188000000E+02  0.91188000000E+02 0.  0.
    9900012    2    3    3    0    0 -0.30270715477E+02 -0.18731447395E+02  0.94125719153E+01  0.54367084109E+02  0.39999999843E+02 0.  0.
         12    1    3    3    0    0  0.30270715477E+02  0.18731447395E+02 -0.94125719153E+01  0.36820915891E+02  0.00000000000E+00 0. -1.
         11    1    4    4    0    0  0.46431616202E+01  0.18022766509E+01 -0.52788750737E+00  0.50085742921E+01  0.51100000000E-03 0. -1.
        -11    1    4    4    0    0 -0.48755410855E+01  0.63578106444E+01  0.21541999133E+01  0.82965796925E+01  0.51100000000E-03 0.  1.
        -12    1    4    4    0    0 -0.30038336012E+02 -0.26891534691E+02  0.77862595094E+01  0.41061930124E+02  0.00000000000E+00 0.  1.
</event>
<event>
 8    1  0.2530183E-006  0.9118800E+02  0.7816164E-02  0.1184000E+00
        -11   -1    0    0    0    0  0.00000000000E+00  0.00000000000E+00  0.45593999997E+02  0.45594000000E+02  0.51100000000E-03 0.  1.
         11   -1    0    0    0    0 -0.00000000000E+00 -0.00000000000E+00 -0.45593999997E+02  0.45594000000E+02  0.51100000000E-03 0. -1.
         23    2    1    2    0    0  0.00000000000E+00  0.00000000000E+00  0.44408920985E-15  0.91188000000E+02  0.91188000000E+02 0.  0.
    9900012    2    3    3    0    0  0.10925810935E+02  0.34950091501E+02  0.38597494880E+01  0.54367083300E+02  0.39999997999E+02 0.  0.
        -12    1    3    3    0    0 -0.10925810935E+02 -0.34950091501E+02 -0.38597494880E+01  0.36820916700E+02  0.00000000000E+00 0.  1.
         11    1    4    4    0    0  0.39532806958E+01  0.93974334569E+01 -0.59962799005E+01  0.11827745210E+02  0.51100000000E-03 0. -1.
        -11    1    4    4    0    0  0.36083666894E+01  0.20235067593E+02  0.21224356535E+02  0.29545754031E+02  0.51100000000E-03 0.  1.
        -12    1    4    4    0    0  0.33641635499E+01  0.53175904512E+01 -0.11368327147E+02  0.12993584059E+02  0.00000000000E+00 0.  1.
</event>
<event>
 8    1  0.2530183E-006  0.9118800E+02  0.7816164E-02  0.1184000E+00
        -11   -1    0    0    0    0  0.00000000000E+00  0.00000000000E+00  0.45593999997E+02  0.45594000000E+02  0.51100000000E-03 0. -1.
         11   -1    0    0    0    0 -0.00000000000E+00 -0.00000000000E+00 -0.45593999997E+02  0.45594000000E+02  0.51100000000E-03 0.  1.
         23    2    1    2    0    0  0.00000000000E+00 -0.17763568394E-14 -0.35527136788E-14  0.91188000000E+02  0.91188000000E+02 0.  0.
    9900012    2    3    3    0    0 -0.22362007728E+02 -0.13177224696E+02  0.26116776430E+02  0.54367018869E+02  0.39999851116E+02 0.  0.
        -12    1    3    3    0    0  0.22362007728E+02  0.13177224696E+02 -0.26116776430E+02  0.36820981131E+02  0.00000000000E+00 0.  1.
         11    1    4    4    0    0 -0.20048471687E+02 -0.40747183836E+01  0.15276129615E+02  0.25532424154E+02  0.51100000000E-03 0. -1.
        -11    1    4    4    0    0 -0.79355268208E+01 -0.23167668227E+01  0.16434791405E+02  0.18396803071E+02  0.51100000000E-03 0.  1.
        -12    1    4    4    0    0  0.56219907793E+01 -0.67857394892E+01 -0.55941445898E+01  0.10437791645E+02  0.00000000000E+00 0.  1.
</event>
<event>
 8    1  0.2530183E-006  0.9118800E+02  0.7816164E-02  0.1184000E+00
        -11   -1    0    0    0    0  0.00000000000E+00  0.00000000000E+00  0.45593999997E+02  0.45594000000E+02  0.51100000000E-03 0. -1.
         11   -1    0    0    0    0 -0.00000000000E+00 -0.00000000000E+00 -0.45593999997E+02  0.45594000000E+02  0.51100000000E-03 0.  1.
         23    2    1    2    0    0  0.00000000000E+00 -0.44408920985E-15 -0.71054273576E-14  0.91188000000E+02  0.91188000000E+02 0.  0.
    9900012    2    3    3    0    0 -0.21079491603E+02  0.22387869906E+01 -0.30106869508E+02  0.54367072187E+02  0.39999972664E+02 0.  0.
         12    1    3    3    0    0  0.21079491603E+02 -0.22387869906E+01  0.30106869508E+02  0.36820927813E+02  0.00000000000E+00 0. -1.
         11    1    4    4    0    0 -0.14190917319E+02 -0.26166255306E+01  0.66021350256E+01  0.15868744459E+02  0.51100000000E-03 0. -1.
        -11    1    4    4    0    0 -0.23088371411E+01  0.62820466904E+01 -0.18708108102E+02  0.19869276498E+02  0.51100000000E-03 0.  1.
         12    1    4    4    0    0 -0.45797371425E+01 -0.14266341692E+01 -0.18000896432E+02  0.18629051230E+02  0.00000000000E+00 0. -1.
</event>
<event>
 8    1  0.2530183E-006  0.9118800E+02  0.7816164E-02  0.1184000E+00
        -11   -1    0    0    0    0  0.00000000000E+00  0.00000000000E+00  0.45593999997E+02  0.45594000000E+02  0.51100000000E-03 0.  1.
         11   -1    0    0    0    0 -0.00000000000E+00 -0.00000000000E+00 -0.45593999997E+02  0.45594000000E+02  0.51100000000E-03 0. -1.
         23    2    1    2    0    0  0.71054273576E-14  0.22204460493E-15  0.71054273576E-14  0.91188000000E+02  0.91188000000E+02 0.  0.
    9900012    2    3    3    0    0  0.25419680782E+02  0.14341229692E+01  0.26600067350E+02  0.54367075748E+02  0.39999980783E+02 0.  0.
         12    1    3    3    0    0 -0.25419680782E+02 -0.14341229692E+01 -0.26600067350E+02  0.36820924252E+02  0.00000000000E+00 0. -1.
         11    1    4    4    0    0 -0.89793702423E+01  0.21156522675E+01 -0.12995898705E+01  0.93163302087E+01  0.51100000000E-03 0.  1.
        -11    1    4    4    0    0  0.46468845663E+01  0.75542392530E+00  0.78878044101E+00  0.47735077589E+01  0.51100000000E-03 0. -1.
        -12    1    4    4    0    0  0.29752166458E+02 -0.14369532236E+01  0.27110876779E+02  0.40277237781E+02  0.00000000000E+00 0.  1.
</event>
<event>
 8    1  0.2530183E-006  0.9118800E+02  0.7816164E-02  0.1184000E+00
        -11   -1    0    0    0    0  0.00000000000E+00  0.00000000000E+00  0.45593999997E+02  0.45594000000E+02  0.51100000000E-03 0. -1.
         11   -1    0    0    0    0 -0.00000000000E+00 -0.00000000000E+00 -0.45593999997E+02  0.45594000000E+02  0.51100000000E-03 0.  1.
         23    2    1    2    0    0  0.00000000000E+00  0.00000000000E+00  0.35527136788E-14  0.91188000000E+02  0.91188000000E+02 0.  0.
    9900012    2    3    3    0    0 -0.14988993928E+02 -0.20037142407E+02  0.27011523513E+02  0.54367089945E+02  0.40000013147E+02 0.  0.
        -12    1    3    3    0    0  0.14988993928E+02  0.20037142407E+02 -0.27011523513E+02  0.36820910055E+02  0.00000000000E+00 0.  1.
         11    1    4    4    0    0  0.73745768831E+01 -0.21474309845E+02  0.10283649521E+02  0.24925565495E+02  0.51100000000E-03 0. -1.
        -11    1    4    4    0    0 -0.14951656084E+02 -0.23312978516E+01  0.70850833832E+01  0.16708841257E+02  0.51100000000E-03 0.  1.
         12    1    4    4    0    0 -0.74119147267E+01  0.37684652899E+01  0.96427906090E+01  0.12732683193E+02  0.00000000000E+00 0. -1.
</event>
<event>
 8    1  0.2530183E-006  0.9118800E+02  0.7816164E-02  0.1184000E+00
        -11   -1    0    0    0    0  0.00000000000E+00  0.00000000000E+00  0.45593999997E+02  0.45594000000E+02  0.51100000000E-03 0.  1.
         11   -1    0    0    0    0 -0.00000000000E+00 -0.00000000000E+00 -0.45593999997E+02  0.45594000000E+02  0.51100000000E-03 0. -1.
         23    2    1    2    0    0  0.00000000000E+00  0.00000000000E+00 -0.17763568394E-14  0.91188000000E+02  0.91188000000E+02 0.  0.
    9900012    2    3    3    0    0 -0.78374695297E+01  0.34959162578E+02  0.84977696565E+01  0.54367067558E+02  0.39999962112E+02 0.  0.
        -12    1    3    3    0    0  0.78374695297E+01 -0.34959162578E+02 -0.84977696565E+01  0.36820932442E+02  0.00000000000E+00 0.  1.
         11    1    4    4    0    0  0.21397474695E+01  0.46414563810E+01  0.77374691585E+01  0.92730828644E+01  0.51100000000E-03 0. -1.
        -11    1    4    4    0    0 -0.51601176774E+01  0.19117377329E+02  0.16084674502E+02  0.25511128640E+02  0.51100000000E-03 0.  1.
         12    1    4    4    0    0 -0.48170993217E+01  0.11200328868E+02 -0.15324374004E+02  0.19582856054E+02  0.00000000000E+00 0. -1.
</event>
<event>
 8    1  0.2530183E-006  0.9118800E+02  0.7816164E-02  0.1184000E+00
        -11   -1    0    0    0    0  0.00000000000E+00  0.00000000000E+00  0.45593999997E+02  0.45594000000E+02  0.51100000000E-03 0.  1.
         11   -1    0    0    0    0 -0.00000000000E+00 -0.00000000000E+00 -0.45593999997E+02  0.45594000000E+02  0.51100000000E-03 0. -1.
         23    2    1    2    0    0  0.35527136788E-14  0.88817841970E-15  0.00000000000E+00  0.91188000000E+02  0.91188000000E+02 0.  0.
    9900012    2    3    3    0    0  0.21494514333E+02  0.60112780329E+01 -0.29285324414E+02  0.54367084259E+02  0.40000000184E+02 0.  0.
        -12    1    3    3    0    0 -0.21494514333E+02 -0.60112780329E+01  0.29285324414E+02  0.36820915741E+02  0.00000000000E+00 0.  1.
         11    1    4    4    0    0  0.47665228308E+01  0.75970851942E+01 -0.12509616249E+02  0.15392398848E+02  0.51100000000E-03 0. -1.
        -11    1    4    4    0    0 -0.39154118397E+01 -0.13858778697E+01  0.65935959293E+01  0.77927283338E+01  0.51100000000E-03 0.  1.
         12    1    4    4    0    0  0.20643403342E+02 -0.19992929158E+00 -0.23369304095E+02  0.31181957076E+02  0.00000000000E+00 0. -1.
</event>
<event>
 8    1  0.2530183E-006  0.9118800E+02  0.7816164E-02  0.1184000E+00
        -11   -1    0    0    0    0  0.00000000000E+00  0.00000000000E+00  0.45593999997E+02  0.45594000000E+02  0.51100000000E-03 0.  1.
         11   -1    0    0    0    0 -0.00000000000E+00 -0.00000000000E+00 -0.45593999997E+02  0.45594000000E+02  0.51100000000E-03 0. -1.
         23    2    1    2    0    0  0.00000000000E+00  0.35527136788E-14  0.00000000000E+00  0.91188000000E+02  0.91188000000E+02 0.  0.
    9900012    2    3    3    0    0  0.84890419262E+01 -0.30566306437E+02  0.18692698398E+02  0.54367083452E+02  0.39999998346E+02 0.  0.
         12    1    3    3    0    0 -0.84890419262E+01  0.30566306437E+02 -0.18692698398E+02  0.36820916548E+02  0.00000000000E+00 0. -1.
         11    1    4    4    0    0 -0.11710067923E+01 -0.70670770876E+01 -0.61053279606E+01  0.94122189327E+01  0.51100000000E-03 0. -1.
        -11    1    4    4    0    0  0.37527369740E+01  0.50129881311E+01 -0.63447542347E+00  0.62940959734E+01  0.51100000000E-03 0.  1.
        -12    1    4    4    0    0  0.59073117445E+01 -0.28512217480E+02  0.25432501782E+02  0.38660768546E+02  0.00000000000E+00 0.  1.
</event>
<event>
 8    1  0.2530183E-006  0.9118800E+02  0.7816164E-02  0.1184000E+00
        -11   -1    0    0    0    0  0.00000000000E+00  0.00000000000E+00  0.45593999997E+02  0.45594000000E+02  0.51100000000E-03 0. -1.
         11   -1    0    0    0    0 -0.00000000000E+00 -0.00000000000E+00 -0.45593999997E+02  0.45594000000E+02  0.51100000000E-03 0.  1.
         23    2    1    2    0    0  0.71054273576E-14  0.88817841970E-15  0.00000000000E+00  0.91188000000E+02  0.91188000000E+02 0.  0.
    9900012    2    3    3    0    0 -0.32191859720E+02  0.47387428166E+01  0.17233917045E+02  0.54367090011E+02  0.40000013297E+02 0.  0.
        -12    1    3    3    0    0  0.32191859720E+02 -0.47387428166E+01 -0.17233917045E+02  0.36820909989E+02  0.00000000000E+00 0.  1.
         11    1    4    4    0    0 -0.13102415834E+02  0.88399743074E+01 -0.25634793481E+01  0.16012178898E+02  0.51100000000E-03 0.  1.
        -11    1    4    4    0    0  0.27544902113E+01 -0.38571048923E+01  0.15345250170E+02  0.16060547236E+02  0.51100000000E-03 0. -1.
         12    1    4    4    0    0 -0.21843934098E+02 -0.24412659852E+00  0.44521462232E+01  0.22294363877E+02  0.00000000000E+00 0. -1.
</event>
<event>
 8    1  0.2530183E-006  0.9118800E+02  0.7816164E-02  0.1184000E+00
        -11   -1    0    0    0    0  0.00000000000E+00  0.00000000000E+00  0.45593999997E+02  0.45594000000E+02  0.51100000000E-03 0. -1.
         11   -1    0    0    0    0 -0.00000000000E+00 -0.00000000000E+00 -0.45593999997E+02  0.45594000000E+02  0.51100000000E-03 0.  1.
         23    2    1    2    0    0  0.00000000000E+00  0.00000000000E+00  0.00000000000E+00  0.91188000000E+02  0.91188000000E+02 0.  0.
    9900012    2    3    3    0    0 -0.52558715312E+01  0.10621333605E+02  0.34861775655E+02  0.54367077756E+02  0.39999985359E+02 0.  0.
        -12    1    3    3    0    0  0.52558715312E+01 -0.10621333605E+02 -0.34861775655E+02  0.36820922244E+02  0.00000000000E+00 0.  1.
         11    1    4    4    0    0  0.87660305086E+00  0.47387482898E-01  0.30386146208E+02  0.30398824979E+02  0.51100000000E-03 0. -1.
        -11    1    4    4    0    0 -0.13403851498E+02  0.58899659977E+01  0.10954140029E+01  0.14681786898E+02  0.51100000000E-03 0.  1.
         12    1    4    4    0    0  0.72713769157E+01  0.46839801245E+01  0.33802154444E+01  0.92864658782E+01  0.00000000000E+00 0. -1.
</event>
<event>
 8    1  0.2530183E-006  0.9118800E+02  0.7816164E-02  0.1184000E+00
        -11   -1    0    0    0    0  0.00000000000E+00  0.00000000000E+00  0.45593999997E+02  0.45594000000E+02  0.51100000000E-03 0.  1.
         11   -1    0    0    0    0 -0.00000000000E+00 -0.00000000000E+00 -0.45593999997E+02  0.45594000000E+02  0.51100000000E-03 0. -1.
         23    2    1    2    0    0  0.00000000000E+00 -0.35527136788E-14  0.00000000000E+00  0.91188000000E+02  0.91188000000E+02 0.  0.
    9900012    2    3    3    0    0  0.11433633752E+02  0.30865080025E+02  0.16504505143E+02  0.54367084262E+02  0.40000000193E+02 0.  0.
         12    1    3    3    0    0 -0.11433633752E+02 -0.30865080025E+02 -0.16504505143E+02  0.36820915738E+02  0.00000000000E+00 0. -1.
         11    1    4    4    0    0  0.90756258560E+01  0.25230912964E+02  0.23412106135E+02  0.35596245134E+02  0.51100000000E-03 0. -1.
        -11    1    4    4    0    0  0.59830553481E+01  0.88229499419E+01 -0.39987973396E+00  0.10667769263E+02  0.51100000000E-03 0.  1.
         12    1    4    4    0    0 -0.36250474525E+01 -0.31887828807E+01 -0.65077212575E+01  0.81030698663E+01  0.00000000000E+00 0. -1.
</event>
<event>
 8    1  0.2530183E-006  0.9118800E+02  0.7816164E-02  0.1184000E+00
        -11   -1    0    0    0    0  0.00000000000E+00  0.00000000000E+00  0.45593999997E+02  0.45594000000E+02  0.51100000000E-03 0. -1.
         11   -1    0    0    0    0 -0.00000000000E+00 -0.00000000000E+00 -0.45593999997E+02  0.45594000000E+02  0.51100000000E-03 0.  1.
         23    2    1    2    0    0  0.44408920985E-15  0.35527136788E-14  0.35527136788E-14  0.91188000000E+02  0.91188000000E+02 0.  0.
    9900012    2    3    3    0    0 -0.33276808451E+01 -0.22311271466E+02 -0.29101779413E+02  0.54367083943E+02  0.39999999466E+02 0.  0.
        -12    1    3    3    0    0  0.33276808451E+01  0.22311271466E+02  0.29101779413E+02  0.36820916057E+02  0.00000000000E+00 0.  1.
         11    1    4    4    0    0  0.39313652815E+01  0.72613361875E+01 -0.80876397009E+01  0.11558224448E+02  0.51100000000E-03 0.  1.
        -11    1    4    4    0    0  0.75222629570E+01 -0.69173609837E+01 -0.64821350584E+01  0.12101751863E+02  0.51100000000E-03 0. -1.
        -12    1    4    4    0    0 -0.14781309084E+02 -0.22655246670E+02 -0.14532004654E+02  0.30707107632E+02  0.00000000000E+00 0.  1.
</event>
<event>
 8    1  0.2530183E-006  0.9118800E+02  0.7816164E-02  0.1184000E+00
        -11   -1    0    0    0    0  0.00000000000E+00  0.00000000000E+00  0.45593999997E+02  0.45594000000E+02  0.51100000000E-03 0. -1.
         11   -1    0    0    0    0 -0.00000000000E+00 -0.00000000000E+00 -0.45593999997E+02  0.45594000000E+02  0.51100000000E-03 0.  1.
         23    2    1    2    0    0  0.35527136788E-14 -0.35527136788E-14  0.35527136788E-14  0.91188000000E+02  0.91188000000E+02 0.  0.
    9900012    2    3    3    0    0  0.27367109006E+02 -0.16084712487E+02 -0.18657525738E+02  0.54367083420E+02  0.39999998272E+02 0.  0.
        -12    1    3    3    0    0 -0.27367109006E+02  0.16084712487E+02  0.18657525738E+02  0.36820916580E+02  0.00000000000E+00 0.  1.
         11    1    4    4    0    0  0.49594290396E+01  0.82657386297E+01 -0.41856991947E+01  0.10508969954E+02  0.51100000000E-03 0. -1.
        -11    1    4    4    0    0  0.21038640210E+02 -0.19294335186E+02 -0.84094203644E-01  0.28546502837E+02  0.51100000000E-03 0.  1.
        -12    1    4    4    0    0  0.13690397568E+01 -0.50561159313E+01 -0.14387732340E+02  0.15311610629E+02  0.00000000000E+00 0.  1.
</event>
<event>
 8    1  0.2530183E-006  0.9118800E+02  0.7816164E-02  0.1184000E+00
        -11   -1    0    0    0    0  0.00000000000E+00  0.00000000000E+00  0.45593999997E+02  0.45594000000E+02  0.51100000000E-03 0.  1.
         11   -1    0    0    0    0 -0.00000000000E+00 -0.00000000000E+00 -0.45593999997E+02  0.45594000000E+02  0.51100000000E-03 0. -1.
         23    2    1    2    0    0 -0.35527136788E-14 -0.71054273576E-14  0.00000000000E+00  0.91188000000E+02  0.91188000000E+02 0.  0.
    9900012    2    3    3    0    0  0.15396409370E+02  0.24113155988E+02 -0.23179435691E+02  0.54367082681E+02  0.39999996589E+02 0.  0.
        -12    1    3    3    0    0 -0.15396409370E+02 -0.24113155988E+02  0.23179435691E+02  0.36820917319E+02  0.00000000000E+00 0.  1.
         11    1    4    4    0    0  0.68697139487E+01  0.71713318002E+01 -0.13699710454E+02  0.16920491610E+02  0.51100000000E-03 0. -1.
        -11    1    4    4    0    0  0.75768092477E+00 -0.86964055589E+01  0.77004326457E+00  0.87632480804E+01  0.51100000000E-03 0.  1.
         12    1    4    4    0    0  0.77690144965E+01  0.25638229747E+02 -0.10249768502E+02  0.28683342991E+02  0.00000000000E+00 0. -1.
</event>
<event>
 8    1  0.2530183E-006  0.9118800E+02  0.7816164E-02  0.1184000E+00
        -11   -1    0    0    0    0  0.00000000000E+00  0.00000000000E+00  0.45593999997E+02  0.45594000000E+02  0.51100000000E-03 0.  1.
         11   -1    0    0    0    0 -0.00000000000E+00 -0.00000000000E+00 -0.45593999997E+02  0.45594000000E+02  0.51100000000E-03 0. -1.
         23    2    1    2    0    0  0.00000000000E+00  0.00000000000E+00 -0.17763568394E-14  0.91188000000E+02  0.91188000000E+02 0.  0.
    9900012    2    3    3    0    0  0.34310918470E+02  0.62388320463E+01  0.11816039810E+02  0.54367069154E+02  0.39999965750E+02 0.  0.
         12    1    3    3    0    0 -0.34310918470E+02 -0.62388320463E+01 -0.11816039810E+02  0.36820930846E+02  0.00000000000E+00 0. -1.
         11    1    4    4    0    0  0.15353380682E+01  0.10193298839E+02 -0.60403306271E+01  0.11947644059E+02  0.51100000000E-03 0. -1.
        -11    1    4    4    0    0  0.32406889907E+02 -0.55782979234E+01  0.99736319892E+01  0.34362730632E+02  0.51100000000E-03 0.  1.
        -12    1    4    4    0    0  0.36869049485E+00  0.16238311304E+01  0.78827384483E+01  0.80566944627E+01  0.00000000000E+00 0.  1.
</event>
<event>
 8    1  0.2530183E-006  0.9118800E+02  0.7816164E-02  0.1184000E+00
        -11   -1    0    0    0    0  0.00000000000E+00  0.00000000000E+00  0.45593999997E+02  0.45594000000E+02  0.51100000000E-03 0.  1.
         11   -1    0    0    0    0 -0.00000000000E+00 -0.00000000000E+00 -0.45593999997E+02  0.45594000000E+02  0.51100000000E-03 0. -1.
         23    2    1    2    0    0  0.00000000000E+00  0.17763568394E-14 -0.26645352591E-14  0.91188000000E+02  0.91188000000E+02 0.  0.
    9900012    2    3    3    0    0  0.36033054104E+02  0.43043998838E+01  0.62347318538E+01  0.54367072150E+02  0.39999972581E+02 0.  0.
         12    1    3    3    0    0 -0.36033054104E+02 -0.43043998838E+01 -0.62347318538E+01  0.36820927850E+02  0.00000000000E+00 0. -1.
         11    1    4    4    0    0  0.19445664799E+02 -0.11451625167E+02  0.14486114319E+02  0.26816433520E+02  0.51100000000E-03 0. -1.
        -11    1    4    4    0    0  0.16617745685E+02  0.14492927141E+02 -0.10914307333E+02  0.24603180965E+02  0.51100000000E-03 0.  1.
        -12    1    4    4    0    0 -0.30356379796E-01  0.12630979089E+01  0.26629248675E+01  0.29474576650E+01  0.00000000000E+00 0.  1.
</event>
<event>
 8    1  0.2530183E-006  0.9118800E+02  0.7816164E-02  0.1184000E+00
        -11   -1    0    0    0    0  0.00000000000E+00  0.00000000000E+00  0.45593999997E+02  0.45594000000E+02  0.51100000000E-03 0. -1.
         11   -1    0    0    0    0 -0.00000000000E+00 -0.00000000000E+00 -0.45593999997E+02  0.45594000000E+02  0.51100000000E-03 0.  1.
         23    2    1    2    0    0  0.00000000000E+00 -0.35527136788E-14  0.00000000000E+00  0.91188000000E+02  0.91188000000E+02 0.  0.
    9900012    2    3    3    0    0  0.15096278735E+02  0.31038707714E+02 -0.12825017423E+02  0.54367080944E+02  0.39999992628E+02 0.  0.
         12    1    3    3    0    0 -0.15096278735E+02 -0.31038707714E+02  0.12825017423E+02  0.36820919056E+02  0.00000000000E+00 0. -1.
         11    1    4    4    0    0  0.22138019009E+01  0.14714761027E+02  0.12507738656E+02  0.19438843523E+02  0.51100000000E-03 0. -1.
        -11    1    4    4    0    0  0.64965890149E+01  0.96659013164E+01 -0.51443788074E+01  0.12731847889E+02  0.51100000000E-03 0.  1.
        -12    1    4    4    0    0  0.63858878192E+01  0.66580453710E+01 -0.20188377272E+02  0.22196389533E+02  0.00000000000E+00 0.  1.
</event>
<event>
 8    1  0.2530183E-006  0.9118800E+02  0.7816164E-02  0.1184000E+00
        -11   -1    0    0    0    0  0.00000000000E+00  0.00000000000E+00  0.45593999997E+02  0.45594000000E+02  0.51100000000E-03 0. -1.
         11   -1    0    0    0    0 -0.00000000000E+00 -0.00000000000E+00 -0.45593999997E+02  0.45594000000E+02  0.51100000000E-03 0.  1.
         23    2    1    2    0    0  0.00000000000E+00  0.35527136788E-14 -0.35527136788E-14  0.91188000000E+02  0.91188000000E+02 0.  0.
    9900012    2    3    3    0    0 -0.76119755205E+01  0.27605719245E+02  0.23146534671E+02  0.54367082390E+02  0.39999995924E+02 0.  0.
        -12    1    3    3    0    0  0.76119755205E+01 -0.27605719245E+02 -0.23146534671E+02  0.36820917610E+02  0.00000000000E+00 0.  1.
         11    1    4    4    0    0  0.12894737635E+01  0.26378608504E+02  0.70392274446E+01  0.27332113941E+02  0.51100000000E-03 0. -1.
        -11    1    4    4    0    0  0.51710092443E+01 -0.21949265234E+01  0.34302315788E+00  0.56280284466E+01  0.51100000000E-03 0.  1.
        -12    1    4    4    0    0 -0.14072458528E+02  0.34220372647E+01  0.15764284069E+02  0.21406940003E+02  0.00000000000E+00 0.  1.
</event>
<event>
 8    1  0.2530183E-006  0.9118800E+02  0.7816164E-02  0.1184000E+00
        -11   -1    0    0    0    0  0.00000000000E+00  0.00000000000E+00  0.45593999997E+02  0.45594000000E+02  0.51100000000E-03 0. -1.
         11   -1    0    0    0    0 -0.00000000000E+00 -0.00000000000E+00 -0.45593999997E+02  0.45594000000E+02  0.51100000000E-03 0.  1.
         23    2    1    2    0    0 -0.35527136788E-14  0.00000000000E+00 -0.35527136788E-14  0.91188000000E+02  0.91188000000E+02 0.  0.
    9900012    2    3    3    0    0 -0.25226788023E+02 -0.96807432286E+01 -0.25013434743E+02  0.54367088264E+02  0.40000009316E+02 0.  0.
         12    1    3    3    0    0  0.25226788023E+02  0.96807432286E+01  0.25013434743E+02  0.36820911736E+02  0.00000000000E+00 0. -1.
         11    1    4    4    0    0  0.24699026174E+01 -0.17754447428E+01 -0.18770275406E+02  0.19015148226E+02  0.51100000000E-03 0. -1.
        -11    1    4    4    0    0 -0.55305295803E+01 -0.81548919825E+01 -0.85748958152E+01  0.13062077139E+02  0.51100000000E-03 0.  1.
         12    1    4    4    0    0 -0.22166161060E+02  0.24959349668E+00  0.23317364781E+01  0.22289862899E+02  0.00000000000E+00 0. -1.
</event>
<event>
 8    1  0.2530183E-006  0.9118800E+02  0.7816164E-02  0.1184000E+00
        -11   -1    0    0    0    0  0.00000000000E+00  0.00000000000E+00  0.45593999997E+02  0.45594000000E+02  0.51100000000E-03 0. -1.
         11   -1    0    0    0    0 -0.00000000000E+00 -0.00000000000E+00 -0.45593999997E+02  0.45594000000E+02  0.51100000000E-03 0.  1.
         23    2    1    2    0    0 -0.35527136788E-14  0.00000000000E+00  0.00000000000E+00  0.91188000000E+02  0.91188000000E+02 0.  0.
    9900012    2    3    3    0    0 -0.20385659919E+02  0.15716461580E+02  0.26328617847E+02  0.54367103587E+02  0.40000044247E+02 0.  0.
        -12    1    3    3    0    0  0.20385659919E+02 -0.15716461580E+02 -0.26328617847E+02  0.36820896413E+02  0.00000000000E+00 0.  1.
         11    1    4    4    0    0  0.55999210029E+00 -0.27184632817E+01  0.17315525093E+02  0.17536563041E+02  0.51100000000E-03 0. -1.
        -11    1    4    4    0    0  0.40129068146E+01  0.63059484315E+01 -0.51108630263E+00  0.74919701142E+01  0.51100000000E-03 0.  1.
         12    1    4    4    0    0 -0.24958558834E+02  0.12128976431E+02  0.95241790563E+01  0.29338570432E+02  0.00000000000E+00 0. -1.
</event>
<event>
 8    1  0.2530183E-006  0.9118800E+02  0.7816164E-02  0.1184000E+00
        -11   -1    0    0    0    0  0.00000000000E+00  0.00000000000E+00  0.45593999997E+02  0.45594000000E+02  0.51100000000E-03 0. -1.
         11   -1    0    0    0    0 -0.00000000000E+00 -0.00000000000E+00 -0.45593999997E+02  0.45594000000E+02  0.51100000000E-03 0.  1.
         23    2    1    2    0    0 -0.44408920985E-15 -0.35527136788E-14  0.35527136788E-14  0.91188000000E+02  0.91188000000E+02 0.  0.
    9900012    2    3    3    0    0 -0.32100175954E+01  0.29933577639E+02 -0.21200294240E+02  0.54367139620E+02  0.40000126393E+02 0.  0.
         12    1    3    3    0    0  0.32100175954E+01 -0.29933577639E+02  0.21200294240E+02  0.36820860380E+02  0.00000000000E+00 0. -1.
         11    1    4    4    0    0 -0.12941118796E+02  0.46215295707E+01  0.50379128223E+01  0.14635971342E+02  0.51100000000E-03 0. -1.
        -11    1    4    4    0    0 -0.66559174176E+00  0.39971114945E+01 -0.10536735108E+02  0.11289052204E+02  0.51100000000E-03 0.  1.
        -12    1    4    4    0    0  0.10396692942E+02  0.21314936574E+02 -0.15701471954E+02  0.28442116075E+02  0.00000000000E+00 0.  1.
</event>
<event>
 8    1  0.2530183E-006  0.9118800E+02  0.7816164E-02  0.1184000E+00
        -11   -1    0    0    0    0  0.00000000000E+00  0.00000000000E+00  0.45593999997E+02  0.45594000000E+02  0.51100000000E-03 0. -1.
         11   -1    0    0    0    0 -0.00000000000E+00 -0.00000000000E+00 -0.45593999997E+02  0.45594000000E+02  0.51100000000E-03 0.  1.
         23    2    1    2    0    0  0.00000000000E+00  0.19428902931E-14  0.00000000000E+00  0.91188000000E+02  0.91188000000E+02 0.  0.
    9900012    2    3    3    0    0 -0.29345006230E+02 -0.45437999977E+00 -0.22236068390E+02  0.54367101188E+02  0.40000038779E+02 0.  0.
         12    1    3    3    0    0  0.29345006230E+02  0.45437999977E+00  0.22236068390E+02  0.36820898812E+02  0.00000000000E+00 0. -1.
         11    1    4    4    0    0  0.12080035682E+01  0.10903380833E+02 -0.77848233848E+00  0.10997682539E+02  0.51100000000E-03 0. -1.
        -11    1    4    4    0    0 -0.75510275569E+01  0.10921229666E+01 -0.14371856765E+02  0.16271478632E+02  0.51100000000E-03 0.  1.
         12    1    4    4    0    0 -0.23001982242E+02 -0.12449883799E+02 -0.70857292865E+01  0.27097940017E+02  0.00000000000E+00 0. -1.
</event>
<event>
 8    1  0.2530183E-006  0.9118800E+02  0.7816164E-02  0.1184000E+00
        -11   -1    0    0    0    0  0.00000000000E+00  0.00000000000E+00  0.45593999997E+02  0.45594000000E+02  0.51100000000E-03 0. -1.
         11   -1    0    0    0    0 -0.00000000000E+00 -0.00000000000E+00 -0.45593999997E+02  0.45594000000E+02  0.51100000000E-03 0.  1.
         23    2    1    2    0    0  0.00000000000E+00  0.00000000000E+00  0.00000000000E+00  0.91188000000E+02  0.91188000000E+02 0.  0.
    9900012    2    3    3    0    0  0.36165773115E+02  0.68180189367E+01 -0.11542213994E+01  0.54367071790E+02  0.39999971760E+02 0.  0.
         12    1    3    3    0    0 -0.36165773115E+02 -0.68180189367E+01  0.11542213994E+01  0.36820928210E+02  0.00000000000E+00 0. -1.
         11    1    4    4    0    0 -0.29770040843E+01 -0.92163112160E+01  0.40882919750E+00  0.96938169635E+01  0.51100000000E-03 0. -1.
        -11    1    4    4    0    0  0.19851207157E+02  0.15769134055E+02 -0.96461277073E+00  0.25370583211E+02  0.51100000000E-03 0.  1.
         12    1    4    4    0    0  0.19291570042E+02  0.26519609820E+00 -0.59843782614E+00  0.19302671615E+02  0.00000000000E+00 0. -1.
</event>
<event>
 8    1  0.2530183E-006  0.9118800E+02  0.7816164E-02  0.1184000E+00
        -11   -1    0    0    0    0  0.00000000000E+00  0.00000000000E+00  0.45593999997E+02  0.45594000000E+02  0.51100000000E-03 0.  1.
         11   -1    0    0    0    0 -0.00000000000E+00 -0.00000000000E+00 -0.45593999997E+02  0.45594000000E+02  0.51100000000E-03 0. -1.
         23    2    1    2    0    0  0.17763568394E-14  0.00000000000E+00  0.00000000000E+00  0.91188000000E+02  0.91188000000E+02 0.  0.
    9900012    2    3    3    0    0  0.86631261600E+01 -0.31520317055E+02  0.16947042608E+02  0.54367049506E+02  0.39999920959E+02 0.  0.
         12    1    3    3    0    0 -0.86631261600E+01  0.31520317055E+02 -0.16947042608E+02  0.36820950494E+02  0.00000000000E+00 0. -1.
         11    1    4    4    0    0  0.22060804038E+02 -0.28476178533E+02  0.89204089777E+01  0.37109911280E+02  0.51100000000E-03 0. -1.
        -11    1    4    4    0    0 -0.12110571716E+02 -0.36091925769E+01  0.44222844209E+01  0.13388383700E+02  0.51100000000E-03 0.  1.
         12    1    4    4    0    0 -0.12871061624E+01  0.56505405427E+00  0.36043492090E+01  0.38687545255E+01  0.00000000000E+00 0. -1.
</event>
<event>
 8    1  0.2530183E-006  0.9118800E+02  0.7816164E-02  0.1184000E+00
        -11   -1    0    0    0    0  0.00000000000E+00  0.00000000000E+00  0.45593999997E+02  0.45594000000E+02  0.51100000000E-03 0.  1.
         11   -1    0    0    0    0 -0.00000000000E+00 -0.00000000000E+00 -0.45593999997E+02  0.45594000000E+02  0.51100000000E-03 0. -1.
         23    2    1    2    0    0  0.00000000000E+00  0.00000000000E+00 -0.71054273576E-14  0.91188000000E+02  0.91188000000E+02 0.  0.
    9900012    2    3    3    0    0  0.42480825888E+01  0.21641986301E+02 -0.29484878299E+02  0.54367084408E+02  0.40000000525E+02 0.  0.
        -12    1    3    3    0    0 -0.42480825888E+01 -0.21641986301E+02  0.29484878299E+02  0.36820915592E+02  0.00000000000E+00 0.  1.
         11    1    4    4    0    0  0.56178522414E+01 -0.64437817838E+01  0.22790370676E+01  0.88474062696E+01  0.51100000000E-03 0. -1.
        -11    1    4    4    0    0 -0.15146033505E+01  0.25698355844E+01  0.17031233864E+01  0.34349247110E+01  0.51100000000E-03 0.  1.
         12    1    4    4    0    0  0.14483369786E+00  0.25515932501E+02 -0.33467038753E+02  0.42084753427E+02  0.00000000000E+00 0. -1.
</event>
<event>
 8    1  0.2530183E-006  0.9118800E+02  0.7816164E-02  0.1184000E+00
        -11   -1    0    0    0    0  0.00000000000E+00  0.00000000000E+00  0.45593999997E+02  0.45594000000E+02  0.51100000000E-03 0. -1.
         11   -1    0    0    0    0 -0.00000000000E+00 -0.00000000000E+00 -0.45593999997E+02  0.45594000000E+02  0.51100000000E-03 0.  1.
         23    2    1    2    0    0  0.17763568394E-14  0.00000000000E+00  0.71054273576E-14  0.91188000000E+02  0.91188000000E+02 0.  0.
    9900012    2    3    3    0    0 -0.13585856047E+02 -0.21428722163E+02 -0.26683585873E+02  0.54367090544E+02  0.40000014514E+02 0.  0.
         12    1    3    3    0    0  0.13585856047E+02  0.21428722163E+02  0.26683585873E+02  0.36820909456E+02  0.00000000000E+00 0. -1.
         11    1    4    4    0    0 -0.43646442924E+01 -0.81519822811E+00  0.31030930376E+01  0.54169968258E+01  0.51100000000E-03 0. -1.
        -11    1    4    4    0    0 -0.15727095394E+01 -0.10515597881E+02  0.51308233444E+01  0.11805785130E+02  0.51100000000E-03 0.  1.
        -12    1    4    4    0    0 -0.76485022153E+01 -0.10097926054E+02 -0.34917502255E+02  0.37144308588E+02  0.00000000000E+00 0.  1.
</event>
<event>
 8    1  0.2530183E-006  0.9118800E+02  0.7816164E-02  0.1184000E+00
        -11   -1    0    0    0    0  0.00000000000E+00  0.00000000000E+00  0.45593999997E+02  0.45594000000E+02  0.51100000000E-03 0.  1.
         11   -1    0    0    0    0 -0.00000000000E+00 -0.00000000000E+00 -0.45593999997E+02  0.45594000000E+02  0.51100000000E-03 0. -1.
         23    2    1    2    0    0 -0.17763568394E-14  0.17763568394E-14  0.00000000000E+00  0.91188000000E+02  0.91188000000E+02 0.  0.
    9900012    2    3    3    0    0 -0.13281270482E+02 -0.81322798605E+01  0.33365458980E+02  0.54367082381E+02  0.39999995905E+02 0.  0.
         12    1    3    3    0    0  0.13281270482E+02  0.81322798605E+01 -0.33365458980E+02  0.36820917619E+02  0.00000000000E+00 0. -1.
         11    1    4    4    0    0  0.11027424566E+01 -0.99687141789E+01  0.77166603835E+00  0.10059163586E+02  0.51100000000E-03 0. -1.
        -11    1    4    4    0    0  0.24396946427E+01  0.98448124871E+01  0.17919142351E+02  0.20590485805E+02  0.51100000000E-03 0.  1.
         12    1    4    4    0    0 -0.16823707582E+02 -0.80083781687E+01  0.14674650591E+02  0.23717432990E+02  0.00000000000E+00 0. -1.
</event>
<event>
 8    1  0.2530183E-006  0.9118800E+02  0.7816164E-02  0.1184000E+00
        -11   -1    0    0    0    0  0.00000000000E+00  0.00000000000E+00  0.45593999997E+02  0.45594000000E+02  0.51100000000E-03 0.  1.
         11   -1    0    0    0    0 -0.00000000000E+00 -0.00000000000E+00 -0.45593999997E+02  0.45594000000E+02  0.51100000000E-03 0. -1.
         23    2    1    2    0    0  0.00000000000E+00  0.00000000000E+00  0.00000000000E+00  0.91188000000E+02  0.91188000000E+02 0.  0.
    9900012    2    3    3    0    0 -0.48052548301E+01  0.16293230953E+02 -0.32668339170E+02  0.54367078869E+02  0.39999987897E+02 0.  0.
        -12    1    3    3    0    0  0.48052548301E+01 -0.16293230953E+02  0.32668339170E+02  0.36820921131E+02  0.00000000000E+00 0.  1.
         11    1    4    4    0    0  0.67582515170E+01  0.21957469680E+00 -0.18550558381E+02  0.19744502858E+02  0.51100000000E-03 0. -1.
        -11    1    4    4    0    0 -0.19226034932E+02  0.10677875243E+02 -0.11844994152E+02  0.24979217874E+02  0.51100000000E-03 0.  1.
        -12    1    4    4    0    0  0.76625285846E+01  0.53957810132E+01 -0.22727866372E+01  0.96433581365E+01  0.00000000000E+00 0.  1.
</event>
<event>
 8    1  0.2530183E-006  0.9118800E+02  0.7816164E-02  0.1184000E+00
        -11   -1    0    0    0    0  0.00000000000E+00  0.00000000000E+00  0.45593999997E+02  0.45594000000E+02  0.51100000000E-03 0.  1.
         11   -1    0    0    0    0 -0.00000000000E+00 -0.00000000000E+00 -0.45593999997E+02  0.45594000000E+02  0.51100000000E-03 0. -1.
         23    2    1    2    0    0 -0.22204460493E-15  0.00000000000E+00  0.53290705182E-14  0.91188000000E+02  0.91188000000E+02 0.  0.
    9900012    2    3    3    0    0  0.50871483296E+00  0.33847517969E+02 -0.14486308157E+02  0.54367266880E+02  0.40000416504E+02 0.  0.
        -12    1    3    3    0    0 -0.50871483296E+00 -0.33847517969E+02  0.14486308157E+02  0.36820733120E+02  0.00000000000E+00 0.  1.
         11    1    4    4    0    0  0.58488210879E-01 -0.46867344128E+01  0.63063183520E+01  0.78573883540E+01  0.51100000000E-03 0.  1.
        -11    1    4    4    0    0 -0.12338002608E+01  0.24921702172E+02 -0.47454402674E+01  0.25399462708E+02  0.51100000000E-03 0. -1.
         12    1    4    4    0    0  0.16840268829E+01  0.13612550210E+02 -0.16047186241E+02  0.21110415818E+02  0.00000000000E+00 0. -1.
</event>
<event>
 8    1  0.2530183E-006  0.9118800E+02  0.7816164E-02  0.1184000E+00
        -11   -1    0    0    0    0  0.00000000000E+00  0.00000000000E+00  0.45593999997E+02  0.45594000000E+02  0.51100000000E-03 0.  1.
         11   -1    0    0    0    0 -0.00000000000E+00 -0.00000000000E+00 -0.45593999997E+02  0.45594000000E+02  0.51100000000E-03 0. -1.
         23    2    1    2    0    0 -0.17763568394E-14  0.00000000000E+00  0.00000000000E+00  0.91188000000E+02  0.91188000000E+02 0.  0.
    9900012    2    3    3    0    0 -0.11527374988E+02 -0.12436132889E+02 -0.32684026836E+02  0.54367036059E+02  0.39999890303E+02 0.  0.
        -12    1    3    3    0    0  0.11527374988E+02  0.12436132889E+02  0.32684026836E+02  0.36820963941E+02  0.00000000000E+00 0.  1.
         11    1    4    4    0    0  0.33434234835E+01 -0.34323145298E+01 -0.18513421205E+01  0.51368016830E+01  0.51100000000E-03 0. -1.
        -11    1    4    4    0    0  0.85791392244E+01 -0.15682301979E+01 -0.20997184109E+02  0.22736374305E+02  0.51100000000E-03 0.  1.
        -12    1    4    4    0    0 -0.23449937696E+02 -0.74355881609E+01 -0.98355006068E+01  0.26493860071E+02  0.00000000000E+00 0.  1.
</event>
<event>
 8    1  0.2530183E-006  0.9118800E+02  0.7816164E-02  0.1184000E+00
        -11   -1    0    0    0    0  0.00000000000E+00  0.00000000000E+00  0.45593999997E+02  0.45594000000E+02  0.51100000000E-03 0.  1.
         11   -1    0    0    0    0 -0.00000000000E+00 -0.00000000000E+00 -0.45593999997E+02  0.45594000000E+02  0.51100000000E-03 0. -1.
         23    2    1    2    0    0 -0.17763568394E-14  0.00000000000E+00  0.00000000000E+00  0.91188000000E+02  0.91188000000E+02 0.  0.
    9900012    2    3    3    0    0 -0.15461230235E+02 -0.12054261030E+01  0.33395761019E+02  0.54367088190E+02  0.40000009147E+02 0.  0.
         12    1    3    3    0    0  0.15461230235E+02  0.12054261030E+01 -0.33395761019E+02  0.36820911810E+02  0.00000000000E+00 0. -1.
         11    1    4    4    0    0 -0.26811138412E+01  0.11117841071E+01 -0.42174508307E+00  0.29329685485E+01  0.51100000000E-03 0. -1.
        -11    1    4    4    0    0 -0.91934924325E+01  0.13475550876E+02  0.29518994442E+01  0.16577831134E+02  0.51100000000E-03 0.  1.
        -12    1    4    4    0    0 -0.35866239611E+01 -0.15792761086E+02  0.30865606658E+02  0.34856288508E+02  0.00000000000E+00 0.  1.
</event>
<event>
 8    1  0.2530183E-006  0.9118800E+02  0.7816164E-02  0.1184000E+00
        -11   -1    0    0    0    0  0.00000000000E+00  0.00000000000E+00  0.45593999997E+02  0.45594000000E+02  0.51100000000E-03 0.  1.
         11   -1    0    0    0    0 -0.00000000000E+00 -0.00000000000E+00 -0.45593999997E+02  0.45594000000E+02  0.51100000000E-03 0. -1.
         23    2    1    2    0    0  0.00000000000E+00 -0.35527136788E-14 -0.17763568394E-14  0.91188000000E+02  0.91188000000E+02 0.  0.
    9900012    2    3    3    0    0  0.16850579461E+02  0.28664569230E+02 -0.15817087966E+02  0.54367084354E+02  0.40000000401E+02 0.  0.
        -12    1    3    3    0    0 -0.16850579461E+02 -0.28664569230E+02  0.15817087966E+02  0.36820915646E+02  0.00000000000E+00 0.  1.
         11    1    4    4    0    0  0.11903624833E+01  0.26168097092E+02 -0.28595768969E+01  0.26350777001E+02  0.51100000000E-03 0. -1.
        -11    1    4    4    0    0  0.21313643223E+01 -0.17057879955E+01  0.46653615860E+01  0.54053700659E+01  0.51100000000E-03 0.  1.
         12    1    4    4    0    0  0.13528852655E+02  0.42022601339E+01 -0.17622872655E+02  0.22610937287E+02  0.00000000000E+00 0. -1.
</event>
<event>
 8    1  0.2530183E-006  0.9118800E+02  0.7816164E-02  0.1184000E+00
        -11   -1    0    0    0    0  0.00000000000E+00  0.00000000000E+00  0.45593999997E+02  0.45594000000E+02  0.51100000000E-03 0. -1.
         11   -1    0    0    0    0 -0.00000000000E+00 -0.00000000000E+00 -0.45593999997E+02  0.45594000000E+02  0.51100000000E-03 0.  1.
         23    2    1    2    0    0 -0.35527136788E-14  0.17763568394E-14  0.35527136788E-14  0.91188000000E+02  0.91188000000E+02 0.  0.
    9900012    2    3    3    0    0  0.22345679688E+02 -0.92112638312E+01  0.27777741289E+02  0.54367086198E+02  0.40000004605E+02 0.  0.
        -12    1    3    3    0    0 -0.22345679688E+02  0.92112638312E+01 -0.27777741289E+02  0.36820913802E+02  0.00000000000E+00 0.  1.
         11    1    4    4    0    0 -0.44261831196E+01 -0.74677953143E+01  0.68684251154E+01  0.11069522469E+02  0.51100000000E-03 0. -1.
        -11    1    4    4    0    0  0.68171357792E+01  0.66029552067E+01 -0.40075225380E+01  0.10302067504E+02  0.51100000000E-03 0.  1.
        -12    1    4    4    0    0  0.19954727028E+02 -0.83464237236E+01  0.24916838712E+02  0.32995496225E+02  0.00000000000E+00 0.  1.
</event>
<event>
 8    1  0.2530183E-006  0.9118800E+02  0.7816164E-02  0.1184000E+00
        -11   -1    0    0    0    0  0.00000000000E+00  0.00000000000E+00  0.45593999997E+02  0.45594000000E+02  0.51100000000E-03 0. -1.
         11   -1    0    0    0    0 -0.00000000000E+00 -0.00000000000E+00 -0.45593999997E+02  0.45594000000E+02  0.51100000000E-03 0.  1.
         23    2    1    2    0    0  0.00000000000E+00  0.00000000000E+00 -0.35527136788E-14  0.91188000000E+02  0.91188000000E+02 0.  0.
    9900012    2    3    3    0    0  0.10459113127E+02  0.20773627534E+02 -0.28545468509E+02  0.54367076319E+02  0.39999982085E+02 0.  0.
         12    1    3    3    0    0 -0.10459113127E+02 -0.20773627534E+02  0.28545468509E+02  0.36820923681E+02  0.00000000000E+00 0. -1.
         11    1    4    4    0    0  0.85826016690E+01  0.10271159594E+02  0.21714118417E+01  0.13559970518E+02  0.51100000000E-03 0. -1.
        -11    1    4    4    0    0  0.12660978340E+02  0.54891586238E+01 -0.22346610352E+02  0.26264086304E+02  0.51100000000E-03 0.  1.
        -12    1    4    4    0    0 -0.10784466882E+02  0.50133093166E+01 -0.83702699987E+01  0.14543019497E+02  0.00000000000E+00 0.  1.
</event>
<event>
 8    1  0.2530183E-006  0.9118800E+02  0.7816164E-02  0.1184000E+00
        -11   -1    0    0    0    0  0.00000000000E+00  0.00000000000E+00  0.45593999997E+02  0.45594000000E+02  0.51100000000E-03 0.  1.
         11   -1    0    0    0    0 -0.00000000000E+00 -0.00000000000E+00 -0.45593999997E+02  0.45594000000E+02  0.51100000000E-03 0. -1.
         23    2    1    2    0    0  0.35527136788E-14 -0.35527136788E-14 -0.35527136788E-14  0.91188000000E+02  0.91188000000E+02 0.  0.
    9900012    2    3    3    0    0  0.27681110816E+02  0.12588036010E+02 -0.20762392601E+02  0.54367088915E+02  0.40000010799E+02 0.  0.
        -12    1    3    3    0    0 -0.27681110816E+02 -0.12588036010E+02  0.20762392601E+02  0.36820911085E+02  0.00000000000E+00 0.  1.
         11    1    4    4    0    0 -0.80887099897E+00  0.73235217591E+01 -0.14990250682E+02  0.16703169131E+02  0.51100000000E-03 0. -1.
        -11    1    4    4    0    0  0.28584107520E+00 -0.44241364872E+01  0.43107586889E+01  0.61836340054E+01  0.51100000000E-03 0.  1.
        -12    1    4    4    0    0  0.28204140740E+02  0.96886507383E+01 -0.10082900608E+02  0.31480285778E+02  0.00000000000E+00 0.  1.
</event>
<event>
 8    1  0.2530183E-006  0.9118800E+02  0.7816164E-02  0.1184000E+00
        -11   -1    0    0    0    0  0.00000000000E+00  0.00000000000E+00  0.45593999997E+02  0.45594000000E+02  0.51100000000E-03 0. -1.
         11   -1    0    0    0    0 -0.00000000000E+00 -0.00000000000E+00 -0.45593999997E+02  0.45594000000E+02  0.51100000000E-03 0.  1.
         23    2    1    2    0    0  0.00000000000E+00 -0.17763568394E-14 -0.17763568394E-14  0.91188000000E+02  0.91188000000E+02 0.  0.
    9900012    2    3    3    0    0  0.33873317577E+02  0.74637304000E+01  0.12356032992E+02  0.54367075698E+02  0.39999980668E+02 0.  0.
        -12    1    3    3    0    0 -0.33873317577E+02 -0.74637304000E+01 -0.12356032992E+02  0.36820924302E+02  0.00000000000E+00 0.  1.
         11    1    4    4    0    0  0.31580018445E+02 -0.23221114577E+01 -0.33374807900E+00  0.31667035773E+02  0.51100000000E-03 0. -1.
        -11    1    4    4    0    0 -0.36868801417E+01 -0.24815619293E+01  0.60937727006E+01  0.75422344684E+01  0.51100000000E-03 0.  1.
        -12    1    4    4    0    0  0.59801792736E+01  0.12267403787E+02  0.65960083705E+01  0.15157805456E+02  0.00000000000E+00 0.  1.
</event>
<event>
 8    1  0.2530183E-006  0.9118800E+02  0.7816164E-02  0.1184000E+00
        -11   -1    0    0    0    0  0.00000000000E+00  0.00000000000E+00  0.45593999997E+02  0.45594000000E+02  0.51100000000E-03 0.  1.
         11   -1    0    0    0    0 -0.00000000000E+00 -0.00000000000E+00 -0.45593999997E+02  0.45594000000E+02  0.51100000000E-03 0. -1.
         23    2    1    2    0    0  0.00000000000E+00 -0.35527136788E-14 -0.17763568394E-14  0.91188000000E+02  0.91188000000E+02 0.  0.
    9900012    2    3    3    0    0  0.25787759532E+02  0.24439730098E+02  0.96681060469E+01  0.54367065418E+02  0.39999957234E+02 0.  0.
         12    1    3    3    0    0 -0.25787759532E+02 -0.24439730098E+02 -0.96681060469E+01  0.36820934582E+02  0.00000000000E+00 0. -1.
         11    1    4    4    0    0  0.72350005856E+01 -0.14873259736E+01 -0.81240284861E+01  0.10979854786E+02  0.51100000000E-03 0. -1.
        -11    1    4    4    0    0  0.77749206120E+01  0.18130999247E+02 -0.16868424678E+01  0.19799696007E+02  0.51100000000E-03 0.  1.
        -12    1    4    4    0    0  0.10777838334E+02  0.77960568251E+01  0.19478977001E+02  0.23587514625E+02  0.00000000000E+00 0.  1.
</event>
<event>
 8    1  0.2530183E-006  0.9118800E+02  0.7816164E-02  0.1184000E+00
        -11   -1    0    0    0    0  0.00000000000E+00  0.00000000000E+00  0.45593999997E+02  0.45594000000E+02  0.51100000000E-03 0.  1.
         11   -1    0    0    0    0 -0.00000000000E+00 -0.00000000000E+00 -0.45593999997E+02  0.45594000000E+02  0.51100000000E-03 0. -1.
         23    2    1    2    0    0 -0.17763568394E-14  0.88817841970E-15  0.00000000000E+00  0.91188000000E+02  0.91188000000E+02 0.  0.
    9900012    2    3    3    0    0  0.11464127923E+02  0.58434719003E+01 -0.34499390831E+02  0.54367077136E+02  0.39999983946E+02 0.  0.
        -12    1    3    3    0    0 -0.11464127923E+02 -0.58434719003E+01  0.34499390831E+02  0.36820922864E+02  0.00000000000E+00 0.  1.
         11    1    4    4    0    0  0.11432573698E+02 -0.71925733863E+01 -0.72836530229E+00  0.13526543149E+02  0.51100000000E-03 0. -1.
        -11    1    4    4    0    0 -0.76687962049E+00 -0.48691342917E+01 -0.90592568611E+01  0.10313423691E+02  0.51100000000E-03 0.  1.
         12    1    4    4    0    0  0.79843384569E+00  0.17905179578E+02 -0.24711768667E+02  0.30527110295E+02  0.00000000000E+00 0. -1.
</event>
<event>
 8    1  0.2530183E-006  0.9118800E+02  0.7816164E-02  0.1184000E+00
        -11   -1    0    0    0    0  0.00000000000E+00  0.00000000000E+00  0.45593999997E+02  0.45594000000E+02  0.51100000000E-03 0.  1.
         11   -1    0    0    0    0 -0.00000000000E+00 -0.00000000000E+00 -0.45593999997E+02  0.45594000000E+02  0.51100000000E-03 0. -1.
         23    2    1    2    0    0  0.44408920985E-15 -0.71054273576E-14  0.17763568394E-14  0.91188000000E+02  0.91188000000E+02 0.  0.
    9900012    2    3    3    0    0 -0.31630410475E+01 -0.34805430455E+02  0.11591236890E+02  0.54367087594E+02  0.40000007787E+02 0.  0.
        -12    1    3    3    0    0  0.31630410475E+01  0.34805430455E+02 -0.11591236890E+02  0.36820912406E+02  0.00000000000E+00 0.  1.
         11    1    4    4    0    0  0.94972135772E+01 -0.35678679367E+02  0.99493620947E+00  0.36934470693E+02  0.51100000000E-03 0. -1.
        -11    1    4    4    0    0 -0.47722311100E+01 -0.15439037368E+01  0.16910968654E+01  0.52931689360E+01  0.51100000000E-03 0.  1.
         12    1    4    4    0    0 -0.78880235147E+01  0.24171526489E+01  0.89052038147E+01  0.12139447964E+02  0.00000000000E+00 0. -1.
</event>
<event>
 8    1  0.2530183E-006  0.9118800E+02  0.7816164E-02  0.1184000E+00
        -11   -1    0    0    0    0  0.00000000000E+00  0.00000000000E+00  0.45593999997E+02  0.45594000000E+02  0.51100000000E-03 0.  1.
         11   -1    0    0    0    0 -0.00000000000E+00 -0.00000000000E+00 -0.45593999997E+02  0.45594000000E+02  0.51100000000E-03 0. -1.
         23    2    1    2    0    0  0.44408920985E-15  0.00000000000E+00  0.00000000000E+00  0.91188000000E+02  0.91188000000E+02 0.  0.
    9900012    2    3    3    0    0 -0.36967702404E+01  0.23638451692E+02  0.27988195005E+02  0.54367060736E+02  0.39999946560E+02 0.  0.
         12    1    3    3    0    0  0.36967702404E+01 -0.23638451692E+02 -0.27988195005E+02  0.36820939264E+02  0.00000000000E+00 0. -1.
         11    1    4    4    0    0 -0.44099635805E+01 -0.76327226271E+01 -0.17177255700E+01  0.89809139222E+01  0.51100000000E-03 0. -1.
        -11    1    4    4    0    0 -0.48781556086E+01  0.26445961804E+02  0.24148618887E+02  0.36143340912E+02  0.51100000000E-03 0.  1.
         12    1    4    4    0    0  0.55913489486E+01  0.48252125152E+01  0.55573016882E+01  0.92428059017E+01  0.00000000000E+00 0. -1.
</event>
<event>
 8    1  0.2530183E-006  0.9118800E+02  0.7816164E-02  0.1184000E+00
        -11   -1    0    0    0    0  0.00000000000E+00  0.00000000000E+00  0.45593999997E+02  0.45594000000E+02  0.51100000000E-03 0. -1.
         11   -1    0    0    0    0 -0.00000000000E+00 -0.00000000000E+00 -0.45593999997E+02  0.45594000000E+02  0.51100000000E-03 0.  1.
         23    2    1    2    0    0  0.00000000000E+00  0.00000000000E+00  0.00000000000E+00  0.91188000000E+02  0.91188000000E+02 0.  0.
    9900012    2    3    3    0    0 -0.13190102249E+01  0.14802986042E+02 -0.33688432289E+02  0.54367100312E+02  0.40000036781E+02 0.  0.
         12    1    3    3    0    0  0.13190102249E+01 -0.14802986042E+02  0.33688432289E+02  0.36820899688E+02  0.00000000000E+00 0. -1.
         11    1    4    4    0    0 -0.94577007608E+00  0.15768692252E+02 -0.71696563479E+01  0.17347913672E+02  0.51100000000E-03 0. -1.
        -11    1    4    4    0    0 -0.51398230082E+01  0.57443532103E+01 -0.27656135138E+02  0.28710227889E+02  0.51100000000E-03 0.  1.
         12    1    4    4    0    0  0.47665828594E+01 -0.67100594201E+01  0.11373591970E+01  0.83089587506E+01  0.00000000000E+00 0. -1.
</event>
<event>
 8    1  0.2530183E-006  0.9118800E+02  0.7816164E-02  0.1184000E+00
        -11   -1    0    0    0    0  0.00000000000E+00  0.00000000000E+00  0.45593999997E+02  0.45594000000E+02  0.51100000000E-03 0.  1.
         11   -1    0    0    0    0 -0.00000000000E+00 -0.00000000000E+00 -0.45593999997E+02  0.45594000000E+02  0.51100000000E-03 0. -1.
         23    2    1    2    0    0 -0.35527136788E-14  0.00000000000E+00  0.00000000000E+00  0.91188000000E+02  0.91188000000E+02 0.  0.
    9900012    2    3    3    0    0  0.21522630421E+02  0.23311518726E+02  0.18684995315E+02  0.54367087797E+02  0.40000008251E+02 0.  0.
         12    1    3    3    0    0 -0.21522630421E+02 -0.23311518726E+02 -0.18684995315E+02  0.36820912203E+02  0.00000000000E+00 0. -1.
         11    1    4    4    0    0  0.37533472680E+01  0.66881907650E+01 -0.68536322127E+01  0.10285513414E+02  0.51100000000E-03 0. -1.
        -11    1    4    4    0    0 -0.37773763856E+01  0.57556685703E+01  0.17237600541E+02  0.18561550736E+02  0.51100000000E-03 0.  1.
        -12    1    4    4    0    0  0.21546659539E+02  0.10867659390E+02  0.83010269869E+01  0.25520023647E+02  0.00000000000E+00 0.  1.
</event>
<event>
 8    1  0.2530183E-006  0.9118800E+02  0.7816164E-02  0.1184000E+00
        -11   -1    0    0    0    0  0.00000000000E+00  0.00000000000E+00  0.45593999997E+02  0.45594000000E+02  0.51100000000E-03 0.  1.
         11   -1    0    0    0    0 -0.00000000000E+00 -0.00000000000E+00 -0.45593999997E+02  0.45594000000E+02  0.51100000000E-03 0. -1.
         23    2    1    2    0    0 -0.17763568394E-14  0.35527136788E-14  0.00000000000E+00  0.91188000000E+02  0.91188000000E+02 0.  0.
    9900012    2    3    3    0    0 -0.82721696773E+01 -0.30753080708E+02  0.18482353927E+02  0.54367106870E+02  0.40000051731E+02 0.  0.
         12    1    3    3    0    0  0.82721696773E+01  0.30753080708E+02 -0.18482353927E+02  0.36820893130E+02  0.00000000000E+00 0. -1.
         11    1    4    4    0    0 -0.12338268108E+02 -0.18241658637E+02  0.11144136057E+02  0.24681627549E+02  0.51100000000E-03 0. -1.
        -11    1    4    4    0    0 -0.27385619431E+01 -0.11234994523E+02  0.15271657293E+02  0.19155895703E+02  0.51100000000E-03 0.  1.
         12    1    4    4    0    0  0.68046603735E+01 -0.12764275480E+01 -0.79334394235E+01  0.10529583618E+02  0.00000000000E+00 0. -1.
</event>
<event>
 8    1  0.2530183E-006  0.9118800E+02  0.7816164E-02  0.1184000E+00
        -11   -1    0    0    0    0  0.00000000000E+00  0.00000000000E+00  0.45593999997E+02  0.45594000000E+02  0.51100000000E-03 0.  1.
         11   -1    0    0    0    0 -0.00000000000E+00 -0.00000000000E+00 -0.45593999997E+02  0.45594000000E+02  0.51100000000E-03 0. -1.
         23    2    1    2    0    0  0.27755575616E-15  0.00000000000E+00  0.00000000000E+00  0.91188000000E+02  0.91188000000E+02 0.  0.
    9900012    2    3    3    0    0  0.42122986060E+00  0.36134783703E+02  0.70625997665E+01  0.54367077370E+02  0.39999984481E+02 0.  0.
        -12    1    3    3    0    0 -0.42122986060E+00 -0.36134783703E+02 -0.70625997665E+01  0.36820922630E+02  0.00000000000E+00 0.  1.
         11    1    4    4    0    0 -0.11389275120E+02  0.89198033995E+01 -0.85882998752E+00  0.14491931191E+02  0.51100000000E-03 0. -1.
        -11    1    4    4    0    0  0.11584402315E+02  0.29316230401E+02 -0.15947823269E+00  0.31522455099E+02  0.51100000000E-03 0.  1.
        -12    1    4    4    0    0  0.22610266544E+00 -0.21012500973E+01  0.80809079867E+01  0.83526910799E+01  0.00000000000E+00 0.  1.
</event>
<event>
 8    1  0.2530183E-006  0.9118800E+02  0.7816164E-02  0.1184000E+00
        -11   -1    0    0    0    0  0.00000000000E+00  0.00000000000E+00  0.45593999997E+02  0.45594000000E+02  0.51100000000E-03 0.  1.
         11   -1    0    0    0    0 -0.00000000000E+00 -0.00000000000E+00 -0.45593999997E+02  0.45594000000E+02  0.51100000000E-03 0. -1.
         23    2    1    2    0    0  0.00000000000E+00  0.35527136788E-14  0.26645352591E-14  0.91188000000E+02  0.91188000000E+02 0.  0.
    9900012    2    3    3    0    0 -0.20895852217E+02 -0.29360464848E+02 -0.75568362754E+01  0.54367091395E+02  0.40000016454E+02 0.  0.
        -12    1    3    3    0    0  0.20895852217E+02  0.29360464848E+02  0.75568362754E+01  0.36820908605E+02  0.00000000000E+00 0.  1.
         11    1    4    4    0    0  0.27799108232E+01 -0.15115025793E+02 -0.17051865483E+02  0.22955566332E+02  0.51100000000E-03 0. -1.
        -11    1    4    4    0    0 -0.73204741319E+01 -0.96833865056E+01  0.76108433400E+01  0.14327674352E+02  0.51100000000E-03 0.  1.
         12    1    4    4    0    0 -0.16355288908E+02 -0.45620525498E+01  0.18841858678E+01  0.17083850711E+02  0.00000000000E+00 0. -1.
</event>
<event>
 8    1  0.2663754E-006  0.9118800E+02  0.7816164E-02  0.1184000E+00
        -11   -1    0    0    0    0  0.00000000000E+00  0.00000000000E+00  0.45593999997E+02  0.45594000000E+02  0.51100000000E-03 0.  1.
         11   -1    0    0    0    0 -0.00000000000E+00 -0.00000000000E+00 -0.45593999997E+02  0.45594000000E+02  0.51100000000E-03 0. -1.
         23    2    1    2    0    0  0.00000000000E+00  0.15543122345E-14  0.35527136788E-14  0.91188000000E+02  0.91188000000E+02 0.  0.
    9900012    2    3    3    0    0  0.21030037946E+02  0.15492777102E+01  0.30184798879E+02  0.54367016298E+02  0.39999845253E+02 0.  0.
         12    1    3    3    0    0 -0.21030037946E+02 -0.15492777102E+01 -0.30184798879E+02  0.36820983702E+02  0.00000000000E+00 0. -1.
         11    1    4    4    0    0  0.60216432022E+01 -0.57008559180E+01 -0.22934747470E+01  0.86034860219E+01  0.51100000000E-03 0. -1.
        -11    1    4    4    0    0 -0.28116525902E+01 -0.49014049389E+01 -0.11942107617E+01  0.57754047709E+01  0.51100000000E-03 0.  1.
        -12    1    4    4    0    0  0.17820047334E+02  0.12151538567E+02  0.33672484388E+02  0.39988125505E+02  0.00000000000E+00 0.  1.
</event>
<event>
 8    1  0.2530183E-006  0.9118800E+02  0.7816164E-02  0.1184000E+00
        -11   -1    0    0    0    0  0.00000000000E+00  0.00000000000E+00  0.45593999997E+02  0.45594000000E+02  0.51100000000E-03 0.  1.
         11   -1    0    0    0    0 -0.00000000000E+00 -0.00000000000E+00 -0.45593999997E+02  0.45594000000E+02  0.51100000000E-03 0. -1.
         23    2    1    2    0    0 -0.17763568394E-14  0.00000000000E+00  0.00000000000E+00  0.91188000000E+02  0.91188000000E+02 0.  0.
    9900012    2    3    3    0    0 -0.80548599706E+01  0.29166981147E+02  0.20980629576E+02  0.54367076929E+02  0.39999983475E+02 0.  0.
         12    1    3    3    0    0  0.80548599706E+01 -0.29166981147E+02 -0.20980629576E+02  0.36820923071E+02  0.00000000000E+00 0. -1.
         11    1    4    4    0    0 -0.71642528140E+01  0.26940123581E+01  0.21482192123E+02  0.22805016984E+02  0.51100000000E-03 0. -1.
        -11    1    4    4    0    0 -0.54630586352E+01  0.20079906531E+02  0.56703513625E+01  0.21568508080E+02  0.51100000000E-03 0.  1.
         12    1    4    4    0    0  0.45724514786E+01  0.63930622584E+01 -0.61719139103E+01  0.99935518650E+01  0.00000000000E+00 0. -1.
</event>
<event>
 8    1  0.2530183E-006  0.9118800E+02  0.7816164E-02  0.1184000E+00
        -11   -1    0    0    0    0  0.00000000000E+00  0.00000000000E+00  0.45593999997E+02  0.45594000000E+02  0.51100000000E-03 0. -1.
         11   -1    0    0    0    0 -0.00000000000E+00 -0.00000000000E+00 -0.45593999997E+02  0.45594000000E+02  0.51100000000E-03 0.  1.
         23    2    1    2    0    0  0.35527136788E-14  0.17763568394E-14  0.53290705182E-14  0.91188000000E+02  0.91188000000E+02 0.  0.
    9900012    2    3    3    0    0 -0.31333296998E+02 -0.11947133750E+02 -0.15207561280E+02  0.54367089831E+02  0.40000012887E+02 0.  0.
        -12    1    3    3    0    0  0.31333296998E+02  0.11947133750E+02  0.15207561280E+02  0.36820910169E+02  0.00000000000E+00 0.  1.
         11    1    4    4    0    0 -0.44312143281E+01  0.27879485982E+01  0.62504853990E+01  0.81533358690E+01  0.51100000000E-03 0. -1.
        -11    1    4    4    0    0  0.17694078122E+01  0.25818135897E+01  0.33102176191E+01  0.45556674994E+01  0.51100000000E-03 0.  1.
         12    1    4    4    0    0 -0.28671490482E+02 -0.17316895938E+02 -0.24768264298E+02  0.41658086463E+02  0.00000000000E+00 0. -1.
</event>
<event>
 8    1  0.2530183E-006  0.9118800E+02  0.7816164E-02  0.1184000E+00
        -11   -1    0    0    0    0  0.00000000000E+00  0.00000000000E+00  0.45593999997E+02  0.45594000000E+02  0.51100000000E-03 0. -1.
         11   -1    0    0    0    0 -0.00000000000E+00 -0.00000000000E+00 -0.45593999997E+02  0.45594000000E+02  0.51100000000E-03 0.  1.
         23    2    1    2    0    0  0.35527136788E-14  0.00000000000E+00  0.88817841970E-15  0.91188000000E+02  0.91188000000E+02 0.  0.
    9900012    2    3    3    0    0  0.12198188451E+02  0.34014246364E+02  0.70716831864E+01  0.54367170837E+02  0.40000197556E+02 0.  0.
         12    1    3    3    0    0 -0.12198188451E+02 -0.34014246364E+02 -0.70716831864E+01  0.36820829163E+02  0.00000000000E+00 0. -1.
         11    1    4    4    0    0  0.95666447052E+01  0.17726559253E+02  0.11697638867E+02  0.23293482976E+02  0.51100000000E-03 0. -1.
        -11    1    4    4    0    0 -0.55372734105E+01  0.10047864241E+02  0.85890179711E+01  0.14331510828E+02  0.51100000000E-03 0.  1.
        -12    1    4    4    0    0  0.81688171565E+01  0.62398228698E+01 -0.13214973651E+02  0.16742177032E+02  0.00000000000E+00 0.  1.
</event>
<event>
 8    1  0.2530183E-006  0.9118800E+02  0.7816164E-02  0.1184000E+00
        -11   -1    0    0    0    0  0.00000000000E+00  0.00000000000E+00  0.45593999997E+02  0.45594000000E+02  0.51100000000E-03 0. -1.
         11   -1    0    0    0    0 -0.00000000000E+00 -0.00000000000E+00 -0.45593999997E+02  0.45594000000E+02  0.51100000000E-03 0.  1.
         23    2    1    2    0    0 -0.88817841970E-15  0.17763568394E-14 -0.71054273576E-14  0.91188000000E+02  0.91188000000E+02 0.  0.
    9900012    2    3    3    0    0  0.46149808550E+01 -0.14390838512E+02  0.33576560623E+02  0.54367086043E+02  0.40000004252E+02 0.  0.
        -12    1    3    3    0    0 -0.46149808550E+01  0.14390838512E+02 -0.33576560623E+02  0.36820913957E+02  0.00000000000E+00 0.  1.
         11    1    4    4    0    0 -0.11804842886E+02 -0.12606739475E+02  0.18893210912E+02  0.25597609548E+02  0.51100000000E-03 0. -1.
        -11    1    4    4    0    0  0.95810329496E+01 -0.65318690008E+01 -0.33207921860E+00  0.11600507829E+02  0.51100000000E-03 0.  1.
         12    1    4    4    0    0  0.68387907913E+01  0.47477699637E+01  0.15015428930E+02  0.17168968666E+02  0.00000000000E+00 0. -1.
</event>
<event>
 8    1  0.2530183E-006  0.9118800E+02  0.7816164E-02  0.1184000E+00
        -11   -1    0    0    0    0  0.00000000000E+00  0.00000000000E+00  0.45593999997E+02  0.45594000000E+02  0.51100000000E-03 0.  1.
         11   -1    0    0    0    0 -0.00000000000E+00 -0.00000000000E+00 -0.45593999997E+02  0.45594000000E+02  0.51100000000E-03 0. -1.
         23    2    1    2    0    0 -0.35527136788E-14  0.00000000000E+00  0.00000000000E+00  0.91188000000E+02  0.91188000000E+02 0.  0.
    9900012    2    3    3    0    0  0.26618840928E+02  0.23455110608E+02 -0.98526600298E+01  0.54367084535E+02  0.40000000815E+02 0.  0.
         12    1    3    3    0    0 -0.26618840928E+02 -0.23455110608E+02  0.98526600298E+01  0.36820915465E+02  0.00000000000E+00 0. -1.
         11    1    4    4    0    0 -0.31443313423E+01  0.62784839098E+01 -0.15651475303E+01  0.71941550476E+01  0.51100000000E-03 0. -1.
        -11    1    4    4    0    0  0.31481427382E+02  0.12138143404E+02  0.38110849084E+01  0.33954957867E+02  0.51100000000E-03 0.  1.
        -12    1    4    4    0    0 -0.17182551114E+01  0.50384832941E+01 -0.12098597408E+02  0.13217971621E+02  0.00000000000E+00 0.  1.
</event>
<event>
 8    1  0.2530183E-006  0.9118800E+02  0.7816164E-02  0.1184000E+00
        -11   -1    0    0    0    0  0.00000000000E+00  0.00000000000E+00  0.45593999997E+02  0.45594000000E+02  0.51100000000E-03 0. -1.
         11   -1    0    0    0    0 -0.00000000000E+00 -0.00000000000E+00 -0.45593999997E+02  0.45594000000E+02  0.51100000000E-03 0.  1.
         23    2    1    2    0    0 -0.88817841970E-15  0.35527136788E-14 -0.35527136788E-14  0.91188000000E+02  0.91188000000E+02 0.  0.
    9900012    2    3    3    0    0 -0.55486824935E+01 -0.23194795815E+02  0.28053402977E+02  0.54367084084E+02  0.39999999786E+02 0.  0.
        -12    1    3    3    0    0  0.55486824935E+01  0.23194795815E+02 -0.28053402977E+02  0.36820915916E+02  0.00000000000E+00 0.  1.
         11    1    4    4    0    0 -0.15735483406E+02 -0.15903650769E+01  0.14148439886E+02  0.21220580825E+02  0.51100000000E-03 0. -1.
        -11    1    4    4    0    0 -0.11042529276E+01  0.12313412962E+01 -0.23896632849E+01  0.29062117597E+01  0.51100000000E-03 0.  1.
         12    1    4    4    0    0  0.11291053840E+02 -0.22835772034E+02  0.16294626376E+02  0.30240291499E+02  0.00000000000E+00 0. -1.
</event>
<event>
 8    1  0.2530183E-006  0.9118800E+02  0.7816164E-02  0.1184000E+00
        -11   -1    0    0    0    0  0.00000000000E+00  0.00000000000E+00  0.45593999997E+02  0.45594000000E+02  0.51100000000E-03 0.  1.
         11   -1    0    0    0    0 -0.00000000000E+00 -0.00000000000E+00 -0.45593999997E+02  0.45594000000E+02  0.51100000000E-03 0. -1.
         23    2    1    2    0    0  0.00000000000E+00  0.00000000000E+00 -0.88817841970E-15  0.91188000000E+02  0.91188000000E+02 0.  0.
    9900012    2    3    3    0    0  0.82918171796E+01 -0.35688325271E+02 -0.36564525279E+01  0.54367076086E+02  0.39999981553E+02 0.  0.
         12    1    3    3    0    0 -0.82918171796E+01  0.35688325271E+02  0.36564525279E+01  0.36820923914E+02  0.00000000000E+00 0. -1.
         11    1    4    4    0    0  0.56155018250E+01 -0.21108039632E+02 -0.15521003566E+02  0.26795237447E+02  0.51100000000E-03 0. -1.
        -11    1    4    4    0    0 -0.31836325539E+01 -0.91201809378E+01 -0.34759839939E+01  0.10266239894E+02  0.51100000000E-03 0.  1.
         12    1    4    4    0    0  0.58599479084E+01 -0.54601047014E+01  0.15340535032E+02  0.17305598745E+02  0.00000000000E+00 0. -1.
</event>
<event>
 8    1  0.2530183E-006  0.9118800E+02  0.7816164E-02  0.1184000E+00
        -11   -1    0    0    0    0  0.00000000000E+00  0.00000000000E+00  0.45593999997E+02  0.45594000000E+02  0.51100000000E-03 0.  1.
         11   -1    0    0    0    0 -0.00000000000E+00 -0.00000000000E+00 -0.45593999997E+02  0.45594000000E+02  0.51100000000E-03 0. -1.
         23    2    1    2    0    0  0.35527136788E-14  0.00000000000E+00  0.00000000000E+00  0.91188000000E+02  0.91188000000E+02 0.  0.
    9900012    2    3    3    0    0 -0.23634420377E+02  0.27243212833E+02 -0.74162477589E+01  0.54367092857E+02  0.40000019786E+02 0.  0.
        -12    1    3    3    0    0  0.23634420377E+02 -0.27243212833E+02  0.74162477589E+01  0.36820907143E+02  0.00000000000E+00 0.  1.
         11    1    4    4    0    0 -0.55608226211E+01  0.99966274926E+01  0.21482967637E+01  0.11639179039E+02  0.51100000000E-03 0. -1.
        -11    1    4    4    0    0 -0.36383352855E+01  0.17654068320E+02  0.82265269478E+01  0.19813615465E+02  0.51100000000E-03 0.  1.
         12    1    4    4    0    0 -0.14435262470E+02 -0.40748297961E+00 -0.17791071470E+02  0.22914298353E+02  0.00000000000E+00 0. -1.
</event>
<event>
 8    1  0.2530183E-006  0.9118800E+02  0.7816164E-02  0.1184000E+00
        -11   -1    0    0    0    0  0.00000000000E+00  0.00000000000E+00  0.45593999997E+02  0.45594000000E+02  0.51100000000E-03 0.  1.
         11   -1    0    0    0    0 -0.00000000000E+00 -0.00000000000E+00 -0.45593999997E+02  0.45594000000E+02  0.51100000000E-03 0. -1.
         23    2    1    2    0    0 -0.44408920985E-15 -0.71054273576E-14  0.17763568394E-14  0.91188000000E+02  0.91188000000E+02 0.  0.
    9900012    2    3    3    0    0  0.25427216499E+01  0.35190218581E+02 -0.10533103892E+02  0.54367310235E+02  0.40000515340E+02 0.  0.
        -12    1    3    3    0    0 -0.25427216499E+01 -0.35190218581E+02  0.10533103892E+02  0.36820689765E+02  0.00000000000E+00 0.  1.
         11    1    4    4    0    0  0.11697078044E+02  0.11766372739E+02 -0.15064827668E+02  0.22410225236E+02  0.51100000000E-03 0. -1.
        -11    1    4    4    0    0 -0.22041501125E+01  0.24494277082E+02  0.38356906678E+01  0.24890568708E+02  0.51100000000E-03 0.  1.
        -12    1    4    4    0    0 -0.69502062818E+01 -0.10704312398E+01  0.69603310771E+00  0.70665162906E+01  0.00000000000E+00 0.  1.
</event>
<event>
 8    1  0.2530183E-006  0.9118800E+02  0.7816164E-02  0.1184000E+00
        -11   -1    0    0    0    0  0.00000000000E+00  0.00000000000E+00  0.45593999997E+02  0.45594000000E+02  0.51100000000E-03 0. -1.
         11   -1    0    0    0    0 -0.00000000000E+00 -0.00000000000E+00 -0.45593999997E+02  0.45594000000E+02  0.51100000000E-03 0.  1.
         23    2    1    2    0    0 -0.44408920985E-15  0.00000000000E+00  0.71054273576E-14  0.91188000000E+02  0.91188000000E+02 0.  0.
    9900012    2    3    3    0    0 -0.39490837652E+01  0.53966635860E+01  0.36208574868E+02  0.54367080206E+02  0.39999990947E+02 0.  0.
        -12    1    3    3    0    0  0.39490837652E+01 -0.53966635860E+01 -0.36208574868E+02  0.36820919794E+02  0.00000000000E+00 0.  1.
         11    1    4    4    0    0 -0.10809827329E+02  0.57456864697E+01  0.14411333616E+02  0.18909040609E+02  0.51100000000E-03 0. -1.
        -11    1    4    4    0    0 -0.15468816524E+01  0.24696584125E+01  0.25631807837E+02  0.25796930608E+02  0.51100000000E-03 0.  1.
        -12    1    4    4    0    0  0.84076252162E+01 -0.28186812962E+01 -0.38345665845E+01  0.96611089900E+01  0.00000000000E+00 0.  1.
</event>
<event>
 8    1  0.2530183E-006  0.9118800E+02  0.7816164E-02  0.1184000E+00
        -11   -1    0    0    0    0  0.00000000000E+00  0.00000000000E+00  0.45593999997E+02  0.45594000000E+02  0.51100000000E-03 0. -1.
         11   -1    0    0    0    0 -0.00000000000E+00 -0.00000000000E+00 -0.45593999997E+02  0.45594000000E+02  0.51100000000E-03 0.  1.
         23    2    1    2    0    0  0.00000000000E+00  0.00000000000E+00  0.17763568394E-14  0.91188000000E+02  0.91188000000E+02 0.  0.
    9900012    2    3    3    0    0  0.21674616808E+02  0.26958240327E+02  0.12619219865E+02  0.54367075985E+02  0.39999981323E+02 0.  0.
        -12    1    3    3    0    0 -0.21674616808E+02 -0.26958240327E+02 -0.12619219865E+02  0.36820924015E+02  0.00000000000E+00 0.  1.
         11    1    4    4    0    0 -0.14438835036E+01  0.15906735001E+02  0.52717300381E+01  0.16819636020E+02  0.51100000000E-03 0. -1.
        -11    1    4    4    0    0 -0.53835996277E+01  0.52121145308E+01 -0.17946429724E+00  0.74954313104E+01  0.51100000000E-03 0.  1.
        -12    1    4    4    0    0  0.28502099940E+02  0.58393907952E+01  0.75269541239E+01  0.30052008655E+02  0.00000000000E+00 0.  1.
</event>
<event>
 8    1  0.2530183E-006  0.9118800E+02  0.7816164E-02  0.1184000E+00
        -11   -1    0    0    0    0  0.00000000000E+00  0.00000000000E+00  0.45593999997E+02  0.45594000000E+02  0.51100000000E-03 0.  1.
         11   -1    0    0    0    0 -0.00000000000E+00 -0.00000000000E+00 -0.45593999997E+02  0.45594000000E+02  0.51100000000E-03 0. -1.
         23    2    1    2    0    0 -0.17763568394E-14  0.35527136788E-14  0.00000000000E+00  0.91188000000E+02  0.91188000000E+02 0.  0.
    9900012    2    3    3    0    0 -0.13589768075E+02 -0.28189710668E+02  0.19401824134E+02  0.54367185729E+02  0.40000231505E+02 0.  0.
         12    1    3    3    0    0  0.13589768075E+02  0.28189710668E+02 -0.19401824134E+02  0.36820814271E+02  0.00000000000E+00 0. -1.
         11    1    4    4    0    0  0.26457547069E+01 -0.63251954423E+01  0.16790984228E+02  0.18136848319E+02  0.51100000000E-03 0. -1.
        -11    1    4    4    0    0  0.32314868693E+01 -0.10145283206E+02  0.74542786750E+01  0.12997520900E+02  0.51100000000E-03 0.  1.
        -12    1    4    4    0    0 -0.19467009651E+02 -0.11719232019E+02 -0.48434387681E+01  0.23232816510E+02  0.00000000000E+00 0.  1.
</event>
<event>
 8    1  0.2530183E-006  0.9118800E+02  0.7816164E-02  0.1184000E+00
        -11   -1    0    0    0    0  0.00000000000E+00  0.00000000000E+00  0.45593999997E+02  0.45594000000E+02  0.51100000000E-03 0. -1.
         11   -1    0    0    0    0 -0.00000000000E+00 -0.00000000000E+00 -0.45593999997E+02  0.45594000000E+02  0.51100000000E-03 0.  1.
         23    2    1    2    0    0  0.00000000000E+00  0.00000000000E+00  0.00000000000E+00  0.91188000000E+02  0.91188000000E+02 0.  0.
    9900012    2    3    3    0    0  0.21849650772E+02 -0.21780634333E+02 -0.20099233252E+02  0.54367048789E+02  0.39999919324E+02 0.  0.
         12    1    3    3    0    0 -0.21849650772E+02  0.21780634333E+02  0.20099233252E+02  0.36820951211E+02  0.00000000000E+00 0. -1.
         11    1    4    4    0    0 -0.39978058847E+01 -0.34980969156E+01 -0.95052026941E+01  0.10888893995E+02  0.51100000000E-03 0.  1.
        -11    1    4    4    0    0  0.27276071247E+02 -0.45578082167E+01 -0.32441162865E+01  0.27843885669E+02  0.51100000000E-03 0. -1.
        -12    1    4    4    0    0 -0.14286145905E+01 -0.13724729200E+02 -0.73499142712E+01  0.15634269125E+02  0.00000000000E+00 0.  1.
</event>
<event>
 8    1  0.2530183E-006  0.9118800E+02  0.7816164E-02  0.1184000E+00
        -11   -1    0    0    0    0  0.00000000000E+00  0.00000000000E+00  0.45593999997E+02  0.45594000000E+02  0.51100000000E-03 0. -1.
         11   -1    0    0    0    0 -0.00000000000E+00 -0.00000000000E+00 -0.45593999997E+02  0.45594000000E+02  0.51100000000E-03 0.  1.
         23    2    1    2    0    0  0.00000000000E+00  0.35527136788E-14  0.00000000000E+00  0.91188000000E+02  0.91188000000E+02 0.  0.
    9900012    2    3    3    0    0 -0.21783102623E+02  0.19555189428E+02 -0.22335400128E+02  0.54367094357E+02  0.40000023207E+02 0.  0.
        -12    1    3    3    0    0  0.21783102623E+02 -0.19555189428E+02  0.22335400128E+02  0.36820905643E+02  0.00000000000E+00 0.  1.
         11    1    4    4    0    0  0.21017329714E+01  0.17976229029E+02 -0.15858802424E+01  0.18168024328E+02  0.51100000000E-03 0.  1.
        -11    1    4    4    0    0 -0.23287662857E+02  0.62622691058E+01 -0.20178089067E+02  0.31443386178E+02  0.51100000000E-03 0. -1.
        -12    1    4    4    0    0 -0.59717273748E+00 -0.46833087061E+01 -0.57143081886E+00  0.47556838515E+01  0.00000000000E+00 0.  1.
</event>
<event>
 8    1  0.2530183E-006  0.9118800E+02  0.7816164E-02  0.1184000E+00
        -11   -1    0    0    0    0  0.00000000000E+00  0.00000000000E+00  0.45593999997E+02  0.45594000000E+02  0.51100000000E-03 0.  1.
         11   -1    0    0    0    0 -0.00000000000E+00 -0.00000000000E+00 -0.45593999997E+02  0.45594000000E+02  0.51100000000E-03 0. -1.
         23    2    1    2    0    0  0.00000000000E+00  0.35527136788E-14  0.00000000000E+00  0.91188000000E+02  0.91188000000E+02 0.  0.
    9900012    2    3    3    0    0 -0.17895853088E+02 -0.24963597653E+02  0.20306094023E+02  0.54367079045E+02  0.39999988298E+02 0.  0.
         12    1    3    3    0    0  0.17895853088E+02  0.24963597653E+02 -0.20306094023E+02  0.36820920955E+02  0.00000000000E+00 0. -1.
         11    1    4    4    0    0 -0.25126188069E+02 -0.25382656816E+02  0.83622867640E+01  0.36681499889E+02  0.51100000000E-03 0. -1.
        -11    1    4    4    0    0  0.56711785367E+01 -0.38131238696E+01  0.11191467332E+02  0.13113013420E+02  0.51100000000E-03 0.  1.
         12    1    4    4    0    0  0.15591564441E+01  0.42321830332E+01  0.75233992678E+00  0.45725657359E+01  0.00000000000E+00 0. -1.
</event>
<event>
 8    1  0.2530183E-006  0.9118800E+02  0.7816164E-02  0.1184000E+00
        -11   -1    0    0    0    0  0.00000000000E+00  0.00000000000E+00  0.45593999997E+02  0.45594000000E+02  0.51100000000E-03 0.  1.
         11   -1    0    0    0    0 -0.00000000000E+00 -0.00000000000E+00 -0.45593999997E+02  0.45594000000E+02  0.51100000000E-03 0. -1.
         23    2    1    2    0    0  0.00000000000E+00 -0.35527136788E-14  0.00000000000E+00  0.91188000000E+02  0.91188000000E+02 0.  0.
    9900012    2    3    3    0    0  0.16035467322E+02  0.26891776403E+02 -0.19377149092E+02  0.54367112486E+02  0.40000064534E+02 0.  0.
        -12    1    3    3    0    0 -0.16035467322E+02 -0.26891776403E+02  0.19377149092E+02  0.36820887514E+02  0.00000000000E+00 0.  1.
         11    1    4    4    0    0  0.34627568483E+01 -0.83008690376E+01 -0.61267132949E+01  0.10882634232E+02  0.51100000000E-03 0. -1.
        -11    1    4    4    0    0  0.15244917467E+02  0.21385451163E+02 -0.13261010695E+02  0.29421071274E+02  0.51100000000E-03 0.  1.
         12    1    4    4    0    0 -0.26722069931E+01  0.13807194278E+02  0.10574897599E-01  0.14063406980E+02  0.00000000000E+00 0. -1.
</event>
<event>
 8    1  0.2530183E-006  0.9118800E+02  0.7816164E-02  0.1184000E+00
        -11   -1    0    0    0    0  0.00000000000E+00  0.00000000000E+00  0.45593999997E+02  0.45594000000E+02  0.51100000000E-03 0.  1.
         11   -1    0    0    0    0 -0.00000000000E+00 -0.00000000000E+00 -0.45593999997E+02  0.45594000000E+02  0.51100000000E-03 0. -1.
         23    2    1    2    0    0  0.00000000000E+00  0.35527136788E-14  0.00000000000E+00  0.91188000000E+02  0.91188000000E+02 0.  0.
    9900012    2    3    3    0    0 -0.16108044141E+02 -0.22730486791E+02 -0.24075627922E+02  0.54367082363E+02  0.39999995862E+02 0.  0.
        -12    1    3    3    0    0  0.16108044141E+02  0.22730486791E+02  0.24075627922E+02  0.36820917637E+02  0.00000000000E+00 0.  1.
         11    1    4    4    0    0  0.32095988446E+00 -0.42747022749E+01 -0.24607053051E+01  0.49427892577E+01  0.51100000000E-03 0. -1.
        -11    1    4    4    0    0 -0.18469376744E+02 -0.28511358371E+02 -0.18602545514E+02  0.38730738869E+02  0.51100000000E-03 0.  1.
        -12    1    4    4    0    0  0.20403727185E+01  0.10055573855E+02 -0.30123771034E+01  0.10693554236E+02  0.00000000000E+00 0.  1.
</event>
<event>
 8    1  0.2530183E-006  0.9118800E+02  0.7816164E-02  0.1184000E+00
        -11   -1    0    0    0    0  0.00000000000E+00  0.00000000000E+00  0.45593999997E+02  0.45594000000E+02  0.51100000000E-03 0. -1.
         11   -1    0    0    0    0 -0.00000000000E+00 -0.00000000000E+00 -0.45593999997E+02  0.45594000000E+02  0.51100000000E-03 0.  1.
         23    2    1    2    0    0  0.00000000000E+00  0.00000000000E+00  0.00000000000E+00  0.91188000000E+02  0.91188000000E+02 0.  0.
    9900012    2    3    3    0    0  0.98557475802E+01 -0.26704158225E+02  0.23356690885E+02  0.54367043522E+02  0.39999907316E+02 0.  0.
        -12    1    3    3    0    0 -0.98557475802E+01  0.26704158225E+02 -0.23356690885E+02  0.36820956478E+02  0.00000000000E+00 0.  1.
         11    1    4    4    0    0 -0.29151341083E+00 -0.10070843704E+02 -0.10120775276E+02  0.14280650035E+02  0.51100000000E-03 0. -1.
        -11    1    4    4    0    0 -0.12220939036E+01 -0.94850583957E+00  0.76297484605E+01  0.77850008779E+01  0.51100000000E-03 0.  1.
         12    1    4    4    0    0  0.11369354895E+02 -0.15684808681E+02  0.25847717701E+02  0.32301392608E+02  0.00000000000E+00 0. -1.
</event>
<event>
 8    1  0.2530183E-006  0.9118800E+02  0.7816164E-02  0.1184000E+00
        -11   -1    0    0    0    0  0.00000000000E+00  0.00000000000E+00  0.45593999997E+02  0.45594000000E+02  0.51100000000E-03 0.  1.
         11   -1    0    0    0    0 -0.00000000000E+00 -0.00000000000E+00 -0.45593999997E+02  0.45594000000E+02  0.51100000000E-03 0. -1.
         23    2    1    2    0    0  0.00000000000E+00  0.00000000000E+00  0.00000000000E+00  0.91188000000E+02  0.91188000000E+02 0.  0.
    9900012    2    3    3    0    0  0.22673673039E+02  0.65726056939E+01  0.28257482206E+02  0.54367083454E+02  0.39999998350E+02 0.  0.
         12    1    3    3    0    0 -0.22673673039E+02 -0.65726056939E+01 -0.28257482206E+02  0.36820916546E+02  0.00000000000E+00 0. -1.
         11    1    4    4    0    0  0.86432036802E+01  0.76564710682E+01  0.22530131159E+02  0.25316661102E+02  0.51100000000E-03 0. -1.
        -11    1    4    4    0    0 -0.11970651560E+01  0.86218167271E+01  0.66730290679E+01  0.10968044760E+02  0.51100000000E-03 0.  1.
         12    1    4    4    0    0  0.15227534514E+02 -0.97056821014E+01 -0.94567802102E+00  0.18082377591E+02  0.00000000000E+00 0. -1.
</event>
<event>
 8    1  0.2530183E-006  0.9118800E+02  0.7816164E-02  0.1184000E+00
        -11   -1    0    0    0    0  0.00000000000E+00  0.00000000000E+00  0.45593999997E+02  0.45594000000E+02  0.51100000000E-03 0.  1.
         11   -1    0    0    0    0 -0.00000000000E+00 -0.00000000000E+00 -0.45593999997E+02  0.45594000000E+02  0.51100000000E-03 0. -1.
         23    2    1    2    0    0  0.00000000000E+00 -0.35527136788E-14  0.35527136788E-14  0.91188000000E+02  0.91188000000E+02 0.  0.
    9900012    2    3    3    0    0 -0.24617878075E+02  0.19583846983E+02 -0.19136697477E+02  0.54367079670E+02  0.39999989724E+02 0.  0.
        -12    1    3    3    0    0  0.24617878075E+02 -0.19583846983E+02  0.19136697477E+02  0.36820920330E+02  0.00000000000E+00 0.  1.
         11    1    4    4    0    0 -0.15598446699E+02  0.91418607922E+01 -0.15114593403E+02  0.23565570058E+02  0.51100000000E-03 0. -1.
        -11    1    4    4    0    0 -0.18044610035E+01  0.48337143766E+01  0.11604066197E+02  0.12699418363E+02  0.51100000000E-03 0.  1.
        -12    1    4    4    0    0 -0.72149703726E+01  0.56082718142E+01 -0.15626170272E+02  0.18102091249E+02  0.00000000000E+00 0.  1.
</event>
<event>
 8    1  0.2530183E-006  0.9118800E+02  0.7816164E-02  0.1184000E+00
        -11   -1    0    0    0    0  0.00000000000E+00  0.00000000000E+00  0.45593999997E+02  0.45594000000E+02  0.51100000000E-03 0. -1.
         11   -1    0    0    0    0 -0.00000000000E+00 -0.00000000000E+00 -0.45593999997E+02  0.45594000000E+02  0.51100000000E-03 0.  1.
         23    2    1    2    0    0 -0.35527136788E-14  0.00000000000E+00  0.17763568394E-14  0.91188000000E+02  0.91188000000E+02 0.  0.
    9900012    2    3    3    0    0  0.21612715897E+02 -0.27692082615E+02  0.11037173252E+02  0.54367080383E+02  0.39999991350E+02 0.  0.
        -12    1    3    3    0    0 -0.21612715897E+02  0.27692082615E+02 -0.11037173252E+02  0.36820919617E+02  0.00000000000E+00 0.  1.
         11    1    4    4    0    0  0.18994813427E+02 -0.15872730105E+02  0.18347885404E+02  0.30812195591E+02  0.51100000000E-03 0. -1.
        -11    1    4    4    0    0 -0.47270264681E+01  0.70192038595E+00  0.30954530228E+01  0.56937949678E+01  0.51100000000E-03 0.  1.
         12    1    4    4    0    0  0.73449289386E+01 -0.12521272897E+02 -0.10406165175E+02  0.17861089824E+02  0.00000000000E+00 0. -1.
</event>
<event>
 8    1  0.2530183E-006  0.9118800E+02  0.7816164E-02  0.1184000E+00
        -11   -1    0    0    0    0  0.00000000000E+00  0.00000000000E+00  0.45593999997E+02  0.45594000000E+02  0.51100000000E-03 0.  1.
         11   -1    0    0    0    0 -0.00000000000E+00 -0.00000000000E+00 -0.45593999997E+02  0.45594000000E+02  0.51100000000E-03 0. -1.
         23    2    1    2    0    0  0.00000000000E+00  0.00000000000E+00 -0.44408920985E-15  0.91188000000E+02  0.91188000000E+02 0.  0.
    9900012    2    3    3    0    0  0.34857851719E+02 -0.11422660494E+02 -0.31989873338E+01  0.54367074982E+02  0.39999979037E+02 0.  0.
        -12    1    3    3    0    0 -0.34857851719E+02  0.11422660494E+02  0.31989873338E+01  0.36820925018E+02  0.00000000000E+00 0.  1.
         11    1    4    4    0    0  0.17729260834E+01  0.54094897896E+01  0.11624033800E+02  0.12943106611E+02  0.51100000000E-03 0. -1.
        -11    1    4    4    0    0  0.10647090490E+01  0.17001910879E+00  0.13484908588E+01  0.17265398095E+01  0.51100000000E-03 0.  1.
         12    1    4    4    0    0  0.32020216586E+02 -0.17002169392E+02 -0.16171511993E+02  0.39697428562E+02  0.00000000000E+00 0. -1.
</event>
<event>
 8    1  0.2530183E-006  0.9118800E+02  0.7816164E-02  0.1184000E+00
        -11   -1    0    0    0    0  0.00000000000E+00  0.00000000000E+00  0.45593999997E+02  0.45594000000E+02  0.51100000000E-03 0. -1.
         11   -1    0    0    0    0 -0.00000000000E+00 -0.00000000000E+00 -0.45593999997E+02  0.45594000000E+02  0.51100000000E-03 0.  1.
         23    2    1    2    0    0  0.00000000000E+00  0.00000000000E+00  0.17763568394E-14  0.91188000000E+02  0.91188000000E+02 0.  0.
    9900012    2    3    3    0    0 -0.31668940091E+02  0.14455239988E+02  0.11995991933E+02  0.54367088115E+02  0.40000008975E+02 0.  0.
        -12    1    3    3    0    0  0.31668940091E+02 -0.14455239988E+02 -0.11995991933E+02  0.36820911885E+02  0.00000000000E+00 0.  1.
         11    1    4    4    0    0 -0.26861829500E+02  0.74521947652E+01  0.87921618675E+01  0.29230039368E+02  0.51100000000E-03 0. -1.
        -11    1    4    4    0    0 -0.15158054107E+01 -0.80340238307E+01 -0.27600018504E+01  0.86290680511E+01  0.51100000000E-03 0.  1.
        -12    1    4    4    0    0 -0.32913051806E+01  0.15037069054E+02  0.59638319156E+01  0.16507980695E+02  0.00000000000E+00 0.  1.
</event>
<event>
 8    1  0.2530183E-006  0.9118800E+02  0.7816164E-02  0.1184000E+00
        -11   -1    0    0    0    0  0.00000000000E+00  0.00000000000E+00  0.45593999997E+02  0.45594000000E+02  0.51100000000E-03 0.  1.
         11   -1    0    0    0    0 -0.00000000000E+00 -0.00000000000E+00 -0.45593999997E+02  0.45594000000E+02  0.51100000000E-03 0. -1.
         23    2    1    2    0    0  0.00000000000E+00 -0.17763568394E-14  0.00000000000E+00  0.91188000000E+02  0.91188000000E+02 0.  0.
    9900012    2    3    3    0    0  0.10950636810E+02  0.96105368903E+01 -0.33815707245E+02  0.54367069507E+02  0.39999966556E+02 0.  0.
        -12    1    3    3    0    0 -0.10950636810E+02 -0.96105368903E+01  0.33815707245E+02  0.36820930493E+02  0.00000000000E+00 0.  1.
         11    1    4    4    0    0  0.11952896724E+02  0.84648368947E+01 -0.31388550247E+02  0.34637642682E+02  0.51100000000E-03 0. -1.
        -11    1    4    4    0    0  0.84398112575E+01 -0.51747693163E+00  0.26752707997E+01  0.88687806687E+01  0.51100000000E-03 0.  1.
        -12    1    4    4    0    0 -0.94420711715E+01  0.16631769272E+01 -0.51024277982E+01  0.10860646156E+02  0.00000000000E+00 0.  1.
</event>
<event>
 8    1  0.2530183E-006  0.9118800E+02  0.7816164E-02  0.1184000E+00
        -11   -1    0    0    0    0  0.00000000000E+00  0.00000000000E+00  0.45593999997E+02  0.45594000000E+02  0.51100000000E-03 0.  1.
         11   -1    0    0    0    0 -0.00000000000E+00 -0.00000000000E+00 -0.45593999997E+02  0.45594000000E+02  0.51100000000E-03 0. -1.
         23    2    1    2    0    0 -0.17763568394E-14 -0.35527136788E-14  0.00000000000E+00  0.91188000000E+02  0.91188000000E+02 0.  0.
    9900012    2    3    3    0    0 -0.13800207078E+02  0.26683838610E+02  0.21291005343E+02  0.54367083840E+02  0.39999999230E+02 0.  0.
         12    1    3    3    0    0  0.13800207078E+02 -0.26683838610E+02 -0.21291005343E+02  0.36820916160E+02  0.00000000000E+00 0. -1.
         11    1    4    4    0    0 -0.80024944740E+01 -0.36901091029E+01  0.26690113962E+01  0.92076297217E+01  0.51100000000E-03 0. -1.
        -11    1    4    4    0    0 -0.11772375503E+02  0.30822538260E+01  0.10478175145E+02  0.16058682021E+02  0.51100000000E-03 0.  1.
        -12    1    4    4    0    0  0.59746628985E+01  0.27291693886E+02  0.81438188017E+01  0.29100772097E+02  0.00000000000E+00 0.  1.
</event>
<event>
 8    1  0.2530183E-006  0.9118800E+02  0.7816164E-02  0.1184000E+00
        -11   -1    0    0    0    0  0.00000000000E+00  0.00000000000E+00  0.45593999997E+02  0.45594000000E+02  0.51100000000E-03 0.  1.
         11   -1    0    0    0    0 -0.00000000000E+00 -0.00000000000E+00 -0.45593999997E+02  0.45594000000E+02  0.51100000000E-03 0. -1.
         23    2    1    2    0    0 -0.17763568394E-14  0.00000000000E+00 -0.35527136788E-14  0.91188000000E+02  0.91188000000E+02 0.  0.
    9900012    2    3    3    0    0  0.13082273052E+02 -0.19082346354E+02  0.28644313010E+02  0.54367102695E+02  0.40000042213E+02 0.  0.
         12    1    3    3    0    0 -0.13082273052E+02  0.19082346354E+02 -0.28644313010E+02  0.36820897305E+02  0.00000000000E+00 0. -1.
         11    1    4    4    0    0  0.24787271531E+02 -0.99585091191E+01  0.22168452138E+02  0.34713412455E+02  0.51100000000E-03 0.  1.
        -11    1    4    4    0    0 -0.90873478917E+01 -0.10476578016E+02  0.83245943945E+01  0.16175210995E+02  0.51100000000E-03 0. -1.
        -12    1    4    4    0    0 -0.26176505875E+01  0.13527407808E+01 -0.18487335229E+01  0.34784792449E+01  0.00000000000E+00 0.  1.
</event>
<event>
 8    1  0.2530183E-006  0.9118800E+02  0.7816164E-02  0.1184000E+00
        -11   -1    0    0    0    0  0.00000000000E+00  0.00000000000E+00  0.45593999997E+02  0.45594000000E+02  0.51100000000E-03 0. -1.
         11   -1    0    0    0    0 -0.00000000000E+00 -0.00000000000E+00 -0.45593999997E+02  0.45594000000E+02  0.51100000000E-03 0.  1.
         23    2    1    2    0    0  0.00000000000E+00  0.17763568394E-14  0.00000000000E+00  0.91188000000E+02  0.91188000000E+02 0.  0.
    9900012    2    3    3    0    0  0.10490908074E+02  0.11481209138E+02  0.33375110210E+02  0.54367145895E+02  0.40000140696E+02 0.  0.
        -12    1    3    3    0    0 -0.10490908074E+02 -0.11481209138E+02 -0.33375110210E+02  0.36820854105E+02  0.00000000000E+00 0.  1.
         11    1    4    4    0    0  0.16403436398E+02 -0.11830180661E+01  0.26940903143E+02  0.31563975033E+02  0.51100000000E-03 0. -1.
        -11    1    4    4    0    0 -0.13691792438E+01  0.13977199543E+02 -0.90386079855E+00  0.14073156130E+02  0.51100000000E-03 0.  1.
         12    1    4    4    0    0 -0.45433490803E+01 -0.13129723383E+01  0.73380678653E+01  0.87300147320E+01  0.00000000000E+00 0. -1.
</event>
<event>
 8    1  0.2530183E-006  0.9118800E+02  0.7816164E-02  0.1184000E+00
        -11   -1    0    0    0    0  0.00000000000E+00  0.00000000000E+00  0.45593999997E+02  0.45594000000E+02  0.51100000000E-03 0.  1.
         11   -1    0    0    0    0 -0.00000000000E+00 -0.00000000000E+00 -0.45593999997E+02  0.45594000000E+02  0.51100000000E-03 0. -1.
         23    2    1    2    0    0  0.00000000000E+00  0.00000000000E+00  0.00000000000E+00  0.91188000000E+02  0.91188000000E+02 0.  0.
    9900012    2    3    3    0    0 -0.22292865009E+01 -0.33119658457E+02 -0.15934279549E+02  0.54367044562E+02  0.39999909688E+02 0.  0.
         12    1    3    3    0    0  0.22292865009E+01  0.33119658457E+02  0.15934279549E+02  0.36820955438E+02  0.00000000000E+00 0. -1.
         11    1    4    4    0    0 -0.25519844397E+01  0.40670978235E+01 -0.85867072135E+01  0.98379596623E+01  0.51100000000E-03 0. -1.
        -11    1    4    4    0    0  0.18753188422E+01 -0.37829458413E+02 -0.92169264011E+00  0.37887125282E+02  0.51100000000E-03 0.  1.
        -12    1    4    4    0    0 -0.15526209033E+01  0.64270213237E+00 -0.64258796955E+01  0.66419596176E+01  0.00000000000E+00 0.  1.
</event>
<event>
 8    1  0.2530183E-006  0.9118800E+02  0.7816164E-02  0.1184000E+00
        -11   -1    0    0    0    0  0.00000000000E+00  0.00000000000E+00  0.45593999997E+02  0.45594000000E+02  0.51100000000E-03 0.  1.
         11   -1    0    0    0    0 -0.00000000000E+00 -0.00000000000E+00 -0.45593999997E+02  0.45594000000E+02  0.51100000000E-03 0. -1.
         23    2    1    2    0    0  0.17763568394E-14  0.00000000000E+00 -0.88817841970E-15  0.91188000000E+02  0.91188000000E+02 0.  0.
    9900012    2    3    3    0    0  0.10634579069E+02  0.34679471184E+02 -0.63261638637E+01  0.54367077377E+02  0.39999984496E+02 0.  0.
        -12    1    3    3    0    0 -0.10634579069E+02 -0.34679471184E+02  0.63261638637E+01  0.36820922623E+02  0.00000000000E+00 0.  1.
         11    1    4    4    0    0  0.15844865293E+00  0.10098983280E+02 -0.10753921075E+02  0.14753351755E+02  0.51100000000E-03 0. -1.
        -11    1    4    4    0    0  0.17191745544E+02  0.22625921882E+02  0.10556862889E+02  0.30313954050E+02  0.51100000000E-03 0.  1.
        -12    1    4    4    0    0 -0.67156151272E+01  0.19545660222E+01 -0.61291056772E+01  0.92997715711E+01  0.00000000000E+00 0.  1.
</event>
<event>
 8    1  0.2530183E-006  0.9118800E+02  0.7816164E-02  0.1184000E+00
        -11   -1    0    0    0    0  0.00000000000E+00  0.00000000000E+00  0.45593999997E+02  0.45594000000E+02  0.51100000000E-03 0.  1.
         11   -1    0    0    0    0 -0.00000000000E+00 -0.00000000000E+00 -0.45593999997E+02  0.45594000000E+02  0.51100000000E-03 0. -1.
         23    2    1    2    0    0  0.00000000000E+00 -0.33306690739E-15  0.35527136788E-14  0.91188000000E+02  0.91188000000E+02 0.  0.
    9900012    2    3    3    0    0 -0.21039208007E+02 -0.79328077380E+00  0.30207678356E+02  0.54367063026E+02  0.39999951781E+02 0.  0.
         12    1    3    3    0    0  0.21039208007E+02  0.79328077380E+00 -0.30207678356E+02  0.36820936974E+02  0.00000000000E+00 0. -1.
         11    1    4    4    0    0  0.50864616531E+01  0.57687258906E+01  0.98136455646E+01  0.12468276949E+02  0.51100000000E-03 0. -1.
        -11    1    4    4    0    0 -0.19431303669E+02 -0.18577863789E+01 -0.43041145253E+00  0.19524655869E+02  0.51100000000E-03 0.  1.
        -12    1    4    4    0    0 -0.66943659911E+01 -0.47042202856E+01  0.20824444244E+02  0.22374130208E+02  0.00000000000E+00 0.  1.
</event>
<event>
 8    1  0.2530183E-006  0.9118800E+02  0.7816164E-02  0.1184000E+00
        -11   -1    0    0    0    0  0.00000000000E+00  0.00000000000E+00  0.45593999997E+02  0.45594000000E+02  0.51100000000E-03 0.  1.
         11   -1    0    0    0    0 -0.00000000000E+00 -0.00000000000E+00 -0.45593999997E+02  0.45594000000E+02  0.51100000000E-03 0. -1.
         23    2    1    2    0    0  0.00000000000E+00  0.00000000000E+00  0.17763568394E-14  0.91188000000E+02  0.91188000000E+02 0.  0.
    9900012    2    3    3    0    0  0.18721620682E+02  0.31340091109E+02 -0.48038164425E+01  0.54367122171E+02  0.40000086614E+02 0.  0.
        -12    1    3    3    0    0 -0.18721620682E+02 -0.31340091109E+02  0.48038164425E+01  0.36820877829E+02  0.00000000000E+00 0.  1.
         11    1    4    4    0    0 -0.14692962386E+01  0.17599579888E+02 -0.30714479584E+01  0.17925898485E+02  0.51100000000E-03 0. -1.
        -11    1    4    4    0    0  0.10811093645E+02  0.77310901202E+01 -0.14383886096E+02  0.19584322294E+02  0.51100000000E-03 0.  1.
        -12    1    4    4    0    0  0.93798232759E+01  0.60094211003E+01  0.12651517612E+02  0.16856901392E+02  0.00000000000E+00 0.  1.
</event>
<event>
 8    1  0.2530183E-006  0.9118800E+02  0.7816164E-02  0.1184000E+00
        -11   -1    0    0    0    0  0.00000000000E+00  0.00000000000E+00  0.45593999997E+02  0.45594000000E+02  0.51100000000E-03 0.  1.
         11   -1    0    0    0    0 -0.00000000000E+00 -0.00000000000E+00 -0.45593999997E+02  0.45594000000E+02  0.51100000000E-03 0. -1.
         23    2    1    2    0    0 -0.71054273576E-14  0.10658141036E-13 -0.17763568394E-14  0.91188000000E+02  0.91188000000E+02 0.  0.
    9900012    2    3    3    0    0  0.24350908354E+02 -0.26057587726E+02  0.91550665087E+01  0.54367083953E+02  0.39999999487E+02 0.  0.
        -12    1    3    3    0    0 -0.24350908354E+02  0.26057587726E+02 -0.91550665087E+01  0.36820916047E+02  0.00000000000E+00 0.  1.
         11    1    4    4    0    0 -0.53386724685E+01 -0.10913015215E+02 -0.16043914006E+01  0.12254362359E+02  0.51100000000E-03 0. -1.
        -11    1    4    4    0    0 -0.29634557730E+01  0.59321345787E+00  0.43590105209E+01  0.53042384287E+01  0.51100000000E-03 0.  1.
        -12    1    4    4    0    0  0.32653036596E+02 -0.15737785970E+02  0.64004473884E+01  0.36808483165E+02  0.00000000000E+00 0.  1.
</event>
<event>
 8    1  0.2530183E-006  0.9118800E+02  0.7816164E-02  0.1184000E+00
        -11   -1    0    0    0    0  0.00000000000E+00  0.00000000000E+00  0.45593999997E+02  0.45594000000E+02  0.51100000000E-03 0.  1.
         11   -1    0    0    0    0 -0.00000000000E+00 -0.00000000000E+00 -0.45593999997E+02  0.45594000000E+02  0.51100000000E-03 0. -1.
         23    2    1    2    0    0  0.71054273576E-14  0.00000000000E+00  0.00000000000E+00  0.91188000000E+02  0.91188000000E+02 0.  0.
    9900012    2    3    3    0    0 -0.34774967770E+02 -0.90521180326E+01 -0.80336787592E+01  0.54367092641E+02  0.40000019294E+02 0.  0.
         12    1    3    3    0    0  0.34774967770E+02  0.90521180326E+01  0.80336787592E+01  0.36820907359E+02  0.00000000000E+00 0. -1.
         11    1    4    4    0    0 -0.27503163151E+02 -0.16445003294E+02 -0.13572007008E+01  0.32073417508E+02  0.51100000000E-03 0. -1.
        -11    1    4    4    0    0 -0.70494516360E+01  0.10151766603E+02  0.25855863661E+01  0.12626891567E+02  0.51100000000E-03 0.  1.
        -12    1    4    4    0    0 -0.22235298303E+00 -0.27588813419E+01 -0.92620644246E+01  0.96667835660E+01  0.00000000000E+00 0.  1.
</event>
<event>
 8    1  0.2530183E-006  0.9118800E+02  0.7816164E-02  0.1184000E+00
        -11   -1    0    0    0    0  0.00000000000E+00  0.00000000000E+00  0.45593999997E+02  0.45594000000E+02  0.51100000000E-03 0.  1.
         11   -1    0    0    0    0 -0.00000000000E+00 -0.00000000000E+00 -0.45593999997E+02  0.45594000000E+02  0.51100000000E-03 0. -1.
         23    2    1    2    0    0  0.35527136788E-14  0.00000000000E+00  0.35527136788E-14  0.91188000000E+02  0.91188000000E+02 0.  0.
    9900012    2    3    3    0    0 -0.19520795772E+02  0.88630821746E+01  0.29935970036E+02  0.54367109256E+02  0.40000057171E+02 0.  0.
         12    1    3    3    0    0  0.19520795772E+02 -0.88630821746E+01 -0.29935970036E+02  0.36820890744E+02  0.00000000000E+00 0. -1.
         11    1    4    4    0    0 -0.72333480076E+01 -0.11309912406E+02  0.69392788529E+01  0.15112545559E+02  0.51100000000E-03 0. -1.
        -11    1    4    4    0    0  0.59518073639E+01  0.42221698647E+01  0.32115039697E+01  0.79727339898E+01  0.51100000000E-03 0.  1.
        -12    1    4    4    0    0 -0.18239255128E+02  0.15950824716E+02  0.19785187213E+02  0.31281829707E+02  0.00000000000E+00 0.  1.
</event>
<event>
 8    1  0.2530183E-006  0.9118800E+02  0.7816164E-02  0.1184000E+00
        -11   -1    0    0    0    0  0.00000000000E+00  0.00000000000E+00  0.45593999997E+02  0.45594000000E+02  0.51100000000E-03 0.  1.
         11   -1    0    0    0    0 -0.00000000000E+00 -0.00000000000E+00 -0.45593999997E+02  0.45594000000E+02  0.51100000000E-03 0. -1.
         23    2    1    2    0    0  0.17763568394E-14  0.44408920985E-15  0.71054273576E-14  0.91188000000E+02  0.91188000000E+02 0.  0.
    9900012    2    3    3    0    0 -0.14307958954E+02 -0.33702688245E+01 -0.33759493846E+02  0.54367084393E+02  0.40000000492E+02 0.  0.
        -12    1    3    3    0    0  0.14307958954E+02  0.33702688245E+01  0.33759493846E+02  0.36820915607E+02  0.00000000000E+00 0.  1.
         11    1    4    4    0    0 -0.91850084299E+01  0.15643956566E+02 -0.55625070332E+01  0.18974700041E+02  0.51100000000E-03 0. -1.
        -11    1    4    4    0    0  0.88965119021E+00 -0.87848774879E+01 -0.77334045585E+01  0.11737593367E+02  0.51100000000E-03 0.  1.
         12    1    4    4    0    0 -0.60126017142E+01 -0.10229347903E+02 -0.20463582254E+02  0.23654790985E+02  0.00000000000E+00 0. -1.
</event>
<event>
 8    1  0.2530183E-006  0.9118800E+02  0.7816164E-02  0.1184000E+00
        -11   -1    0    0    0    0  0.00000000000E+00  0.00000000000E+00  0.45593999997E+02  0.45594000000E+02  0.51100000000E-03 0.  1.
         11   -1    0    0    0    0 -0.00000000000E+00 -0.00000000000E+00 -0.45593999997E+02  0.45594000000E+02  0.51100000000E-03 0. -1.
         23    2    1    2    0    0  0.35527136788E-14  0.88817841970E-15  0.00000000000E+00  0.91188000000E+02  0.91188000000E+02 0.  0.
    9900012    2    3    3    0    0 -0.26688344013E+02  0.23518925097E+01 -0.25258270700E+02  0.54367090949E+02  0.40000015437E+02 0.  0.
        -12    1    3    3    0    0  0.26688344013E+02 -0.23518925097E+01  0.25258270700E+02  0.36820909051E+02  0.00000000000E+00 0.  1.
         11    1    4    4    0    0 -0.26445332162E+02 -0.10731391680E+02 -0.98697720417E+01  0.30198191352E+02  0.51100000000E-03 0. -1.
        -11    1    4    4    0    0  0.48993680151E+01  0.31536742385E+01 -0.94516354902E+00  0.59027792221E+01  0.51100000000E-03 0.  1.
         12    1    4    4    0    0 -0.51423798664E+01  0.99296099507E+01 -0.14443335110E+02  0.18266120375E+02  0.00000000000E+00 0. -1.
</event>
<event>
 8    1  0.2530183E-006  0.9118800E+02  0.7816164E-02  0.1184000E+00
        -11   -1    0    0    0    0  0.00000000000E+00  0.00000000000E+00  0.45593999997E+02  0.45594000000E+02  0.51100000000E-03 0.  1.
         11   -1    0    0    0    0 -0.00000000000E+00 -0.00000000000E+00 -0.45593999997E+02  0.45594000000E+02  0.51100000000E-03 0. -1.
         23    2    1    2    0    0  0.35527136788E-14  0.35527136788E-14 -0.71054273576E-14  0.91188000000E+02  0.91188000000E+02 0.  0.
    9900012    2    3    3    0    0 -0.21372220080E+02 -0.13407910683E+02  0.26818576683E+02  0.54367083182E+02  0.39999997730E+02 0.  0.
         12    1    3    3    0    0  0.21372220080E+02  0.13407910683E+02 -0.26818576683E+02  0.36820916818E+02  0.00000000000E+00 0. -1.
         11    1    4    4    0    0 -0.83151107246E+01  0.86068566603E+01 -0.62755259158E+00  0.11983858746E+02  0.51100000000E-03 0. -1.
        -11    1    4    4    0    0 -0.18732418340E+01  0.18643983946E+01 -0.16506129782E+01  0.31160134479E+01  0.51100000000E-03 0.  1.
        -12    1    4    4    0    0 -0.11183867522E+02 -0.23879165738E+02  0.29096742253E+02  0.39267210988E+02  0.00000000000E+00 0.  1.
</event>
<event>
 8    1  0.2530183E-006  0.9118800E+02  0.7816164E-02  0.1184000E+00
        -11   -1    0    0    0    0  0.00000000000E+00  0.00000000000E+00  0.45593999997E+02  0.45594000000E+02  0.51100000000E-03 0.  1.
         11   -1    0    0    0    0 -0.00000000000E+00 -0.00000000000E+00 -0.45593999997E+02  0.45594000000E+02  0.51100000000E-03 0. -1.
         23    2    1    2    0    0  0.00000000000E+00  0.17763568394E-14  0.00000000000E+00  0.91188000000E+02  0.91188000000E+02 0.  0.
    9900012    2    3    3    0    0  0.32979056946E+02 -0.12111782565E+02 -0.11021192786E+02  0.54367079801E+02  0.39999990021E+02 0.  0.
        -12    1    3    3    0    0 -0.32979056946E+02  0.12111782565E+02  0.11021192786E+02  0.36820920199E+02  0.00000000000E+00 0.  1.
         11    1    4    4    0    0  0.16358623184E+02 -0.11469109575E+02 -0.11756338865E+02  0.23180951894E+02  0.51100000000E-03 0. -1.
        -11    1    4    4    0    0 -0.70247630215E+01  0.41338656930E-01  0.25214412476E+01  0.74636901476E+01  0.51100000000E-03 0.  1.
        -12    1    4    4    0    0  0.23645196783E+02 -0.68401164685E+00 -0.17862951686E+01  0.23722437759E+02  0.00000000000E+00 0.  1.
</event>
<event>
 8    1  0.2530183E-006  0.9118800E+02  0.7816164E-02  0.1184000E+00
        -11   -1    0    0    0    0  0.00000000000E+00  0.00000000000E+00  0.45593999997E+02  0.45594000000E+02  0.51100000000E-03 0. -1.
         11   -1    0    0    0    0 -0.00000000000E+00 -0.00000000000E+00 -0.45593999997E+02  0.45594000000E+02  0.51100000000E-03 0.  1.
         23    2    1    2    0    0  0.88817841970E-15 -0.17763568394E-14  0.00000000000E+00  0.91188000000E+02  0.91188000000E+02 0.  0.
    9900012    2    3    3    0    0  0.31707326840E+01 -0.12672626091E+02  0.34425790729E+02  0.54367026831E+02  0.39999869267E+02 0.  0.
        -12    1    3    3    0    0 -0.31707326840E+01  0.12672626091E+02 -0.34425790729E+02  0.36820973169E+02  0.00000000000E+00 0.  1.
         11    1    4    4    0    0  0.71901489829E+01 -0.19958715663E+00  0.24770503994E+02  0.25793719115E+02  0.51100000000E-03 0. -1.
        -11    1    4    4    0    0  0.14179180316E+01 -0.15356864280E+02  0.14167383866E+02  0.20941789272E+02  0.51100000000E-03 0.  1.
         12    1    4    4    0    0 -0.54373343305E+01  0.28838253459E+01 -0.45120971305E+01  0.76315184441E+01  0.00000000000E+00 0. -1.
</event>
<event>
 8    1  0.2530183E-006  0.9118800E+02  0.7816164E-02  0.1184000E+00
        -11   -1    0    0    0    0  0.00000000000E+00  0.00000000000E+00  0.45593999997E+02  0.45594000000E+02  0.51100000000E-03 0. -1.
         11   -1    0    0    0    0 -0.00000000000E+00 -0.00000000000E+00 -0.45593999997E+02  0.45594000000E+02  0.51100000000E-03 0.  1.
         23    2    1    2    0    0  0.88817841970E-15 -0.66613381478E-15 -0.71054273576E-14  0.91188000000E+02  0.91188000000E+02 0.  0.
    9900012    2    3    3    0    0 -0.70616301395E+01 -0.34263827045E+00  0.36135788597E+02  0.54367092370E+02  0.40000018675E+02 0.  0.
        -12    1    3    3    0    0  0.70616301395E+01  0.34263827045E+00 -0.36135788597E+02  0.36820907630E+02  0.00000000000E+00 0.  1.
         11    1    4    4    0    0 -0.11078879120E+02 -0.49332308615E+01  0.29814711564E+02  0.32186881725E+02  0.51100000000E-03 0. -1.
        -11    1    4    4    0    0 -0.10145823061E+00  0.12307746751E+02  0.21708738862E+01  0.12498144565E+02  0.51100000000E-03 0.  1.
         12    1    4    4    0    0  0.41187072107E+01 -0.77171541602E+01  0.41502031464E+01  0.96820660800E+01  0.00000000000E+00 0. -1.
</event>
<event>
 8    1  0.2530183E-006  0.9118800E+02  0.7816164E-02  0.1184000E+00
        -11   -1    0    0    0    0  0.00000000000E+00  0.00000000000E+00  0.45593999997E+02  0.45594000000E+02  0.51100000000E-03 0. -1.
         11   -1    0    0    0    0 -0.00000000000E+00 -0.00000000000E+00 -0.45593999997E+02  0.45594000000E+02  0.51100000000E-03 0.  1.
         23    2    1    2    0    0  0.35527136788E-14 -0.88817841970E-15  0.35527136788E-14  0.91188000000E+02  0.91188000000E+02 0.  0.
    9900012    2    3    3    0    0 -0.31639891994E+02  0.63037717400E+01  0.17747096094E+02  0.54367085789E+02  0.40000003674E+02 0.  0.
         12    1    3    3    0    0  0.31639891994E+02 -0.63037717400E+01 -0.17747096094E+02  0.36820914211E+02  0.00000000000E+00 0. -1.
         11    1    4    4    0    0 -0.15632710983E+02  0.83075811698E+01  0.16358610359E+02  0.24103976658E+02  0.51100000000E-03 0. -1.
        -11    1    4    4    0    0  0.93611409384E+00  0.95998050776E+01  0.12568828732E+01  0.97268865493E+01  0.51100000000E-03 0.  1.
         12    1    4    4    0    0 -0.16943295105E+02 -0.11603614507E+02  0.13160286144E+00  0.20536222583E+02  0.00000000000E+00 0. -1.
</event>
<event>
 8    1  0.2530183E-006  0.9118800E+02  0.7816164E-02  0.1184000E+00
        -11   -1    0    0    0    0  0.00000000000E+00  0.00000000000E+00  0.45593999997E+02  0.45594000000E+02  0.51100000000E-03 0.  1.
         11   -1    0    0    0    0 -0.00000000000E+00 -0.00000000000E+00 -0.45593999997E+02  0.45594000000E+02  0.51100000000E-03 0. -1.
         23    2    1    2    0    0 -0.22204460493E-15  0.35527136788E-14  0.35527136788E-14  0.91188000000E+02  0.91188000000E+02 0.  0.
    9900012    2    3    3    0    0 -0.12408040456E+01  0.20724540099E+02  0.30409428501E+02  0.54367088839E+02  0.40000010626E+02 0.  0.
         12    1    3    3    0    0  0.12408040456E+01 -0.20724540099E+02 -0.30409428501E+02  0.36820911161E+02  0.00000000000E+00 0. -1.
         11    1    4    4    0    0 -0.12288489179E+01 -0.58292721867E+01  0.10431399778E+02  0.12012684358E+02  0.51100000000E-03 0. -1.
        -11    1    4    4    0    0 -0.10473440312E+02  0.42006638105E+01  0.11866875040E+02  0.16375629816E+02  0.51100000000E-03 0.  1.
        -12    1    4    4    0    0  0.10461485184E+02  0.22353148475E+02  0.81111536829E+01  0.25978774665E+02  0.00000000000E+00 0.  1.
</event>
<event>
 8    1  0.2530183E-006  0.9118800E+02  0.7816164E-02  0.1184000E+00
        -11   -1    0    0    0    0  0.00000000000E+00  0.00000000000E+00  0.45593999997E+02  0.45594000000E+02  0.51100000000E-03 0.  1.
         11   -1    0    0    0    0 -0.00000000000E+00 -0.00000000000E+00 -0.45593999997E+02  0.45594000000E+02  0.51100000000E-03 0. -1.
         23    2    1    2    0    0  0.00000000000E+00 -0.17763568394E-14  0.00000000000E+00  0.91188000000E+02  0.91188000000E+02 0.  0.
    9900012    2    3    3    0    0  0.11735458545E+02 -0.10171063067E+02  0.33385841263E+02  0.54367001805E+02  0.39999812216E+02 0.  0.
         12    1    3    3    0    0 -0.11735458545E+02  0.10171063067E+02 -0.33385841263E+02  0.36820998195E+02  0.00000000000E+00 0. -1.
         11    1    4    4    0    0  0.14555088258E+01 -0.69131307843E+01  0.88645027391E+00  0.71200897137E+01  0.51100000000E-03 0. -1.
        -11    1    4    4    0    0  0.21936994148E+02  0.61296410935E+00  0.19422015985E+02  0.29305667411E+02  0.51100000000E-03 0.  1.
        -12    1    4    4    0    0 -0.11657044428E+02 -0.38708963924E+01  0.13077375004E+02  0.17941244680E+02  0.00000000000E+00 0.  1.
</event>
<event>
 8    1  0.2530183E-006  0.9118800E+02  0.7816164E-02  0.1184000E+00
        -11   -1    0    0    0    0  0.00000000000E+00  0.00000000000E+00  0.45593999997E+02  0.45594000000E+02  0.51100000000E-03 0. -1.
         11   -1    0    0    0    0 -0.00000000000E+00 -0.00000000000E+00 -0.45593999997E+02  0.45594000000E+02  0.51100000000E-03 0.  1.
         23    2    1    2    0    0  0.00000000000E+00  0.35527136788E-14  0.00000000000E+00  0.91188000000E+02  0.91188000000E+02 0.  0.
    9900012    2    3    3    0    0 -0.18042042991E+02  0.16011851461E+02 -0.27818785227E+02  0.54367088632E+02  0.40000010154E+02 0.  0.
         12    1    3    3    0    0  0.18042042991E+02 -0.16011851461E+02  0.27818785227E+02  0.36820911368E+02  0.00000000000E+00 0. -1.
         11    1    4    4    0    0  0.72131088246E+01  0.77756588467E+01 -0.13072051040E+02  0.16833547697E+02  0.51100000000E-03 0. -1.
        -11    1    4    4    0    0 -0.14759956017E+01  0.97059642292E+01 -0.82903355221E+01  0.12849668010E+02  0.51100000000E-03 0.  1.
         12    1    4    4    0    0 -0.23779156214E+02 -0.14697716153E+01 -0.64563986651E+01  0.24683872925E+02  0.00000000000E+00 0. -1.
</event>
<event>
 8    1  0.2530183E-006  0.9118800E+02  0.7816164E-02  0.1184000E+00
        -11   -1    0    0    0    0  0.00000000000E+00  0.00000000000E+00  0.45593999997E+02  0.45594000000E+02  0.51100000000E-03 0.  1.
         11   -1    0    0    0    0 -0.00000000000E+00 -0.00000000000E+00 -0.45593999997E+02  0.45594000000E+02  0.51100000000E-03 0. -1.
         23    2    1    2    0    0  0.00000000000E+00  0.17763568394E-14  0.35527136788E-14  0.91188000000E+02  0.91188000000E+02 0.  0.
    9900012    2    3    3    0    0  0.22556613333E+02 -0.10967965609E+02  0.26957067418E+02  0.54367074448E+02  0.39999977820E+02 0.  0.
         12    1    3    3    0    0 -0.22556613333E+02  0.10967965609E+02 -0.26957067418E+02  0.36820925552E+02  0.00000000000E+00 0. -1.
         11    1    4    4    0    0 -0.29149601217E+01 -0.18105136428E+02  0.17301331337E+02  0.25211684273E+02  0.51100000000E-03 0. -1.
        -11    1    4    4    0    0  0.15152126836E+02  0.70513279553E+01  0.85611903376E+01  0.18777703636E+02  0.51100000000E-03 0.  1.
        -12    1    4    4    0    0  0.10319446619E+02  0.85842864479E-01  0.10945457442E+01  0.10377686539E+02  0.00000000000E+00 0.  1.
</event>
<event>
 8    1  0.2530183E-006  0.9118800E+02  0.7816164E-02  0.1184000E+00
        -11   -1    0    0    0    0  0.00000000000E+00  0.00000000000E+00  0.45593999997E+02  0.45594000000E+02  0.51100000000E-03 0.  1.
         11   -1    0    0    0    0 -0.00000000000E+00 -0.00000000000E+00 -0.45593999997E+02  0.45594000000E+02  0.51100000000E-03 0. -1.
         23    2    1    2    0    0  0.00000000000E+00  0.00000000000E+00  0.00000000000E+00  0.91188000000E+02  0.91188000000E+02 0.  0.
    9900012    2    3    3    0    0  0.82668553535E+01  0.30681863843E+01  0.35749505464E+02  0.54367057508E+02  0.39999939201E+02 0.  0.
         12    1    3    3    0    0 -0.82668553535E+01 -0.30681863843E+01 -0.35749505464E+02  0.36820942492E+02  0.00000000000E+00 0. -1.
         11    1    4    4    0    0 -0.38406514170E+01  0.60436489591E+01  0.75706391356E+01  0.10420694470E+02  0.51100000000E-03 0. -1.
        -11    1    4    4    0    0  0.21313494147E+02 -0.17277883594E+01  0.27208495565E+02  0.34605671739E+02  0.51100000000E-03 0.  1.
         12    1    4    4    0    0 -0.92059873764E+01 -0.12476742154E+01  0.97037076288E+00  0.93406912988E+01  0.00000000000E+00 0. -1.
</event>
<event>
 8    1  0.2530183E-006  0.9118800E+02  0.7816164E-02  0.1184000E+00
        -11   -1    0    0    0    0  0.00000000000E+00  0.00000000000E+00  0.45593999997E+02  0.45594000000E+02  0.51100000000E-03 0. -1.
         11   -1    0    0    0    0 -0.00000000000E+00 -0.00000000000E+00 -0.45593999997E+02  0.45594000000E+02  0.51100000000E-03 0.  1.
         23    2    1    2    0    0  0.71054273576E-14 -0.22204460493E-15  0.88817841970E-15  0.91188000000E+02  0.91188000000E+02 0.  0.
    9900012    2    3    3    0    0 -0.35915465977E+02 -0.15820376542E+01  0.79596505919E+01  0.54367087776E+02  0.40000008202E+02 0.  0.
        -12    1    3    3    0    0  0.35915465977E+02  0.15820376542E+01 -0.79596505919E+01  0.36820912224E+02  0.00000000000E+00 0.  1.
         11    1    4    4    0    0 -0.10487019163E+02 -0.57883030707E+01  0.17351865297E+02  0.21084810953E+02  0.51100000000E-03 0. -1.
        -11    1    4    4    0    0  0.21165388518E+01 -0.10827224327E+01  0.19029572266E+01  0.30452045982E+01  0.51100000000E-03 0.  1.
        -12    1    4    4    0    0 -0.27544985665E+02  0.52889878492E+01 -0.11295171932E+02  0.30237072225E+02  0.00000000000E+00 0.  1.
</event>
<event>
 8    1  0.2530183E-006  0.9118800E+02  0.7816164E-02  0.1184000E+00
        -11   -1    0    0    0    0  0.00000000000E+00  0.00000000000E+00  0.45593999997E+02  0.45594000000E+02  0.51100000000E-03 0. -1.
         11   -1    0    0    0    0 -0.00000000000E+00 -0.00000000000E+00 -0.45593999997E+02  0.45594000000E+02  0.51100000000E-03 0.  1.
         23    2    1    2    0    0  0.17763568394E-14  0.00000000000E+00  0.00000000000E+00  0.91188000000E+02  0.91188000000E+02 0.  0.
    9900012    2    3    3    0    0  0.10780479371E+02  0.45522612440E+01  0.34911851571E+02  0.54367092922E+02  0.40000019935E+02 0.  0.
        -12    1    3    3    0    0 -0.10780479371E+02 -0.45522612440E+01 -0.34911851571E+02  0.36820907078E+02  0.00000000000E+00 0.  1.
         11    1    4    4    0    0  0.88935869491E+01  0.27827456032E+00  0.19467558135E+02  0.21404652428E+02  0.51100000000E-03 0. -1.
        -11    1    4    4    0    0 -0.10386702648E+02 -0.64479246780E+01  0.99541246153E+01  0.15765275819E+02  0.51100000000E-03 0.  1.
        -12    1    4    4    0    0  0.12273595069E+02  0.10721911362E+02  0.54901688204E+01  0.17197164675E+02  0.00000000000E+00 0.  1.
</event>
<event>
 8    1  0.2530183E-006  0.9118800E+02  0.7816164E-02  0.1184000E+00
        -11   -1    0    0    0    0  0.00000000000E+00  0.00000000000E+00  0.45593999997E+02  0.45594000000E+02  0.51100000000E-03 0. -1.
         11   -1    0    0    0    0 -0.00000000000E+00 -0.00000000000E+00 -0.45593999997E+02  0.45594000000E+02  0.51100000000E-03 0.  1.
         23    2    1    2    0    0 -0.35527136788E-14  0.35527136788E-14 -0.35527136788E-14  0.91188000000E+02  0.91188000000E+02 0.  0.
    9900012    2    3    3    0    0 -0.16567569374E+02  0.24449407013E+02 -0.21989120708E+02  0.54367091704E+02  0.40000017157E+02 0.  0.
         12    1    3    3    0    0  0.16567569374E+02 -0.24449407013E+02  0.21989120708E+02  0.36820908296E+02  0.00000000000E+00 0. -1.
         11    1    4    4    0    0 -0.20933975541E+02  0.55260717341E+01 -0.54139607408E+01  0.22317700866E+02  0.51100000000E-03 0. -1.
        -11    1    4    4    0    0 -0.74137655968E+01  0.10865923455E+02 -0.76733964002E+01  0.15228697430E+02  0.51100000000E-03 0.  1.
         12    1    4    4    0    0  0.11780171764E+02  0.80574118239E+01 -0.89017635674E+01  0.16820693407E+02  0.00000000000E+00 0. -1.
</event>
<event>
 8    1  0.2530183E-006  0.9118800E+02  0.7816164E-02  0.1184000E+00
        -11   -1    0    0    0    0  0.00000000000E+00  0.00000000000E+00  0.45593999997E+02  0.45594000000E+02  0.51100000000E-03 0.  1.
         11   -1    0    0    0    0 -0.00000000000E+00 -0.00000000000E+00 -0.45593999997E+02  0.45594000000E+02  0.51100000000E-03 0. -1.
         23    2    1    2    0    0  0.35527136788E-14  0.00000000000E+00  0.00000000000E+00  0.91188000000E+02  0.91188000000E+02 0.  0.
    9900012    2    3    3    0    0  0.31728547726E+02  0.64620502872E+01  0.17530652356E+02  0.54367046634E+02  0.39999914412E+02 0.  0.
         12    1    3    3    0    0 -0.31728547726E+02 -0.64620502872E+01 -0.17530652356E+02  0.36820953366E+02  0.00000000000E+00 0. -1.
         11    1    4    4    0    0  0.91979203427E+01  0.33389030507E+01  0.33709864053E+01  0.10349568195E+02  0.51100000000E-03 0. -1.
        -11    1    4    4    0    0  0.27145101357E+02 -0.65311869533E+01  0.17325450593E+02  0.32858547886E+02  0.51100000000E-03 0.  1.
         12    1    4    4    0    0 -0.46144739728E+01  0.96543341897E+01 -0.31657846420E+01  0.11158930553E+02  0.00000000000E+00 0. -1.
</event>
<event>
 8    1  0.2530183E-006  0.9118800E+02  0.7816164E-02  0.1184000E+00
        -11   -1    0    0    0    0  0.00000000000E+00  0.00000000000E+00  0.45593999997E+02  0.45594000000E+02  0.51100000000E-03 0. -1.
         11   -1    0    0    0    0 -0.00000000000E+00 -0.00000000000E+00 -0.45593999997E+02  0.45594000000E+02  0.51100000000E-03 0.  1.
         23    2    1    2    0    0  0.17763568394E-14 -0.17763568394E-14  0.00000000000E+00  0.91188000000E+02  0.91188000000E+02 0.  0.
    9900012    2    3    3    0    0  0.10598424056E+02 -0.41842989058E+01 -0.35013499752E+02  0.54367080474E+02  0.39999991558E+02 0.  0.
         12    1    3    3    0    0 -0.10598424056E+02  0.41842989058E+01  0.35013499752E+02  0.36820919526E+02  0.00000000000E+00 0. -1.
         11    1    4    4    0    0  0.34819035296E+01 -0.88886705174E+01 -0.53597857474E+00  0.95613487045E+01  0.51100000000E-03 0. -1.
        -11    1    4    4    0    0  0.51989827012E+01  0.15565461018E+02 -0.26590098265E+02  0.31246540990E+02  0.51100000000E-03 0.  1.
        -12    1    4    4    0    0  0.19175378252E+01 -0.10861089406E+02 -0.78874229121E+01  0.13559190780E+02  0.00000000000E+00 0.  1.
</event>
<event>
 8    1  0.2530183E-006  0.9118800E+02  0.7816164E-02  0.1184000E+00
        -11   -1    0    0    0    0  0.00000000000E+00  0.00000000000E+00  0.45593999997E+02  0.45594000000E+02  0.51100000000E-03 0. -1.
         11   -1    0    0    0    0 -0.00000000000E+00 -0.00000000000E+00 -0.45593999997E+02  0.45594000000E+02  0.51100000000E-03 0.  1.
         23    2    1    2    0    0  0.00000000000E+00 -0.88817841970E-15  0.00000000000E+00  0.91188000000E+02  0.91188000000E+02 0.  0.
    9900012    2    3    3    0    0  0.33002762051E+02  0.46719550253E+01  0.15645118805E+02  0.54367092771E+02  0.40000019590E+02 0.  0.
        -12    1    3    3    0    0 -0.33002762051E+02 -0.46719550253E+01 -0.15645118805E+02  0.36820907229E+02  0.00000000000E+00 0.  1.
         11    1    4    4    0    0  0.21369171627E+01 -0.68897336406E+01  0.54526169030E+01  0.90424485595E+01  0.51100000000E-03 0.  1.
        -11    1    4    4    0    0  0.34261520716E+01 -0.38630495816E+00  0.14664411598E+02  0.15064286153E+02  0.51100000000E-03 0. -1.
         12    1    4    4    0    0  0.27439692817E+02  0.11947993624E+02 -0.44719096958E+01  0.30260358059E+02  0.00000000000E+00 0. -1.
</event>
<event>
 8    1  0.2530183E-006  0.9118800E+02  0.7816164E-02  0.1184000E+00
        -11   -1    0    0    0    0  0.00000000000E+00  0.00000000000E+00  0.45593999997E+02  0.45594000000E+02  0.51100000000E-03 0. -1.
         11   -1    0    0    0    0 -0.00000000000E+00 -0.00000000000E+00 -0.45593999997E+02  0.45594000000E+02  0.51100000000E-03 0.  1.
         23    2    1    2    0    0  0.17763568394E-14  0.00000000000E+00  0.00000000000E+00  0.91188000000E+02  0.91188000000E+02 0.  0.
    9900012    2    3    3    0    0  0.13798494032E+02  0.21740093781E+02  0.26320139255E+02  0.54367084129E+02  0.39999999890E+02 0.  0.
        -12    1    3    3    0    0 -0.13798494032E+02 -0.21740093781E+02 -0.26320139255E+02  0.36820915871E+02  0.00000000000E+00 0.  1.
         11    1    4    4    0    0  0.16372186757E+02  0.17175283868E+02  0.68921939193E+01  0.24709132167E+02  0.51100000000E-03 0. -1.
        -11    1    4    4    0    0 -0.97879617941E+01  0.95001969798E+01  0.11119141404E+02  0.17598103437E+02  0.51100000000E-03 0.  1.
        -12    1    4    4    0    0  0.72142690689E+01 -0.49353870667E+01  0.83088039316E+01  0.12059848526E+02  0.00000000000E+00 0.  1.
</event>
<event>
 8    1  0.2530183E-006  0.9118800E+02  0.7816164E-02  0.1184000E+00
        -11   -1    0    0    0    0  0.00000000000E+00  0.00000000000E+00  0.45593999997E+02  0.45594000000E+02  0.51100000000E-03 0.  1.
         11   -1    0    0    0    0 -0.00000000000E+00 -0.00000000000E+00 -0.45593999997E+02  0.45594000000E+02  0.51100000000E-03 0. -1.
         23    2    1    2    0    0 -0.44408920985E-15  0.22204460493E-15  0.00000000000E+00  0.91188000000E+02  0.91188000000E+02 0.  0.
    9900012    2    3    3    0    0  0.29964763766E+01  0.10811422283E+01  0.36682869278E+02  0.54367073373E+02  0.39999975369E+02 0.  0.
         12    1    3    3    0    0 -0.29964763766E+01 -0.10811422283E+01 -0.36682869278E+02  0.36820926627E+02  0.00000000000E+00 0. -1.
         11    1    4    4    0    0 -0.14145927443E+01  0.27094828276E+01 -0.48753538270E+01  0.57542545152E+01  0.51100000000E-03 0. -1.
        -11    1    4    4    0    0  0.94131904269E+01  0.54205882982E+01  0.37542028165E+02  0.39081898758E+02  0.51100000000E-03 0.  1.
        -12    1    4    4    0    0 -0.50021213060E+01 -0.70489288974E+01  0.40161949399E+01  0.95309201002E+01  0.00000000000E+00 0.  1.
</event>
<event>
 8    1  0.2530183E-006  0.9118800E+02  0.7816164E-02  0.1184000E+00
        -11   -1    0    0    0    0  0.00000000000E+00  0.00000000000E+00  0.45593999997E+02  0.45594000000E+02  0.51100000000E-03 0. -1.
         11   -1    0    0    0    0 -0.00000000000E+00 -0.00000000000E+00 -0.45593999997E+02  0.45594000000E+02  0.51100000000E-03 0.  1.
         23    2    1    2    0    0  0.00000000000E+00  0.00000000000E+00 -0.35527136788E-14  0.91188000000E+02  0.91188000000E+02 0.  0.
    9900012    2    3    3    0    0 -0.19175352276E+02  0.85570280486E+01 -0.30246699397E+02  0.54367086264E+02  0.40000004756E+02 0.  0.
         12    1    3    3    0    0  0.19175352276E+02 -0.85570280486E+01  0.30246699397E+02  0.36820913736E+02  0.00000000000E+00 0. -1.
         11    1    4    4    0    0  0.24777379307E+01  0.55794365747E+01  0.26870818750E+01  0.66700604951E+01  0.51100000000E-03 0. -1.
        -11    1    4    4    0    0 -0.13537535219E+01 -0.30591378124E+01 -0.24778199471E+02  0.25003002661E+02  0.51100000000E-03 0.  1.
         12    1    4    4    0    0 -0.20299336685E+02  0.60367292863E+01 -0.81555818005E+01  0.22694023108E+02  0.00000000000E+00 0. -1.
</event>
<event>
 8    1  0.2530183E-006  0.9118800E+02  0.7816164E-02  0.1184000E+00
        -11   -1    0    0    0    0  0.00000000000E+00  0.00000000000E+00  0.45593999997E+02  0.45594000000E+02  0.51100000000E-03 0. -1.
         11   -1    0    0    0    0 -0.00000000000E+00 -0.00000000000E+00 -0.45593999997E+02  0.45594000000E+02  0.51100000000E-03 0.  1.
         23    2    1    2    0    0  0.00000000000E+00  0.00000000000E+00 -0.35527136788E-14  0.91188000000E+02  0.91188000000E+02 0.  0.
    9900012    2    3    3    0    0  0.19686269568E+02  0.19410494114E+02 -0.24320111709E+02  0.54367023305E+02  0.39999861227E+02 0.  0.
         12    1    3    3    0    0 -0.19686269568E+02 -0.19410494114E+02  0.24320111709E+02  0.36820976695E+02  0.00000000000E+00 0. -1.
         11    1    4    4    0    0  0.32305821800E+01  0.49158782028E+01  0.39324252421E+01  0.70757676808E+01  0.51100000000E-03 0. -1.
        -11    1    4    4    0    0  0.22963234740E+02  0.16786522904E+02 -0.14550387527E+02  0.31950137377E+02  0.51100000000E-03 0.  1.
         12    1    4    4    0    0 -0.65075473527E+01 -0.22919069928E+01 -0.13702149425E+02  0.15341118247E+02  0.00000000000E+00 0. -1.
</event>
<event>
 8    1  0.2530183E-006  0.9118800E+02  0.7816164E-02  0.1184000E+00
        -11   -1    0    0    0    0  0.00000000000E+00  0.00000000000E+00  0.45593999997E+02  0.45594000000E+02  0.51100000000E-03 0. -1.
         11   -1    0    0    0    0 -0.00000000000E+00 -0.00000000000E+00 -0.45593999997E+02  0.45594000000E+02  0.51100000000E-03 0.  1.
         23    2    1    2    0    0  0.00000000000E+00  0.13322676296E-14  0.00000000000E+00  0.91188000000E+02  0.91188000000E+02 0.  0.
    9900012    2    3    3    0    0 -0.20273217981E+02 -0.20808948536E+01  0.30666696309E+02  0.54367085383E+02  0.40000002748E+02 0.  0.
        -12    1    3    3    0    0  0.20273217981E+02  0.20808948536E+01 -0.30666696309E+02  0.36820914617E+02  0.00000000000E+00 0.  1.
         11    1    4    4    0    0 -0.22447598109E+02  0.90653391726E+01  0.55187177245E+01  0.24830047941E+02  0.51100000000E-03 0.  1.
        -11    1    4    4    0    0 -0.41681798058E+01 -0.44059147545E+01  0.12161364871E+02  0.13589871357E+02  0.51100000000E-03 0. -1.
        -12    1    4    4    0    0  0.63425599335E+01 -0.67403192716E+01  0.12986613714E+02  0.15947166085E+02  0.00000000000E+00 0.  1.
</event>
<event>
 8    1  0.2530183E-006  0.9118800E+02  0.7816164E-02  0.1184000E+00
        -11   -1    0    0    0    0  0.00000000000E+00  0.00000000000E+00  0.45593999997E+02  0.45594000000E+02  0.51100000000E-03 0.  1.
         11   -1    0    0    0    0 -0.00000000000E+00 -0.00000000000E+00 -0.45593999997E+02  0.45594000000E+02  0.51100000000E-03 0. -1.
         23    2    1    2    0    0  0.35527136788E-14  0.00000000000E+00 -0.22204460493E-15  0.91188000000E+02  0.91188000000E+02 0.  0.
    9900012    2    3    3    0    0  0.18089718911E+02 -0.32039587158E+02  0.14164637392E+01  0.54367089568E+02  0.40000012288E+02 0.  0.
         12    1    3    3    0    0 -0.18089718911E+02  0.32039587158E+02 -0.14164637392E+01  0.36820910432E+02  0.00000000000E+00 0. -1.
         11    1    4    4    0    0 -0.80770259741E+01 -0.40081457234E+01  0.63259955181E+01  0.11014617573E+02  0.51100000000E-03 0. -1.
        -11    1    4    4    0    0 -0.21561098689E+01 -0.44541093809E+00  0.22773720498E+01  0.31675896807E+01  0.51100000000E-03 0.  1.
        -12    1    4    4    0    0  0.28322854754E+02 -0.27586030497E+02 -0.71869038287E+01  0.40184882314E+02  0.00000000000E+00 0.  1.
</event>
<event>
 8    1  0.2530183E-006  0.9118800E+02  0.7816164E-02  0.1184000E+00
        -11   -1    0    0    0    0  0.00000000000E+00  0.00000000000E+00  0.45593999997E+02  0.45594000000E+02  0.51100000000E-03 0. -1.
         11   -1    0    0    0    0 -0.00000000000E+00 -0.00000000000E+00 -0.45593999997E+02  0.45594000000E+02  0.51100000000E-03 0.  1.
         23    2    1    2    0    0  0.00000000000E+00  0.00000000000E+00  0.00000000000E+00  0.91188000000E+02  0.91188000000E+02 0.  0.
    9900012    2    3    3    0    0 -0.22420795025E+02  0.22142938990E+02  0.19046720709E+02  0.54367090636E+02  0.40000014722E+02 0.  0.
        -12    1    3    3    0    0  0.22420795025E+02 -0.22142938990E+02 -0.19046720709E+02  0.36820909364E+02  0.00000000000E+00 0.  1.
         11    1    4    4    0    0 -0.18043546078E+02 -0.17846745147E+01 -0.22835351336E+01  0.18274822876E+02  0.51100000000E-03 0. -1.
        -11    1    4    4    0    0  0.11589931181E+01  0.23429322078E+02  0.16031691000E+02  0.28412875860E+02  0.51100000000E-03 0.  1.
        -12    1    4    4    0    0 -0.55362420658E+01  0.49829142682E+00  0.52985648419E+01  0.76793918992E+01  0.00000000000E+00 0.  1.
</event>
<event>
 8    1  0.2530183E-006  0.9118800E+02  0.7816164E-02  0.1184000E+00
        -11   -1    0    0    0    0  0.00000000000E+00  0.00000000000E+00  0.45593999997E+02  0.45594000000E+02  0.51100000000E-03 0. -1.
         11   -1    0    0    0    0 -0.00000000000E+00 -0.00000000000E+00 -0.45593999997E+02  0.45594000000E+02  0.51100000000E-03 0.  1.
         23    2    1    2    0    0 -0.17763568394E-14 -0.88817841970E-15  0.00000000000E+00  0.91188000000E+02  0.91188000000E+02 0.  0.
    9900012    2    3    3    0    0  0.52890334746E+01  0.35415921634E+01  0.36266561405E+02  0.54367078960E+02  0.39999988104E+02 0.  0.
        -12    1    3    3    0    0 -0.52890334746E+01 -0.35415921634E+01 -0.36266561405E+02  0.36820921040E+02  0.00000000000E+00 0.  1.
         11    1    4    4    0    0 -0.16427141695E+01  0.12945907764E+01  0.63177626185E+01  0.66549680605E+01  0.51100000000E-03 0. -1.
        -11    1    4    4    0    0 -0.54445710320E+01  0.16976717632E+02  0.15915421144E+02  0.23898805948E+02  0.51100000000E-03 0.  1.
        -12    1    4    4    0    0  0.12376318676E+02 -0.14729716245E+02  0.14033377643E+02  0.23813304951E+02  0.00000000000E+00 0.  1.
</event>
<event>
 8    1  0.2530183E-006  0.9118800E+02  0.7816164E-02  0.1184000E+00
        -11   -1    0    0    0    0  0.00000000000E+00  0.00000000000E+00  0.45593999997E+02  0.45594000000E+02  0.51100000000E-03 0. -1.
         11   -1    0    0    0    0 -0.00000000000E+00 -0.00000000000E+00 -0.45593999997E+02  0.45594000000E+02  0.51100000000E-03 0.  1.
         23    2    1    2    0    0 -0.35527136788E-14 -0.35527136788E-14  0.00000000000E+00  0.91188000000E+02  0.91188000000E+02 0.  0.
    9900012    2    3    3    0    0  0.20963928873E+02  0.27237749318E+02  0.13205989957E+02  0.54367089196E+02  0.40000011440E+02 0.  0.
        -12    1    3    3    0    0 -0.20963928873E+02 -0.27237749318E+02 -0.13205989957E+02  0.36820910804E+02  0.00000000000E+00 0.  1.
         11    1    4    4    0    0 -0.72628996648E+01  0.17698300325E+01 -0.20405298027E+01  0.77489207004E+01  0.51100000000E-03 0. -1.
        -11    1    4    4    0    0  0.27645555839E+02  0.20797874935E+02  0.45003442399E+01  0.34886694570E+02  0.51100000000E-03 0.  1.
         12    1    4    4    0    0  0.58127269876E+00  0.46700443506E+01  0.10746175519E+02  0.11731473926E+02  0.00000000000E+00 0. -1.
</event>
<event>
 8    1  0.2530183E-006  0.9118800E+02  0.7816164E-02  0.1184000E+00
        -11   -1    0    0    0    0  0.00000000000E+00  0.00000000000E+00  0.45593999997E+02  0.45594000000E+02  0.51100000000E-03 0.  1.
         11   -1    0    0    0    0 -0.00000000000E+00 -0.00000000000E+00 -0.45593999997E+02  0.45594000000E+02  0.51100000000E-03 0. -1.
         23    2    1    2    0    0  0.00000000000E+00  0.35527136788E-14  0.35527136788E-14  0.91188000000E+02  0.91188000000E+02 0.  0.
    9900012    2    3    3    0    0 -0.33365557467E+01  0.28755167068E+02 -0.22754948497E+02  0.54367083139E+02  0.39999997632E+02 0.  0.
        -12    1    3    3    0    0  0.33365557467E+01 -0.28755167068E+02  0.22754948497E+02  0.36820916861E+02  0.00000000000E+00 0.  1.
         11    1    4    4    0    0  0.29093355425E+01  0.21087179246E+02  0.33983644280E+01  0.21556489577E+02  0.51100000000E-03 0. -1.
        -11    1    4    4    0    0 -0.61887883028E+01  0.85757673705E+01 -0.51062368559E+01  0.11743872519E+02  0.51100000000E-03 0.  1.
        -12    1    4    4    0    0 -0.57102986395E-01 -0.90777954791E+00 -0.21047076069E+02  0.21066721043E+02  0.00000000000E+00 0.  1.
</event>
<event>
 8    1  0.2530183E-006  0.9118800E+02  0.7816164E-02  0.1184000E+00
        -11   -1    0    0    0    0  0.00000000000E+00  0.00000000000E+00  0.45593999997E+02  0.45594000000E+02  0.51100000000E-03 0.  1.
         11   -1    0    0    0    0 -0.00000000000E+00 -0.00000000000E+00 -0.45593999997E+02  0.45594000000E+02  0.51100000000E-03 0. -1.
         23    2    1    2    0    0  0.00000000000E+00  0.00000000000E+00  0.00000000000E+00  0.91188000000E+02  0.91188000000E+02 0.  0.
    9900012    2    3    3    0    0 -0.32252711581E+02 -0.43982936906E+01 -0.17210393600E+02  0.54367081495E+02  0.39999993884E+02 0.  0.
        -12    1    3    3    0    0  0.32252711581E+02  0.43982936906E+01  0.17210393600E+02  0.36820918505E+02  0.00000000000E+00 0.  1.
         11    1    4    4    0    0 -0.25230048870E+02 -0.15295780665E+02 -0.21326222946E+02  0.36405000447E+02  0.51100000000E-03 0. -1.
        -11    1    4    4    0    0 -0.41525085214E+01  0.88644671425E+00  0.60283159306E+01  0.73735817632E+01  0.51100000000E-03 0.  1.
        -12    1    4    4    0    0 -0.28701541891E+01  0.10011040260E+02 -0.19124865845E+01  0.10588499284E+02  0.00000000000E+00 0.  1.
</event>
<event>
 8    1  0.2530183E-006  0.9118800E+02  0.7816164E-02  0.1184000E+00
        -11   -1    0    0    0    0  0.00000000000E+00  0.00000000000E+00  0.45593999997E+02  0.45594000000E+02  0.51100000000E-03 0.  1.
         11   -1    0    0    0    0 -0.00000000000E+00 -0.00000000000E+00 -0.45593999997E+02  0.45594000000E+02  0.51100000000E-03 0. -1.
         23    2    1    2    0    0  0.00000000000E+00  0.17763568394E-14  0.00000000000E+00  0.91188000000E+02  0.91188000000E+02 0.  0.
    9900012    2    3    3    0    0 -0.35387569760E+02  0.83850265364E+01  0.57612155745E+01  0.54367077029E+02  0.39999983702E+02 0.  0.
        -12    1    3    3    0    0  0.35387569760E+02 -0.83850265364E+01 -0.57612155745E+01  0.36820922971E+02  0.00000000000E+00 0.  1.
         11    1    4    4    0    0 -0.88158991286E+01 -0.12208296063E+02  0.39607459754E+01  0.15570808558E+02  0.51100000000E-03 0. -1.
        -11    1    4    4    0    0 -0.25399327186E+02  0.92362461675E+01  0.35029576956E+01  0.27252610474E+02  0.51100000000E-03 0.  1.
        -12    1    4    4    0    0 -0.11723434461E+01  0.11357076432E+02 -0.17024880966E+01  0.11543657997E+02  0.00000000000E+00 0.  1.
</event>
<event>
 8    1  0.2530183E-006  0.9118800E+02  0.7816164E-02  0.1184000E+00
        -11   -1    0    0    0    0  0.00000000000E+00  0.00000000000E+00  0.45593999997E+02  0.45594000000E+02  0.51100000000E-03 0.  1.
         11   -1    0    0    0    0 -0.00000000000E+00 -0.00000000000E+00 -0.45593999997E+02  0.45594000000E+02  0.51100000000E-03 0. -1.
         23    2    1    2    0    0  0.00000000000E+00 -0.35527136788E-14  0.00000000000E+00  0.91188000000E+02  0.91188000000E+02 0.  0.
    9900012    2    3    3    0    0  0.14855145490E+02 -0.25149106657E+02  0.22419352817E+02  0.54367078042E+02  0.39999986011E+02 0.  0.
         12    1    3    3    0    0 -0.14855145490E+02  0.25149106657E+02 -0.22419352817E+02  0.36820921958E+02  0.00000000000E+00 0. -1.
         11    1    4    4    0    0 -0.97215457436E+00  0.28748989569E+01 -0.19119617021E+01  0.35868825378E+01  0.51100000000E-03 0. -1.
        -11    1    4    4    0    0  0.11744270369E+02  0.21736073985E+01  0.25877564219E+00  0.11946523374E+02  0.51100000000E-03 0.  1.
         12    1    4    4    0    0  0.40830296948E+01 -0.30197613012E+02  0.24072538877E+02  0.38833672130E+02  0.00000000000E+00 0. -1.
</event>
<event>
 8    1  0.2530183E-006  0.9118800E+02  0.7816164E-02  0.1184000E+00
        -11   -1    0    0    0    0  0.00000000000E+00  0.00000000000E+00  0.45593999997E+02  0.45594000000E+02  0.51100000000E-03 0.  1.
         11   -1    0    0    0    0 -0.00000000000E+00 -0.00000000000E+00 -0.45593999997E+02  0.45594000000E+02  0.51100000000E-03 0. -1.
         23    2    1    2    0    0  0.00000000000E+00  0.88817841970E-15  0.00000000000E+00  0.91188000000E+02  0.91188000000E+02 0.  0.
    9900012    2    3    3    0    0  0.35778510757E+02 -0.51758830272E+01  0.69920121486E+01  0.54367084327E+02  0.40000000340E+02 0.  0.
         12    1    3    3    0    0 -0.35778510757E+02  0.51758830272E+01 -0.69920121486E+01  0.36820915673E+02  0.00000000000E+00 0. -1.
         11    1    4    4    0    0  0.20128731364E+02 -0.93115134931E-01 -0.19612107549E+01  0.20224263760E+02  0.51100000000E-03 0. -1.
        -11    1    4    4    0    0  0.15268818264E+02  0.96847409747E+01  0.36403115656E+01  0.18444047481E+02  0.51100000000E-03 0.  1.
        -12    1    4    4    0    0  0.38096112983E+00 -0.14767508867E+02  0.53129113380E+01  0.15698773086E+02  0.00000000000E+00 0.  1.
</event>
<event>
 8    1  0.2530183E-006  0.9118800E+02  0.7816164E-02  0.1184000E+00
        -11   -1    0    0    0    0  0.00000000000E+00  0.00000000000E+00  0.45593999997E+02  0.45594000000E+02  0.51100000000E-03 0.  1.
         11   -1    0    0    0    0 -0.00000000000E+00 -0.00000000000E+00 -0.45593999997E+02  0.45594000000E+02  0.51100000000E-03 0. -1.
         23    2    1    2    0    0  0.88817841970E-15  0.00000000000E+00  0.35527136788E-14  0.91188000000E+02  0.91188000000E+02 0.  0.
    9900012    2    3    3    0    0  0.76338045753E+01  0.29485881767E+02 -0.20690299180E+02  0.54367072852E+02  0.39999974182E+02 0.  0.
        -12    1    3    3    0    0 -0.76338045753E+01 -0.29485881767E+02  0.20690299180E+02  0.36820927148E+02  0.00000000000E+00 0.  1.
         11    1    4    4    0    0 -0.86621019378E+01 -0.33612326825E+01  0.14891874861E+01  0.94099720911E+01  0.51100000000E-03 0. -1.
        -11    1    4    4    0    0  0.11476539799E+02  0.21905694497E+02 -0.71313527196E+01  0.25737649641E+02  0.51100000000E-03 0.  1.
         12    1    4    4    0    0  0.48193667136E+01  0.10941419952E+02 -0.15048133947E+02  0.19219451120E+02  0.00000000000E+00 0. -1.
</event>
<event>
 8    1  0.2530183E-006  0.9118800E+02  0.7816164E-02  0.1184000E+00
        -11   -1    0    0    0    0  0.00000000000E+00  0.00000000000E+00  0.45593999997E+02  0.45594000000E+02  0.51100000000E-03 0. -1.
         11   -1    0    0    0    0 -0.00000000000E+00 -0.00000000000E+00 -0.45593999997E+02  0.45594000000E+02  0.51100000000E-03 0.  1.
         23    2    1    2    0    0  0.00000000000E+00  0.00000000000E+00  0.00000000000E+00  0.91188000000E+02  0.91188000000E+02 0.  0.
    9900012    2    3    3    0    0  0.18347653432E+02  0.22238333662E+02 -0.22904173317E+02  0.54367068102E+02  0.39999963351E+02 0.  0.
         12    1    3    3    0    0 -0.18347653432E+02 -0.22238333662E+02  0.22904173317E+02  0.36820931898E+02  0.00000000000E+00 0. -1.
         11    1    4    4    0    0  0.14997184203E+02  0.19916995790E+02 -0.31598058884E+01  0.25131387324E+02  0.51100000000E-03 0. -1.
        -11    1    4    4    0    0  0.88111394868E+01  0.75065814251E+01 -0.48584429233E+01  0.12553462138E+02  0.51100000000E-03 0.  1.
        -12    1    4    4    0    0 -0.54606702578E+01 -0.51852435528E+01 -0.14885924506E+02  0.16682218640E+02  0.00000000000E+00 0.  1.
</event>
<event>
 8    1  0.2530183E-006  0.9118800E+02  0.7816164E-02  0.1184000E+00
        -11   -1    0    0    0    0  0.00000000000E+00  0.00000000000E+00  0.45593999997E+02  0.45594000000E+02  0.51100000000E-03 0.  1.
         11   -1    0    0    0    0 -0.00000000000E+00 -0.00000000000E+00 -0.45593999997E+02  0.45594000000E+02  0.51100000000E-03 0. -1.
         23    2    1    2    0    0 -0.88817841970E-15  0.00000000000E+00 -0.71054273576E-14  0.91188000000E+02  0.91188000000E+02 0.  0.
    9900012    2    3    3    0    0 -0.74820711284E+01 -0.14994211846E+02 -0.32786770589E+02  0.54367080634E+02  0.39999991922E+02 0.  0.
        -12    1    3    3    0    0  0.74820711284E+01  0.14994211846E+02  0.32786770589E+02  0.36820919366E+02  0.00000000000E+00 0.  1.
         11    1    4    4    0    0 -0.30196254239E+01  0.51764115480E+01 -0.23518608501E+02  0.24270111667E+02  0.51100000000E-03 0.  1.
        -11    1    4    4    0    0  0.27453208488E+01 -0.93153796909E+01 -0.13289963423E+02  0.16460140139E+02  0.51100000000E-03 0. -1.
        -12    1    4    4    0    0 -0.72077665533E+01 -0.10855243703E+02  0.40218013344E+01  0.13636828829E+02  0.00000000000E+00 0.  1.
</event>
<event>
 8    1  0.2530183E-006  0.9118800E+02  0.7816164E-02  0.1184000E+00
        -11   -1    0    0    0    0  0.00000000000E+00  0.00000000000E+00  0.45593999997E+02  0.45594000000E+02  0.51100000000E-03 0.  1.
         11   -1    0    0    0    0 -0.00000000000E+00 -0.00000000000E+00 -0.45593999997E+02  0.45594000000E+02  0.51100000000E-03 0. -1.
         23    2    1    2    0    0  0.88817841970E-15  0.00000000000E+00  0.00000000000E+00  0.91188000000E+02  0.91188000000E+02 0.  0.
    9900012    2    3    3    0    0  0.41799753497E+01 -0.25892986456E+02  0.25843032264E+02  0.54367064948E+02  0.39999956161E+02 0.  0.
         12    1    3    3    0    0 -0.41799753497E+01  0.25892986456E+02 -0.25843032264E+02  0.36820935052E+02  0.00000000000E+00 0. -1.
         11    1    4    4    0    0  0.46956306152E+01 -0.19496304048E+02  0.52101478793E+01  0.20719567070E+02  0.51100000000E-03 0. -1.
        -11    1    4    4    0    0 -0.28978531147E+01 -0.14468300508E+02  0.44582795433E+01  0.15414458440E+02  0.51100000000E-03 0.  1.
         12    1    4    4    0    0  0.23821978493E+01  0.80716180997E+01  0.16174604842E+02  0.18233039437E+02  0.00000000000E+00 0. -1.
</event>
<event>
 8    1  0.2530183E-006  0.9118800E+02  0.7816164E-02  0.1184000E+00
        -11   -1    0    0    0    0  0.00000000000E+00  0.00000000000E+00  0.45593999997E+02  0.45594000000E+02  0.51100000000E-03 0.  1.
         11   -1    0    0    0    0 -0.00000000000E+00 -0.00000000000E+00 -0.45593999997E+02  0.45594000000E+02  0.51100000000E-03 0. -1.
         23    2    1    2    0    0 -0.88817841970E-15 -0.71054273576E-14  0.00000000000E+00  0.91188000000E+02  0.91188000000E+02 0.  0.
    9900012    2    3    3    0    0  0.15301555191E+01  0.32688889559E+02 -0.16878198533E+02  0.54367102914E+02  0.40000042713E+02 0.  0.
        -12    1    3    3    0    0 -0.15301555191E+01 -0.32688889559E+02  0.16878198533E+02  0.36820897086E+02  0.00000000000E+00 0.  1.
         11    1    4    4    0    0  0.74966821080E+01  0.19844324802E+02 -0.24180095710E+02  0.32166356621E+02  0.51100000000E-03 0. -1.
        -11    1    4    4    0    0  0.19401338335E+01  0.80253090457E+01  0.95980739514E+01  0.12660676459E+02  0.51100000000E-03 0.  1.
         12    1    4    4    0    0 -0.79066604224E+01  0.48192557118E+01 -0.22961767741E+01  0.95400698336E+01  0.00000000000E+00 0. -1.
</event>
<event>
 8    1  0.2530183E-006  0.9118800E+02  0.7816164E-02  0.1184000E+00
        -11   -1    0    0    0    0  0.00000000000E+00  0.00000000000E+00  0.45593999997E+02  0.45594000000E+02  0.51100000000E-03 0.  1.
         11   -1    0    0    0    0 -0.00000000000E+00 -0.00000000000E+00 -0.45593999997E+02  0.45594000000E+02  0.51100000000E-03 0. -1.
         23    2    1    2    0    0  0.00000000000E+00 -0.35527136788E-14 -0.35527136788E-14  0.91188000000E+02  0.91188000000E+02 0.  0.
    9900012    2    3    3    0    0 -0.15235607916E+02  0.14956968153E+02  0.29999073427E+02  0.54367094913E+02  0.40000024474E+02 0.  0.
         12    1    3    3    0    0  0.15235607916E+02 -0.14956968153E+02 -0.29999073427E+02  0.36820905087E+02  0.00000000000E+00 0. -1.
         11    1    4    4    0    0 -0.14274054159E+02  0.17524906627E+02  0.36378978780E+01  0.22893345663E+02  0.51100000000E-03 0. -1.
        -11    1    4    4    0    0  0.61766521692E+01  0.34782591489E+01  0.69564685848E+01  0.99318565313E+01  0.51100000000E-03 0.  1.
         12    1    4    4    0    0 -0.71382059255E+01 -0.60461976226E+01  0.19404706965E+02  0.21541892719E+02  0.00000000000E+00 0. -1.
</event>
<event>
 8    1  0.2530183E-006  0.9118800E+02  0.7816164E-02  0.1184000E+00
        -11   -1    0    0    0    0  0.00000000000E+00  0.00000000000E+00  0.45593999997E+02  0.45594000000E+02  0.51100000000E-03 0.  1.
         11   -1    0    0    0    0 -0.00000000000E+00 -0.00000000000E+00 -0.45593999997E+02  0.45594000000E+02  0.51100000000E-03 0. -1.
         23    2    1    2    0    0  0.14432899320E-14  0.00000000000E+00  0.00000000000E+00  0.91188000000E+02  0.91188000000E+02 0.  0.
    9900012    2    3    3    0    0 -0.59997188675E+00  0.17017437142E+02 -0.32647264105E+02  0.54366851367E+02  0.39999469257E+02 0.  0.
        -12    1    3    3    0    0  0.59997188675E+00 -0.17017437142E+02  0.32647264105E+02  0.36821148633E+02  0.00000000000E+00 0.  1.
         11    1    4    4    0    0 -0.53360168903E+01  0.66206233130E+01 -0.52455174064E+01  0.99910551208E+01  0.51100000000E-03 0. -1.
        -11    1    4    4    0    0 -0.13045184104E+02  0.93391277449E+01 -0.76362961610E+01  0.17768206287E+02  0.51100000000E-03 0.  1.
        -12    1    4    4    0    0  0.17781229108E+02  0.10576860841E+01 -0.19765450537E+02  0.26607589958E+02  0.00000000000E+00 0.  1.
</event>
<event>
 8    1  0.2530183E-006  0.9118800E+02  0.7816164E-02  0.1184000E+00
        -11   -1    0    0    0    0  0.00000000000E+00  0.00000000000E+00  0.45593999997E+02  0.45594000000E+02  0.51100000000E-03 0. -1.
         11   -1    0    0    0    0 -0.00000000000E+00 -0.00000000000E+00 -0.45593999997E+02  0.45594000000E+02  0.51100000000E-03 0.  1.
         23    2    1    2    0    0  0.71054273576E-14  0.24424906542E-14 -0.17763568394E-14  0.91188000000E+02  0.91188000000E+02 0.  0.
    9900012    2    3    3    0    0  0.35472255419E+02 -0.17128966087E+01 -0.97244677201E+01  0.54367079428E+02  0.39999989173E+02 0.  0.
         12    1    3    3    0    0 -0.35472255419E+02  0.17128966087E+01  0.97244677201E+01  0.36820920572E+02  0.00000000000E+00 0. -1.
         11    1    4    4    0    0 -0.30777142366E+01  0.22515396893E+01 -0.20552317413E+01  0.43319434052E+01  0.51100000000E-03 0. -1.
        -11    1    4    4    0    0  0.23940292944E+02  0.46103808624E+01 -0.17899601994E+02  0.30245478832E+02  0.51100000000E-03 0.  1.
        -12    1    4    4    0    0  0.14609676711E+02 -0.85748171604E+01  0.10230366016E+02  0.19789657191E+02  0.00000000000E+00 0.  1.
</event>
<event>
 8    1  0.2530183E-006  0.9118800E+02  0.7816164E-02  0.1184000E+00
        -11   -1    0    0    0    0  0.00000000000E+00  0.00000000000E+00  0.45593999997E+02  0.45594000000E+02  0.51100000000E-03 0.  1.
         11   -1    0    0    0    0 -0.00000000000E+00 -0.00000000000E+00 -0.45593999997E+02  0.45594000000E+02  0.51100000000E-03 0. -1.
         23    2    1    2    0    0  0.00000000000E+00  0.17763568394E-14 -0.17763568394E-14  0.91188000000E+02  0.91188000000E+02 0.  0.
    9900012    2    3    3    0    0  0.32337452301E+02  0.15704821201E+02 -0.79641595109E+01  0.54367081122E+02  0.39999993034E+02 0.  0.
        -12    1    3    3    0    0 -0.32337452301E+02 -0.15704821201E+02  0.79641595109E+01  0.36820918878E+02  0.00000000000E+00 0.  1.
         11    1    4    4    0    0  0.10723375051E+02 -0.86394224486E+00 -0.35584208937E+01  0.11331351562E+02  0.51100000000E-03 0. -1.
        -11    1    4    4    0    0 -0.10282809512E+01 -0.84757702584E+01  0.17532741306E+01  0.87160778810E+01  0.51100000000E-03 0.  1.
        -12    1    4    4    0    0  0.22642358201E+02  0.25044533705E+02 -0.61590127478E+01  0.34319651680E+02  0.00000000000E+00 0.  1.
</event>
<event>
 8    1  0.2530183E-006  0.9118800E+02  0.7816164E-02  0.1184000E+00
        -11   -1    0    0    0    0  0.00000000000E+00  0.00000000000E+00  0.45593999997E+02  0.45594000000E+02  0.51100000000E-03 0.  1.
         11   -1    0    0    0    0 -0.00000000000E+00 -0.00000000000E+00 -0.45593999997E+02  0.45594000000E+02  0.51100000000E-03 0. -1.
         23    2    1    2    0    0  0.00000000000E+00 -0.17763568394E-14 -0.35527136788E-14  0.91188000000E+02  0.91188000000E+02 0.  0.
    9900012    2    3    3    0    0 -0.18335143170E+02  0.15596148479E+02  0.27863272760E+02  0.54367091655E+02  0.40000017046E+02 0.  0.
         12    1    3    3    0    0  0.18335143170E+02 -0.15596148479E+02 -0.27863272760E+02  0.36820908345E+02  0.00000000000E+00 0. -1.
         11    1    4    4    0    0 -0.93342617143E+01 -0.73536425154E+01  0.30735900560E+01  0.12274015484E+02  0.51100000000E-03 0. -1.
        -11    1    4    4    0    0 -0.11292890138E+02  0.33831300129E+01  0.17472676820E+02  0.21077698448E+02  0.51100000000E-03 0.  1.
         12    1    4    4    0    0  0.22920086821E+01  0.19566660981E+02  0.73170058838E+01  0.21015377723E+02  0.00000000000E+00 0. -1.
</event>
<event>
 8    1  0.2530183E-006  0.9118800E+02  0.7816164E-02  0.1184000E+00
        -11   -1    0    0    0    0  0.00000000000E+00  0.00000000000E+00  0.45593999997E+02  0.45594000000E+02  0.51100000000E-03 0.  1.
         11   -1    0    0    0    0 -0.00000000000E+00 -0.00000000000E+00 -0.45593999997E+02  0.45594000000E+02  0.51100000000E-03 0. -1.
         23    2    1    2    0    0  0.35527136788E-14  0.00000000000E+00  0.71054273576E-14  0.91188000000E+02  0.91188000000E+02 0.  0.
    9900012    2    3    3    0    0  0.26763072732E+02  0.10789935913E+02  0.22871258672E+02  0.54367092186E+02  0.40000018256E+02 0.  0.
         12    1    3    3    0    0 -0.26763072732E+02 -0.10789935913E+02 -0.22871258672E+02  0.36820907814E+02  0.00000000000E+00 0. -1.
         11    1    4    4    0    0  0.19607865600E+01 -0.11696059746E+01 -0.39915946701E+01  0.45984225928E+01  0.51100000000E-03 0. -1.
        -11    1    4    4    0    0  0.50125574245E+01 -0.45739522329E+01 -0.52527527248E+01  0.85812692774E+01  0.51100000000E-03 0.  1.
        -12    1    4    4    0    0  0.19789728747E+02  0.16533494121E+02  0.32115606067E+02  0.41187400315E+02  0.00000000000E+00 0.  1.
</event>
<event>
 8    1  0.2530183E-006  0.9118800E+02  0.7816164E-02  0.1184000E+00
        -11   -1    0    0    0    0  0.00000000000E+00  0.00000000000E+00  0.45593999997E+02  0.45594000000E+02  0.51100000000E-03 0.  1.
         11   -1    0    0    0    0 -0.00000000000E+00 -0.00000000000E+00 -0.45593999997E+02  0.45594000000E+02  0.51100000000E-03 0. -1.
         23    2    1    2    0    0  0.00000000000E+00 -0.88817841970E-15  0.00000000000E+00  0.91188000000E+02  0.91188000000E+02 0.  0.
    9900012    2    3    3    0    0  0.13194033961E+02 -0.49304951966E+01  0.34020409135E+02  0.54367074526E+02  0.39999977998E+02 0.  0.
         12    1    3    3    0    0 -0.13194033961E+02  0.49304951966E+01 -0.34020409135E+02  0.36820925474E+02  0.00000000000E+00 0. -1.
         11    1    4    4    0    0 -0.80730268180E+01 -0.44402722038E+01 -0.41454079360E+01  0.10103177048E+02  0.51100000000E-03 0. -1.
        -11    1    4    4    0    0  0.14622722231E+02  0.29577997410E+01  0.24627577614E+02  0.28793925821E+02  0.51100000000E-03 0.  1.
         12    1    4    4    0    0  0.66443385477E+01 -0.34480227338E+01  0.13538239457E+02  0.15469971658E+02  0.00000000000E+00 0. -1.
</event>
<event>
 8    1  0.2530183E-006  0.9118800E+02  0.7816164E-02  0.1184000E+00
        -11   -1    0    0    0    0  0.00000000000E+00  0.00000000000E+00  0.45593999997E+02  0.45594000000E+02  0.51100000000E-03 0.  1.
         11   -1    0    0    0    0 -0.00000000000E+00 -0.00000000000E+00 -0.45593999997E+02  0.45594000000E+02  0.51100000000E-03 0. -1.
         23    2    1    2    0    0 -0.17763568394E-14 -0.44408920985E-15  0.71054273576E-14  0.91188000000E+02  0.91188000000E+02 0.  0.
    9900012    2    3    3    0    0  0.15407580121E+02  0.96868473395E+00 -0.33428289797E+02  0.54367048980E+02  0.39999919759E+02 0.  0.
        -12    1    3    3    0    0 -0.15407580121E+02 -0.96868473395E+00  0.33428289797E+02  0.36820951020E+02  0.00000000000E+00 0.  1.
         11    1    4    4    0    0  0.14971579119E+02  0.11741970579E+02 -0.31695665967E+02  0.36968057777E+02  0.51100000000E-03 0. -1.
        -11    1    4    4    0    0 -0.31157035120E+01 -0.56464949255E+01  0.50453408808E+01  0.81881608548E+01  0.51100000000E-03 0.  1.
        -12    1    4    4    0    0  0.35517045141E+01 -0.51267909198E+01 -0.67779647104E+01  0.92108303483E+01  0.00000000000E+00 0.  1.
</event>
<event>
 8    1  0.2530183E-006  0.9118800E+02  0.7816164E-02  0.1184000E+00
        -11   -1    0    0    0    0  0.00000000000E+00  0.00000000000E+00  0.45593999997E+02  0.45594000000E+02  0.51100000000E-03 0.  1.
         11   -1    0    0    0    0 -0.00000000000E+00 -0.00000000000E+00 -0.45593999997E+02  0.45594000000E+02  0.51100000000E-03 0. -1.
         23    2    1    2    0    0  0.00000000000E+00  0.00000000000E+00  0.00000000000E+00  0.91188000000E+02  0.91188000000E+02 0.  0.
    9900012    2    3    3    0    0 -0.30903460408E+02 -0.17838336131E+02  0.90856378393E+01  0.54367096751E+02  0.40000028663E+02 0.  0.
         12    1    3    3    0    0  0.30903460408E+02  0.17838336131E+02 -0.90856378393E+01  0.36820903249E+02  0.00000000000E+00 0. -1.
         11    1    4    4    0    0 -0.15232607815E+02 -0.54474244500E+01 -0.75107794238E+01  0.17835879059E+02  0.51100000000E-03 0. -1.
        -11    1    4    4    0    0 -0.17714590684E+02  0.18678354716E+01  0.11724790609E+02  0.21325249061E+02  0.51100000000E-03 0.  1.
        -12    1    4    4    0    0  0.20437380909E+01 -0.14258747152E+02  0.48716266541E+01  0.15205968631E+02  0.00000000000E+00 0.  1.
</event>
<event>
 8    1  0.2530183E-006  0.9118800E+02  0.7816164E-02  0.1184000E+00
        -11   -1    0    0    0    0  0.00000000000E+00  0.00000000000E+00  0.45593999997E+02  0.45594000000E+02  0.51100000000E-03 0. -1.
         11   -1    0    0    0    0 -0.00000000000E+00 -0.00000000000E+00 -0.45593999997E+02  0.45594000000E+02  0.51100000000E-03 0.  1.
         23    2    1    2    0    0  0.17763568394E-14 -0.11102230246E-15  0.00000000000E+00  0.91188000000E+02  0.91188000000E+02 0.  0.
    9900012    2    3    3    0    0 -0.14123941786E+02  0.53526540859E+00 -0.34000149083E+02  0.54367049736E+02  0.39999921484E+02 0.  0.
         12    1    3    3    0    0  0.14123941786E+02 -0.53526540859E+00  0.34000149083E+02  0.36820950264E+02  0.00000000000E+00 0. -1.
         11    1    4    4    0    0  0.91182720650E+01 -0.52087926406E+01 -0.56790881786E+01  0.11938444163E+02  0.51100000000E-03 0. -1.
        -11    1    4    4    0    0 -0.48805258287E+01  0.53189172273E+01  0.15306565145E+01  0.73792494512E+01  0.51100000000E-03 0.  1.
        -12    1    4    4    0    0 -0.18361688022E+02  0.42514082184E+00 -0.29851717419E+02  0.35049356123E+02  0.00000000000E+00 0.  1.
</event>
<event>
 8    1  0.2530183E-006  0.9118800E+02  0.7816164E-02  0.1184000E+00
        -11   -1    0    0    0    0  0.00000000000E+00  0.00000000000E+00  0.45593999997E+02  0.45594000000E+02  0.51100000000E-03 0.  1.
         11   -1    0    0    0    0 -0.00000000000E+00 -0.00000000000E+00 -0.45593999997E+02  0.45594000000E+02  0.51100000000E-03 0. -1.
         23    2    1    2    0    0  0.35527136788E-14 -0.35527136788E-14  0.17763568394E-14  0.91188000000E+02  0.91188000000E+02 0.  0.
    9900012    2    3    3    0    0  0.29790228055E+02 -0.20322162640E+02  0.74385868083E+01  0.54367074487E+02  0.39999977907E+02 0.  0.
        -12    1    3    3    0    0 -0.29790228055E+02  0.20322162640E+02 -0.74385868083E+01  0.36820925513E+02  0.00000000000E+00 0.  1.
         11    1    4    4    0    0  0.68047517328E+01 -0.45815064848E+01 -0.10341810666E+02  0.13200299085E+02  0.51100000000E-03 0. -1.
        -11    1    4    4    0    0  0.13897926271E+02  0.33071015673E+01  0.12152098684E+01  0.14337573389E+02  0.51100000000E-03 0.  1.
         12    1    4    4    0    0  0.90875500519E+01 -0.19047757723E+02  0.16565187606E+02  0.26829202013E+02  0.00000000000E+00 0. -1.
</event>
<event>
 8    1  0.2530183E-006  0.9118800E+02  0.7816164E-02  0.1184000E+00
        -11   -1    0    0    0    0  0.00000000000E+00  0.00000000000E+00  0.45593999997E+02  0.45594000000E+02  0.51100000000E-03 0.  1.
         11   -1    0    0    0    0 -0.00000000000E+00 -0.00000000000E+00 -0.45593999997E+02  0.45594000000E+02  0.51100000000E-03 0. -1.
         23    2    1    2    0    0  0.17763568394E-14  0.00000000000E+00  0.00000000000E+00  0.91188000000E+02  0.91188000000E+02 0.  0.
    9900012    2    3    3    0    0 -0.14872382019E+02 -0.61834408067E+01 -0.33111274565E+02  0.54367093025E+02  0.40000020169E+02 0.  0.
         12    1    3    3    0    0  0.14872382019E+02  0.61834408067E+01  0.33111274565E+02  0.36820906975E+02  0.00000000000E+00 0. -1.
         11    1    4    4    0    0  0.16888627914E+01 -0.71359652122E+01 -0.62475430620E+01  0.96335897572E+01  0.51100000000E-03 0. -1.
        -11    1    4    4    0    0 -0.16984566082E+02 -0.14839057410E+01  0.69559495138E+00  0.17063449646E+02  0.51100000000E-03 0.  1.
        -12    1    4    4    0    0  0.42332127168E+00  0.24364301465E+01 -0.27559326455E+02  0.27670053621E+02  0.00000000000E+00 0.  1.
</event>
<event>
 8    1  0.2530183E-006  0.9118800E+02  0.7816164E-02  0.1184000E+00
        -11   -1    0    0    0    0  0.00000000000E+00  0.00000000000E+00  0.45593999997E+02  0.45594000000E+02  0.51100000000E-03 0.  1.
         11   -1    0    0    0    0 -0.00000000000E+00 -0.00000000000E+00 -0.45593999997E+02  0.45594000000E+02  0.51100000000E-03 0. -1.
         23    2    1    2    0    0  0.44408920985E-15  0.44408920985E-15  0.00000000000E+00  0.91188000000E+02  0.91188000000E+02 0.  0.
    9900012    2    3    3    0    0 -0.25296677344E+01  0.33566618549E+01  0.36580253831E+02  0.54367063456E+02  0.39999952760E+02 0.  0.
         12    1    3    3    0    0  0.25296677344E+01 -0.33566618549E+01 -0.36580253831E+02  0.36820936544E+02  0.00000000000E+00 0. -1.
         11    1    4    4    0    0  0.87905293006E+01 -0.42555545462E+01  0.44862761054E+01  0.10747549648E+02  0.51100000000E-03 0. -1.
        -11    1    4    4    0    0 -0.78881231047E+01  0.15903927014E+02  0.11491331742E+02  0.21147295006E+02  0.51100000000E-03 0.  1.
         12    1    4    4    0    0 -0.34320739302E+01 -0.82917106134E+01  0.20602645984E+02  0.22472218802E+02  0.00000000000E+00 0. -1.
</event>
<event>
 8    1  0.2530183E-006  0.9118800E+02  0.7816164E-02  0.1184000E+00
        -11   -1    0    0    0    0  0.00000000000E+00  0.00000000000E+00  0.45593999997E+02  0.45594000000E+02  0.51100000000E-03 0.  1.
         11   -1    0    0    0    0 -0.00000000000E+00 -0.00000000000E+00 -0.45593999997E+02  0.45594000000E+02  0.51100000000E-03 0. -1.
         23    2    1    2    0    0  0.00000000000E+00 -0.35527136788E-14  0.35527136788E-14  0.91188000000E+02  0.91188000000E+02 0.  0.
    9900012    2    3    3    0    0  0.90535992337E+01 -0.28591662568E+02  0.21361871258E+02  0.54367076992E+02  0.39999983620E+02 0.  0.
         12    1    3    3    0    0 -0.90535992337E+01  0.28591662568E+02 -0.21361871258E+02  0.36820923008E+02  0.00000000000E+00 0. -1.
         11    1    4    4    0    0  0.97096277904E+01  0.51475238883E+01  0.48823628446E+01  0.12025445572E+02  0.51100000000E-03 0. -1.
        -11    1    4    4    0    0  0.32906652375E+01 -0.15596550868E+02  0.17594469331E+02  0.23741234761E+02  0.51100000000E-03 0.  1.
         12    1    4    4    0    0 -0.39466937943E+01 -0.18142635589E+02 -0.11149609183E+01  0.18600396659E+02  0.00000000000E+00 0. -1.
</event>
<event>
 8    1  0.2530183E-006  0.9118800E+02  0.7816164E-02  0.1184000E+00
        -11   -1    0    0    0    0  0.00000000000E+00  0.00000000000E+00  0.45593999997E+02  0.45594000000E+02  0.51100000000E-03 0.  1.
         11   -1    0    0    0    0 -0.00000000000E+00 -0.00000000000E+00 -0.45593999997E+02  0.45594000000E+02  0.51100000000E-03 0. -1.
         23    2    1    2    0    0 -0.35527136788E-14  0.35527136788E-14  0.00000000000E+00  0.91188000000E+02  0.91188000000E+02 0.  0.
    9900012    2    3    3    0    0  0.21671871967E+02 -0.23729564094E+02  0.17972678524E+02  0.54367089908E+02  0.40000013064E+02 0.  0.
         12    1    3    3    0    0 -0.21671871967E+02  0.23729564094E+02 -0.17972678524E+02  0.36820910092E+02  0.00000000000E+00 0. -1.
         11    1    4    4    0    0  0.23364697477E+00 -0.33886659778E+01 -0.50814702522E+01  0.61121999479E+01  0.51100000000E-03 0. -1.
        -11    1    4    4    0    0  0.13216493830E+02  0.60415883849E+01  0.56186679137E+01  0.15580305798E+02  0.51100000000E-03 0.  1.
         12    1    4    4    0    0  0.82217311621E+01 -0.26382486502E+02  0.17435480862E+02  0.32674584163E+02  0.00000000000E+00 0. -1.
</event>
<event>
 8    1  0.2530183E-006  0.9118800E+02  0.7816164E-02  0.1184000E+00
        -11   -1    0    0    0    0  0.00000000000E+00  0.00000000000E+00  0.45593999997E+02  0.45594000000E+02  0.51100000000E-03 0.  1.
         11   -1    0    0    0    0 -0.00000000000E+00 -0.00000000000E+00 -0.45593999997E+02  0.45594000000E+02  0.51100000000E-03 0. -1.
         23    2    1    2    0    0  0.33306690739E-15  0.00000000000E+00  0.00000000000E+00  0.91188000000E+02  0.91188000000E+02 0.  0.
    9900012    2    3    3    0    0 -0.79285087694E+00  0.34331755032E+02 -0.13284648391E+02  0.54367083404E+02  0.39999998236E+02 0.  0.
        -12    1    3    3    0    0  0.79285087694E+00 -0.34331755032E+02  0.13284648391E+02  0.36820916596E+02  0.00000000000E+00 0.  1.
         11    1    4    4    0    0 -0.15134853552E+02  0.16969125750E+02 -0.18815377851E+02  0.29513276075E+02  0.51100000000E-03 0. -1.
        -11    1    4    4    0    0  0.78273952446E+01  0.83508995073E+01 -0.17265697508E+01  0.11575261650E+02  0.51100000000E-03 0.  1.
         12    1    4    4    0    0  0.65146074302E+01  0.90117297748E+01  0.72572992110E+01  0.13278545679E+02  0.00000000000E+00 0. -1.
</event>
<event>
 8    1  0.2530183E-006  0.9118800E+02  0.7816164E-02  0.1184000E+00
        -11   -1    0    0    0    0  0.00000000000E+00  0.00000000000E+00  0.45593999997E+02  0.45594000000E+02  0.51100000000E-03 0.  1.
         11   -1    0    0    0    0 -0.00000000000E+00 -0.00000000000E+00 -0.45593999997E+02  0.45594000000E+02  0.51100000000E-03 0. -1.
         23    2    1    2    0    0 -0.17763568394E-14  0.22204460493E-15  0.00000000000E+00  0.91188000000E+02  0.91188000000E+02 0.  0.
    9900012    2    3    3    0    0  0.12100002260E+02 -0.17972307312E+01  0.34729445669E+02  0.54367156861E+02  0.40000165695E+02 0.  0.
         12    1    3    3    0    0 -0.12100002260E+02  0.17972307312E+01 -0.34729445669E+02  0.36820843139E+02  0.00000000000E+00 0. -1.
         11    1    4    4    0    0  0.48740960430E+01  0.91808462755E+01 -0.99486774166E+00  0.10441959235E+02  0.51100000000E-03 0. -1.
        -11    1    4    4    0    0 -0.43978705320E+01  0.18201086112E+01  0.19988607837E+02  0.20547469530E+02  0.51100000000E-03 0.  1.
         12    1    4    4    0    0  0.11623776749E+02 -0.12798185618E+02  0.15735705574E+02  0.23377728096E+02  0.00000000000E+00 0. -1.
</event>
<event>
 8    1  0.2530183E-006  0.9118800E+02  0.7816164E-02  0.1184000E+00
        -11   -1    0    0    0    0  0.00000000000E+00  0.00000000000E+00  0.45593999997E+02  0.45594000000E+02  0.51100000000E-03 0.  1.
         11   -1    0    0    0    0 -0.00000000000E+00 -0.00000000000E+00 -0.45593999997E+02  0.45594000000E+02  0.51100000000E-03 0. -1.
         23    2    1    2    0    0  0.00000000000E+00  0.00000000000E+00 -0.35527136788E-14  0.91188000000E+02  0.91188000000E+02 0.  0.
    9900012    2    3    3    0    0  0.26019238211E+02 -0.11924567742E+02  0.23164290444E+02  0.54367076265E+02  0.39999981961E+02 0.  0.
        -12    1    3    3    0    0 -0.26019238211E+02  0.11924567742E+02 -0.23164290444E+02  0.36820923735E+02  0.00000000000E+00 0.  1.
         11    1    4    4    0    0 -0.67562814504E+00 -0.13990223841E+02  0.19827058090E+02  0.24275400496E+02  0.51100000000E-03 0.  1.
        -11    1    4    4    0    0  0.66383794392E+01 -0.37302313143E+01 -0.31343543475E+01  0.82344935894E+01  0.51100000000E-03 0. -1.
        -12    1    4    4    0    0  0.20056486917E+02  0.57958874131E+01  0.64715867020E+01  0.21857182179E+02  0.00000000000E+00 0.  1.
</event>
<event>
 8    1  0.2530183E-006  0.9118800E+02  0.7816164E-02  0.1184000E+00
        -11   -1    0    0    0    0  0.00000000000E+00  0.00000000000E+00  0.45593999997E+02  0.45594000000E+02  0.51100000000E-03 0. -1.
         11   -1    0    0    0    0 -0.00000000000E+00 -0.00000000000E+00 -0.45593999997E+02  0.45594000000E+02  0.51100000000E-03 0.  1.
         23    2    1    2    0    0  0.35527136788E-14 -0.35527136788E-14  0.26645352591E-14  0.91188000000E+02  0.91188000000E+02 0.  0.
    9900012    2    3    3    0    0 -0.19072548585E+02  0.31269864755E+02 -0.37699266069E+01  0.54367096997E+02  0.40000029225E+02 0.  0.
        -12    1    3    3    0    0  0.19072548585E+02 -0.31269864755E+02  0.37699266069E+01  0.36820903003E+02  0.00000000000E+00 0.  1.
         11    1    4    4    0    0  0.19125829371E+01  0.68894446532E+01  0.33393877997E+01  0.78913834186E+01  0.51100000000E-03 0. -1.
        -11    1    4    4    0    0  0.41626469076E+01  0.13520307467E+02  0.68652425885E+01  0.15724436376E+02  0.51100000000E-03 0.  1.
        -12    1    4    4    0    0 -0.25147778430E+02  0.10860112635E+02 -0.13974556995E+02  0.30751277203E+02  0.00000000000E+00 0.  1.
</event>
<event>
 8    1  0.2530183E-006  0.9118800E+02  0.7816164E-02  0.1184000E+00
        -11   -1    0    0    0    0  0.00000000000E+00  0.00000000000E+00  0.45593999997E+02  0.45594000000E+02  0.51100000000E-03 0.  1.
         11   -1    0    0    0    0 -0.00000000000E+00 -0.00000000000E+00 -0.45593999997E+02  0.45594000000E+02  0.51100000000E-03 0. -1.
         23    2    1    2    0    0 -0.44408920985E-15  0.35527136788E-14 -0.35527136788E-14  0.91188000000E+02  0.91188000000E+02 0.  0.
    9900012    2    3    3    0    0  0.34378423333E+01  0.31359779902E+02 -0.18987568946E+02  0.54367050394E+02  0.39999922984E+02 0.  0.
        -12    1    3    3    0    0 -0.34378423333E+01 -0.31359779902E+02  0.18987568946E+02  0.36820949606E+02  0.00000000000E+00 0.  1.
         11    1    4    4    0    0  0.61783441951E+01  0.16850707904E+02 -0.18834877393E+02  0.26016742696E+02  0.51100000000E-03 0. -1.
        -11    1    4    4    0    0  0.89477370650E+01  0.39233312040E+01  0.59522590931E+01  0.11440450817E+02  0.51100000000E-03 0.  1.
        -12    1    4    4    0    0 -0.11688238927E+02  0.10585740794E+02 -0.61049506462E+01  0.16909856881E+02  0.00000000000E+00 0.  1.
</event>
<event>
 8    1  0.2530183E-006  0.9118800E+02  0.7816164E-02  0.1184000E+00
        -11   -1    0    0    0    0  0.00000000000E+00  0.00000000000E+00  0.45593999997E+02  0.45594000000E+02  0.51100000000E-03 0.  1.
         11   -1    0    0    0    0 -0.00000000000E+00 -0.00000000000E+00 -0.45593999997E+02  0.45594000000E+02  0.51100000000E-03 0. -1.
         23    2    1    2    0    0  0.00000000000E+00  0.35527136788E-14  0.00000000000E+00  0.91188000000E+02  0.91188000000E+02 0.  0.
    9900012    2    3    3    0    0 -0.20159393294E+02  0.30157591298E+02  0.63162078745E+01  0.54367137261E+02  0.40000121014E+02 0.  0.
        -12    1    3    3    0    0  0.20159393294E+02 -0.30157591298E+02 -0.63162078745E+01  0.36820862739E+02  0.00000000000E+00 0.  1.
         11    1    4    4    0    0 -0.10391659057E+02  0.98069228982E+01 -0.16834010206E+01  0.14387360909E+02  0.51100000000E-03 0. -1.
        -11    1    4    4    0    0 -0.12779589467E+02 -0.44311456437E+01 -0.69759484168E+00  0.13543987503E+02  0.51100000000E-03 0.  1.
         12    1    4    4    0    0  0.30118552291E+01  0.24781814044E+02  0.86972037368E+01  0.26435788849E+02  0.00000000000E+00 0. -1.
</event>
<event>
 8    1  0.2530183E-006  0.9118800E+02  0.7816164E-02  0.1184000E+00
        -11   -1    0    0    0    0  0.00000000000E+00  0.00000000000E+00  0.45593999997E+02  0.45594000000E+02  0.51100000000E-03 0.  1.
         11   -1    0    0    0    0 -0.00000000000E+00 -0.00000000000E+00 -0.45593999997E+02  0.45594000000E+02  0.51100000000E-03 0. -1.
         23    2    1    2    0    0 -0.35527136788E-14  0.00000000000E+00 -0.22204460493E-15  0.91188000000E+02  0.91188000000E+02 0.  0.
    9900012    2    3    3    0    0 -0.29231522614E+02  0.22359139711E+02 -0.11692138803E+01  0.54367080619E+02  0.39999991887E+02 0.  0.
         12    1    3    3    0    0  0.29231522614E+02 -0.22359139711E+02  0.11692138803E+01  0.36820919381E+02  0.00000000000E+00 0. -1.
         11    1    4    4    0    0 -0.18165781759E+02 -0.67051963002E+01 -0.54418703689E+01  0.20113906575E+02  0.51100000000E-03 0. -1.
        -11    1    4    4    0    0 -0.95976486576E+01  0.23537729563E+02 -0.23213860903E+01  0.25525054483E+02  0.51100000000E-03 0.  1.
        -12    1    4    4    0    0 -0.14680921974E+01  0.55266064482E+01  0.65940425788E+01  0.87281195606E+01  0.00000000000E+00 0.  1.
</event>
<event>
 8    1  0.2530183E-006  0.9118800E+02  0.7816164E-02  0.1184000E+00
        -11   -1    0    0    0    0  0.00000000000E+00  0.00000000000E+00  0.45593999997E+02  0.45594000000E+02  0.51100000000E-03 0. -1.
         11   -1    0    0    0    0 -0.00000000000E+00 -0.00000000000E+00 -0.45593999997E+02  0.45594000000E+02  0.51100000000E-03 0.  1.
         23    2    1    2    0    0  0.00000000000E+00 -0.35527136788E-14  0.00000000000E+00  0.91188000000E+02  0.91188000000E+02 0.  0.
    9900012    2    3    3    0    0  0.17443724091E+02 -0.25489599086E+02  0.20044348428E+02  0.54367094584E+02  0.40000023724E+02 0.  0.
        -12    1    3    3    0    0 -0.17443724091E+02  0.25489599086E+02 -0.20044348428E+02  0.36820905416E+02  0.00000000000E+00 0.  1.
         11    1    4    4    0    0  0.16428314489E+02 -0.24965884580E+02  0.21071087625E+02  0.36567412320E+02  0.51100000000E-03 0. -1.
        -11    1    4    4    0    0 -0.41108149719E+01 -0.75472390851E+01  0.15452597793E+01  0.87319783318E+01  0.51100000000E-03 0.  1.
         12    1    4    4    0    0  0.51262245734E+01  0.70235245787E+01 -0.25719989756E+01  0.90677039329E+01  0.00000000000E+00 0. -1.
</event>
<event>
 8    1  0.2530183E-006  0.9118800E+02  0.7816164E-02  0.1184000E+00
        -11   -1    0    0    0    0  0.00000000000E+00  0.00000000000E+00  0.45593999997E+02  0.45594000000E+02  0.51100000000E-03 0.  1.
         11   -1    0    0    0    0 -0.00000000000E+00 -0.00000000000E+00 -0.45593999997E+02  0.45594000000E+02  0.51100000000E-03 0. -1.
         23    2    1    2    0    0  0.00000000000E+00  0.00000000000E+00  0.71054273576E-14  0.91188000000E+02  0.91188000000E+02 0.  0.
    9900012    2    3    3    0    0  0.45896088966E+01  0.19796659881E+02 -0.30705164584E+02  0.54367090391E+02  0.40000014164E+02 0.  0.
        -12    1    3    3    0    0 -0.45896088966E+01 -0.19796659881E+02  0.30705164584E+02  0.36820909609E+02  0.00000000000E+00 0.  1.
         11    1    4    4    0    0  0.11470219269E+02  0.10784603320E+02  0.30324055697E+00  0.15746922047E+02  0.51100000000E-03 0. -1.
        -11    1    4    4    0    0 -0.96327572248E+01  0.42845795529E+01 -0.43475199824E+01  0.11403883722E+02  0.51100000000E-03 0.  1.
         12    1    4    4    0    0  0.27521468523E+01  0.47274770086E+01 -0.26660885159E+02  0.27216284622E+02  0.00000000000E+00 0. -1.
</event>
<event>
 8    1  0.2530183E-006  0.9118800E+02  0.7816164E-02  0.1184000E+00
        -11   -1    0    0    0    0  0.00000000000E+00  0.00000000000E+00  0.45593999997E+02  0.45594000000E+02  0.51100000000E-03 0.  1.
         11   -1    0    0    0    0 -0.00000000000E+00 -0.00000000000E+00 -0.45593999997E+02  0.45594000000E+02  0.51100000000E-03 0. -1.
         23    2    1    2    0    0  0.00000000000E+00  0.00000000000E+00  0.00000000000E+00  0.91188000000E+02  0.91188000000E+02 0.  0.
    9900012    2    3    3    0    0  0.26213344447E+02 -0.23626768185E+02  0.10507940662E+02  0.54367076344E+02  0.39999982141E+02 0.  0.
         12    1    3    3    0    0 -0.26213344447E+02  0.23626768185E+02 -0.10507940662E+02  0.36820923656E+02  0.00000000000E+00 0. -1.
         11    1    4    4    0    0  0.14156530886E+02 -0.82173641598E+01 -0.10392684881E+02  0.19389180998E+02  0.51100000000E-03 0. -1.
        -11    1    4    4    0    0  0.28676624410E+01 -0.14791998473E+02  0.37753565765E+01  0.15533191052E+02  0.51100000000E-03 0.  1.
         12    1    4    4    0    0  0.91891511198E+01 -0.61740555219E+00  0.17125268967E+02  0.19444704294E+02  0.00000000000E+00 0. -1.
</event>
<event>
 8    1  0.2530183E-006  0.9118800E+02  0.7816164E-02  0.1184000E+00
        -11   -1    0    0    0    0  0.00000000000E+00  0.00000000000E+00  0.45593999997E+02  0.45594000000E+02  0.51100000000E-03 0.  1.
         11   -1    0    0    0    0 -0.00000000000E+00 -0.00000000000E+00 -0.45593999997E+02  0.45594000000E+02  0.51100000000E-03 0. -1.
         23    2    1    2    0    0 -0.35527136788E-14  0.00000000000E+00 -0.17763568394E-14  0.91188000000E+02  0.91188000000E+02 0.  0.
    9900012    2    3    3    0    0 -0.16720547293E+02 -0.30027107514E+02  0.13212698029E+02  0.54367091855E+02  0.40000017502E+02 0.  0.
         12    1    3    3    0    0  0.16720547293E+02  0.30027107514E+02 -0.13212698029E+02  0.36820908145E+02  0.00000000000E+00 0. -1.
         11    1    4    4    0    0  0.46034700013E+01  0.33833706108E+01  0.27197491443E+01  0.63274140383E+01  0.51100000000E-03 0. -1.
        -11    1    4    4    0    0 -0.63871420230E+01 -0.21088417319E+01  0.11521877375E+02  0.13341531215E+02  0.51100000000E-03 0.  1.
        -12    1    4    4    0    0 -0.14936875271E+02 -0.31301636393E+02 -0.10289284897E+01  0.34698146601E+02  0.00000000000E+00 0.  1.
</event>
<event>
 8    1  0.2530183E-006  0.9118800E+02  0.7816164E-02  0.1184000E+00
        -11   -1    0    0    0    0  0.00000000000E+00  0.00000000000E+00  0.45593999997E+02  0.45594000000E+02  0.51100000000E-03 0. -1.
         11   -1    0    0    0    0 -0.00000000000E+00 -0.00000000000E+00 -0.45593999997E+02  0.45594000000E+02  0.51100000000E-03 0.  1.
         23    2    1    2    0    0  0.00000000000E+00  0.00000000000E+00  0.00000000000E+00  0.91188000000E+02  0.91188000000E+02 0.  0.
    9900012    2    3    3    0    0  0.28026007181E+02 -0.10708880373E+02  0.21345785185E+02  0.54367085528E+02  0.40000003078E+02 0.  0.
        -12    1    3    3    0    0 -0.28026007181E+02  0.10708880373E+02 -0.21345785185E+02  0.36820914472E+02  0.00000000000E+00 0.  1.
         11    1    4    4    0    0  0.14616002579E+02 -0.71141230802E+01  0.57976883213E+00  0.16265743473E+02  0.51100000000E-03 0. -1.
        -11    1    4    4    0    0  0.10408320858E+02  0.12094044496E+02  0.10970726067E+02  0.19363777681E+02  0.51100000000E-03 0.  1.
         12    1    4    4    0    0  0.30016837445E+01 -0.15688801789E+02  0.97952902861E+01  0.18737564374E+02  0.00000000000E+00 0. -1.
</event>
<event>
 8    1  0.2530183E-006  0.9118800E+02  0.7816164E-02  0.1184000E+00
        -11   -1    0    0    0    0  0.00000000000E+00  0.00000000000E+00  0.45593999997E+02  0.45594000000E+02  0.51100000000E-03 0.  1.
         11   -1    0    0    0    0 -0.00000000000E+00 -0.00000000000E+00 -0.45593999997E+02  0.45594000000E+02  0.51100000000E-03 0. -1.
         23    2    1    2    0    0  0.35527136788E-14  0.35527136788E-14  0.00000000000E+00  0.91188000000E+02  0.91188000000E+02 0.  0.
    9900012    2    3    3    0    0 -0.16060893639E+02 -0.31313753815E+02  0.10828983437E+02  0.54367212872E+02  0.40000293383E+02 0.  0.
        -12    1    3    3    0    0  0.16060893639E+02  0.31313753815E+02 -0.10828983437E+02  0.36820787128E+02  0.00000000000E+00 0.  1.
         11    1    4    4    0    0 -0.16794851452E+02 -0.31759114501E+01 -0.43593224191E+01  0.17639646852E+02  0.51100000000E-03 0. -1.
        -11    1    4    4    0    0  0.28983607421E+01 -0.15836506038E+01  0.87011445909E+01  0.93068986069E+01  0.51100000000E-03 0.  1.
         12    1    4    4    0    0 -0.21644029291E+01 -0.26554191761E+02  0.64871612651E+01  0.27420667413E+02  0.00000000000E+00 0. -1.
</event>
<event>
 8    1  0.2530183E-006  0.9118800E+02  0.7816164E-02  0.1184000E+00
        -11   -1    0    0    0    0  0.00000000000E+00  0.00000000000E+00  0.45593999997E+02  0.45594000000E+02  0.51100000000E-03 0. -1.
         11   -1    0    0    0    0 -0.00000000000E+00 -0.00000000000E+00 -0.45593999997E+02  0.45594000000E+02  0.51100000000E-03 0.  1.
         23    2    1    2    0    0  0.00000000000E+00  0.00000000000E+00  0.00000000000E+00  0.91188000000E+02  0.91188000000E+02 0.  0.
    9900012    2    3    3    0    0  0.15426690344E+02  0.22787938919E+02  0.24464403863E+02  0.54367082147E+02  0.39999995371E+02 0.  0.
        -12    1    3    3    0    0 -0.15426690344E+02 -0.22787938919E+02 -0.24464403863E+02  0.36820917853E+02  0.00000000000E+00 0.  1.
         11    1    4    4    0    0  0.21035046086E+02  0.64757247742E+01  0.28694255746E+01  0.22195535105E+02  0.51100000000E-03 0.  1.
        -11    1    4    4    0    0 -0.53736438769E+01  0.15830456671E+02  0.24254944775E+02  0.29458135604E+02  0.51100000000E-03 0. -1.
        -12    1    4    4    0    0 -0.23471186511E+00  0.48175747341E+00 -0.26599664868E+01  0.27134114383E+01  0.00000000000E+00 0.  1.
</event>
<event>
 8    1  0.2530183E-006  0.9118800E+02  0.7816164E-02  0.1184000E+00
        -11   -1    0    0    0    0  0.00000000000E+00  0.00000000000E+00  0.45593999997E+02  0.45594000000E+02  0.51100000000E-03 0. -1.
         11   -1    0    0    0    0 -0.00000000000E+00 -0.00000000000E+00 -0.45593999997E+02  0.45594000000E+02  0.51100000000E-03 0.  1.
         23    2    1    2    0    0  0.00000000000E+00  0.00000000000E+00  0.00000000000E+00  0.91188000000E+02  0.91188000000E+02 0.  0.
    9900012    2    3    3    0    0 -0.46325430530E+01  0.31445789506E+02 -0.18587145725E+02  0.54367080417E+02  0.39999991426E+02 0.  0.
         12    1    3    3    0    0  0.46325430530E+01 -0.31445789506E+02  0.18587145725E+02  0.36820919583E+02  0.00000000000E+00 0. -1.
         11    1    4    4    0    0 -0.43909590817E+00 -0.61784244410E+01 -0.32548471896E+01  0.69971254296E+01  0.51100000000E-03 0. -1.
        -11    1    4    4    0    0 -0.81007915214E+01  0.99669628002E+01 -0.14576614567E+02  0.19427837327E+02  0.51100000000E-03 0.  1.
        -12    1    4    4    0    0  0.39073443766E+01  0.27657251146E+02 -0.75568396864E+00  0.27942117660E+02  0.00000000000E+00 0.  1.
</event>
<event>
 8    1  0.2530183E-006  0.9118800E+02  0.7816164E-02  0.1184000E+00
        -11   -1    0    0    0    0  0.00000000000E+00  0.00000000000E+00  0.45593999997E+02  0.45594000000E+02  0.51100000000E-03 0.  1.
         11   -1    0    0    0    0 -0.00000000000E+00 -0.00000000000E+00 -0.45593999997E+02  0.45594000000E+02  0.51100000000E-03 0. -1.
         23    2    1    2    0    0 -0.35527136788E-14 -0.35527136788E-14 -0.35527136788E-14  0.91188000000E+02  0.91188000000E+02 0.  0.
    9900012    2    3    3    0    0 -0.19703913537E+02 -0.22817705595E+02 -0.21139684967E+02  0.54367106776E+02  0.40000051518E+02 0.  0.
         12    1    3    3    0    0  0.19703913537E+02  0.22817705595E+02  0.21139684967E+02  0.36820893224E+02  0.00000000000E+00 0. -1.
         11    1    4    4    0    0  0.78185753580E+01 -0.16165048595E+02 -0.27076001485E+01  0.18159570907E+02  0.51100000000E-03 0. -1.
        -11    1    4    4    0    0 -0.28721652886E+01 -0.57160504086E+01 -0.50018124130E+01  0.81203875151E+01  0.51100000000E-03 0.  1.
         12    1    4    4    0    0 -0.24650323606E+02 -0.93660659156E+00 -0.13430272405E+02  0.28087148354E+02  0.00000000000E+00 0. -1.
</event>
<event>
 8    1  0.2530183E-006  0.9118800E+02  0.7816164E-02  0.1184000E+00
        -11   -1    0    0    0    0  0.00000000000E+00  0.00000000000E+00  0.45593999997E+02  0.45594000000E+02  0.51100000000E-03 0. -1.
         11   -1    0    0    0    0 -0.00000000000E+00 -0.00000000000E+00 -0.45593999997E+02  0.45594000000E+02  0.51100000000E-03 0.  1.
         23    2    1    2    0    0  0.88817841970E-15  0.00000000000E+00  0.00000000000E+00  0.91188000000E+02  0.91188000000E+02 0.  0.
    9900012    2    3    3    0    0  0.61521118097E+01 -0.32889044486E+02 -0.15370026533E+02  0.54367143918E+02  0.40000136190E+02 0.  0.
        -12    1    3    3    0    0 -0.61521118097E+01  0.32889044486E+02  0.15370026533E+02  0.36820856082E+02  0.00000000000E+00 0.  1.
         11    1    4    4    0    0  0.19172293600E+02 -0.23830598824E+02 -0.52466147235E+00  0.30590023735E+02  0.51100000000E-03 0. -1.
        -11    1    4    4    0    0 -0.16028782513E+01 -0.75789840748E+00  0.13976073414E+01  0.22576393039E+01  0.51100000000E-03 0.  1.
        -12    1    4    4    0    0 -0.11417303539E+02 -0.83005472547E+01 -0.16242972402E+02  0.21519480879E+02  0.00000000000E+00 0.  1.
</event>
<event>
 8    1  0.2530183E-006  0.9118800E+02  0.7816164E-02  0.1184000E+00
        -11   -1    0    0    0    0  0.00000000000E+00  0.00000000000E+00  0.45593999997E+02  0.45594000000E+02  0.51100000000E-03 0.  1.
         11   -1    0    0    0    0 -0.00000000000E+00 -0.00000000000E+00 -0.45593999997E+02  0.45594000000E+02  0.51100000000E-03 0. -1.
         23    2    1    2    0    0 -0.17763568394E-14  0.00000000000E+00  0.00000000000E+00  0.91188000000E+02  0.91188000000E+02 0.  0.
    9900012    2    3    3    0    0 -0.89382521542E+01 -0.35141835441E+02  0.63985455118E+01  0.54367050333E+02  0.39999922844E+02 0.  0.
         12    1    3    3    0    0  0.89382521542E+01  0.35141835441E+02 -0.63985455118E+01  0.36820949667E+02  0.00000000000E+00 0. -1.
         11    1    4    4    0    0  0.35732474380E+01 -0.23383480793E+02  0.82243044215E+01  0.25043850637E+02  0.51100000000E-03 0. -1.
        -11    1    4    4    0    0  0.36167299099E+01 -0.97816359558E+01  0.51608036055E+01  0.11635937063E+02  0.51100000000E-03 0.  1.
         12    1    4    4    0    0 -0.16128229502E+02 -0.19767186917E+01 -0.69865625152E+01  0.17687262633E+02  0.00000000000E+00 0. -1.
</event>
<event>
 8    1  0.2530183E-006  0.9118800E+02  0.7816164E-02  0.1184000E+00
        -11   -1    0    0    0    0  0.00000000000E+00  0.00000000000E+00  0.45593999997E+02  0.45594000000E+02  0.51100000000E-03 0.  1.
         11   -1    0    0    0    0 -0.00000000000E+00 -0.00000000000E+00 -0.45593999997E+02  0.45594000000E+02  0.51100000000E-03 0. -1.
         23    2    1    2    0    0  0.71054273576E-14  0.88817841970E-15  0.35527136788E-14  0.91188000000E+02  0.91188000000E+02 0.  0.
    9900012    2    3    3    0    0 -0.32263832654E+02 -0.10732498471E+01 -0.17710809766E+02  0.54367088206E+02  0.40000009183E+02 0.  0.
        -12    1    3    3    0    0  0.32263832654E+02  0.10732498471E+01  0.17710809766E+02  0.36820911794E+02  0.00000000000E+00 0.  1.
         11    1    4    4    0    0 -0.13504978135E+02  0.55230731160E+01 -0.19633454190E+01  0.14722210994E+02  0.51100000000E-03 0. -1.
        -11    1    4    4    0    0 -0.23064380752E+02 -0.94426823000E+01 -0.20492827646E+01  0.25006588504E+02  0.51100000000E-03 0.  1.
        -12    1    4    4    0    0  0.43055262328E+01  0.28463593368E+01 -0.13698181583E+02  0.14638288708E+02  0.00000000000E+00 0.  1.
</event>
<event>
 8    1  0.2530183E-006  0.9118800E+02  0.7816164E-02  0.1184000E+00
        -11   -1    0    0    0    0  0.00000000000E+00  0.00000000000E+00  0.45593999997E+02  0.45594000000E+02  0.51100000000E-03 0.  1.
         11   -1    0    0    0    0 -0.00000000000E+00 -0.00000000000E+00 -0.45593999997E+02  0.45594000000E+02  0.51100000000E-03 0. -1.
         23    2    1    2    0    0  0.00000000000E+00  0.00000000000E+00  0.00000000000E+00  0.91188000000E+02  0.91188000000E+02 0.  0.
    9900012    2    3    3    0    0 -0.11050834952E+02 -0.80623196078E+01 -0.34185617607E+02  0.54367103735E+02  0.40000044585E+02 0.  0.
        -12    1    3    3    0    0  0.11050834952E+02  0.80623196078E+01  0.34185617607E+02  0.36820896265E+02  0.00000000000E+00 0.  1.
         11    1    4    4    0    0  0.28758858435E+01 -0.11568717287E+02 -0.10230317120E+02  0.15708765951E+02  0.51100000000E-03 0. -1.
        -11    1    4    4    0    0  0.20643485504E+01  0.13851939696E+01 -0.22304869275E+02  0.22442983111E+02  0.51100000000E-03 0.  1.
        -12    1    4    4    0    0 -0.15991069346E+02  0.21212037097E+01 -0.16504312116E+01  0.16215354673E+02  0.00000000000E+00 0.  1.
</event>
<event>
 8    1  0.2530183E-006  0.9118800E+02  0.7816164E-02  0.1184000E+00
        -11   -1    0    0    0    0  0.00000000000E+00  0.00000000000E+00  0.45593999997E+02  0.45594000000E+02  0.51100000000E-03 0. -1.
         11   -1    0    0    0    0 -0.00000000000E+00 -0.00000000000E+00 -0.45593999997E+02  0.45594000000E+02  0.51100000000E-03 0.  1.
         23    2    1    2    0    0 -0.88817841970E-15 -0.66613381478E-15  0.00000000000E+00  0.91188000000E+02  0.91188000000E+02 0.  0.
    9900012    2    3    3    0    0  0.23558452878E+01  0.17765844708E+01 -0.36702503448E+02  0.54367081777E+02  0.39999994527E+02 0.  0.
         12    1    3    3    0    0 -0.23558452878E+01 -0.17765844708E+01  0.36702503448E+02  0.36820918223E+02  0.00000000000E+00 0. -1.
         11    1    4    4    0    0  0.13160809355E+02  0.80100730226E+01 -0.20557874627E+02  0.25690355820E+02  0.51100000000E-03 0. -1.
        -11    1    4    4    0    0 -0.94525655671E+01  0.14199996368E+00  0.17660069527E+01  0.96171690537E+01  0.51100000000E-03 0.  1.
        -12    1    4    4    0    0 -0.13523985006E+01 -0.63754885155E+01 -0.17910635774E+02  0.19059556903E+02  0.00000000000E+00 0.  1.
</event>
<event>
 8    1  0.2530183E-006  0.9118800E+02  0.7816164E-02  0.1184000E+00
        -11   -1    0    0    0    0  0.00000000000E+00  0.00000000000E+00  0.45593999997E+02  0.45594000000E+02  0.51100000000E-03 0. -1.
         11   -1    0    0    0    0 -0.00000000000E+00 -0.00000000000E+00 -0.45593999997E+02  0.45594000000E+02  0.51100000000E-03 0.  1.
         23    2    1    2    0    0 -0.71054273576E-14 -0.17763568394E-14 -0.44408920985E-15  0.91188000000E+02  0.91188000000E+02 0.  0.
    9900012    2    3    3    0    0  0.34501650834E+02  0.12640620084E+02  0.23731518790E+01  0.54367067960E+02  0.39999963030E+02 0.  0.
        -12    1    3    3    0    0 -0.34501650834E+02 -0.12640620084E+02 -0.23731518790E+01  0.36820932040E+02  0.00000000000E+00 0.  1.
         11    1    4    4    0    0  0.25066955298E+02  0.31658243146E+01 -0.49628458997E+01  0.25748874367E+02  0.51100000000E-03 0. -1.
        -11    1    4    4    0    0 -0.15495358065E+01 -0.56588248796E+00  0.12694359303E+02  0.12801095367E+02  0.51100000000E-03 0.  1.
        -12    1    4    4    0    0  0.10984231343E+02  0.10040678258E+02 -0.53583615247E+01  0.15817098226E+02  0.00000000000E+00 0.  1.
</event>
<event>
 8    1  0.2530183E-006  0.9118800E+02  0.7816164E-02  0.1184000E+00
        -11   -1    0    0    0    0  0.00000000000E+00  0.00000000000E+00  0.45593999997E+02  0.45594000000E+02  0.51100000000E-03 0. -1.
         11   -1    0    0    0    0 -0.00000000000E+00 -0.00000000000E+00 -0.45593999997E+02  0.45594000000E+02  0.51100000000E-03 0.  1.
         23    2    1    2    0    0  0.00000000000E+00  0.00000000000E+00 -0.11102230246E-14  0.91188000000E+02  0.91188000000E+02 0.  0.
    9900012    2    3    3    0    0  0.36438012490E+02  0.51689973502E+01  0.11543702218E+01  0.54367083954E+02  0.39999999490E+02 0.  0.
         12    1    3    3    0    0 -0.36438012490E+02 -0.51689973502E+01 -0.11543702218E+01  0.36820916046E+02  0.00000000000E+00 0. -1.
         11    1    4    4    0    0  0.10853880541E+02 -0.61423659644E+01  0.12507912989E+02  0.17663048153E+02  0.51100000000E-03 0. -1.
        -11    1    4    4    0    0  0.26598896268E+02  0.36137050351E+01 -0.10751938631E+02  0.28916506209E+02  0.51100000000E-03 0.  1.
        -12    1    4    4    0    0 -0.10147643184E+01  0.76976582795E+01 -0.60160413603E+00  0.77875295920E+01  0.00000000000E+00 0.  1.
</event>
<event>
 8    1  0.2530183E-006  0.9118800E+02  0.7816164E-02  0.1184000E+00
        -11   -1    0    0    0    0  0.00000000000E+00  0.00000000000E+00  0.45593999997E+02  0.45594000000E+02  0.51100000000E-03 0. -1.
         11   -1    0    0    0    0 -0.00000000000E+00 -0.00000000000E+00 -0.45593999997E+02  0.45594000000E+02  0.51100000000E-03 0.  1.
         23    2    1    2    0    0  0.17763568394E-14 -0.35527136788E-14  0.35527136788E-14  0.91188000000E+02  0.91188000000E+02 0.  0.
    9900012    2    3    3    0    0 -0.43180200373E+01  0.29553580728E+02  0.21534168976E+02  0.54367083874E+02  0.39999999307E+02 0.  0.
        -12    1    3    3    0    0  0.43180200373E+01 -0.29553580728E+02 -0.21534168976E+02  0.36820916126E+02  0.00000000000E+00 0.  1.
         11    1    4    4    0    0  0.14582416371E+02  0.11052516748E+01  0.38940290806E+01  0.15133800290E+02  0.51100000000E-03 0. -1.
        -11    1    4    4    0    0 -0.12307716357E+02  0.21674247048E+02  0.16056244121E+02  0.29648875907E+02  0.51100000000E-03 0.  1.
         12    1    4    4    0    0 -0.65927200510E+01  0.67740820056E+01  0.15838957739E+01  0.95844076766E+01  0.00000000000E+00 0. -1.
</event>
<event>
 8    1  0.2530183E-006  0.9118800E+02  0.7816164E-02  0.1184000E+00
        -11   -1    0    0    0    0  0.00000000000E+00  0.00000000000E+00  0.45593999997E+02  0.45594000000E+02  0.51100000000E-03 0. -1.
         11   -1    0    0    0    0 -0.00000000000E+00 -0.00000000000E+00 -0.45593999997E+02  0.45594000000E+02  0.51100000000E-03 0.  1.
         23    2    1    2    0    0 -0.35527136788E-14 -0.35527136788E-14  0.00000000000E+00  0.91188000000E+02  0.91188000000E+02 0.  0.
    9900012    2    3    3    0    0 -0.17318228769E+02  0.31696695148E+02 -0.71539869135E+01  0.54367067641E+02  0.39999962302E+02 0.  0.
         12    1    3    3    0    0  0.17318228769E+02 -0.31696695148E+02  0.71539869135E+01  0.36820932359E+02  0.00000000000E+00 0. -1.
         11    1    4    4    0    0 -0.10489058643E-01 -0.31590856483E+01 -0.83557374900E+01  0.89329883810E+01  0.51100000000E-03 0. -1.
        -11    1    4    4    0    0 -0.18098771121E+02  0.14414037647E+02 -0.57271132025E+01  0.23835474052E+02  0.51100000000E-03 0.  1.
         12    1    4    4    0    0  0.79103141065E+00  0.20441743149E+02  0.69288637789E+01  0.21598605208E+02  0.00000000000E+00 0. -1.
</event>
<event>
 8    1  0.2530183E-006  0.9118800E+02  0.7816164E-02  0.1184000E+00
        -11   -1    0    0    0    0  0.00000000000E+00  0.00000000000E+00  0.45593999997E+02  0.45594000000E+02  0.51100000000E-03 0.  1.
         11   -1    0    0    0    0 -0.00000000000E+00 -0.00000000000E+00 -0.45593999997E+02  0.45594000000E+02  0.51100000000E-03 0. -1.
         23    2    1    2    0    0  0.00000000000E+00  0.53290705182E-14 -0.55511151231E-15  0.91188000000E+02  0.91188000000E+02 0.  0.
    9900012    2    3    3    0    0  0.33159185158E+02  0.15984709740E+02  0.85904538209E+00  0.54367075720E+02  0.39999980720E+02 0.  0.
        -12    1    3    3    0    0 -0.33159185158E+02 -0.15984709740E+02 -0.85904538209E+00  0.36820924280E+02  0.00000000000E+00 0.  1.
         11    1    4    4    0    0  0.42328159233E+01 -0.35656540077E+01 -0.26457831612E+01  0.61343938527E+01  0.51100000000E-03 0. -1.
        -11    1    4    4    0    0  0.88144350724E+01 -0.18386055142E+01  0.14344299148E+02  0.16936164093E+02  0.51100000000E-03 0.  1.
         12    1    4    4    0    0  0.20111934163E+02  0.21388969262E+02 -0.10839470604E+02  0.31296517775E+02  0.00000000000E+00 0. -1.
</event>
<event>
 8    1  0.2530183E-006  0.9118800E+02  0.7816164E-02  0.1184000E+00
        -11   -1    0    0    0    0  0.00000000000E+00  0.00000000000E+00  0.45593999997E+02  0.45594000000E+02  0.51100000000E-03 0. -1.
         11   -1    0    0    0    0 -0.00000000000E+00 -0.00000000000E+00 -0.45593999997E+02  0.45594000000E+02  0.51100000000E-03 0.  1.
         23    2    1    2    0    0  0.16653345369E-15  0.00000000000E+00  0.00000000000E+00  0.91188000000E+02  0.91188000000E+02 0.  0.
    9900012    2    3    3    0    0  0.31904940233E+00  0.22610740056E+02  0.29059126191E+02  0.54367079678E+02  0.39999989741E+02 0.  0.
        -12    1    3    3    0    0 -0.31904940233E+00 -0.22610740056E+02 -0.29059126191E+02  0.36820920322E+02  0.00000000000E+00 0.  1.
         11    1    4    4    0    0 -0.50609613671E+01  0.16307440112E+02  0.85193138464E+01  0.19082050247E+02  0.51100000000E-03 0. -1.
        -11    1    4    4    0    0  0.25852454472E+01  0.14955064223E+02  0.21308267803E+02  0.26160652074E+02  0.51100000000E-03 0.  1.
        -12    1    4    4    0    0  0.27947653222E+01 -0.86517642790E+01 -0.76845545787E+00  0.91243773561E+01  0.00000000000E+00 0.  1.
</event>
<event>
 8    1  0.2530183E-006  0.9118800E+02  0.7816164E-02  0.1184000E+00
        -11   -1    0    0    0    0  0.00000000000E+00  0.00000000000E+00  0.45593999997E+02  0.45594000000E+02  0.51100000000E-03 0. -1.
         11   -1    0    0    0    0 -0.00000000000E+00 -0.00000000000E+00 -0.45593999997E+02  0.45594000000E+02  0.51100000000E-03 0.  1.
         23    2    1    2    0    0  0.17763568394E-14  0.00000000000E+00  0.00000000000E+00  0.91188000000E+02  0.91188000000E+02 0.  0.
    9900012    2    3    3    0    0  0.13115932358E+02  0.33340863767E+02 -0.84935308338E+01  0.54367069208E+02  0.39999965874E+02 0.  0.
         12    1    3    3    0    0 -0.13115932358E+02 -0.33340863767E+02  0.84935308338E+01  0.36820930792E+02  0.00000000000E+00 0. -1.
         11    1    4    4    0    0  0.42547255066E+01  0.41550224685E+01  0.94268978153E+01  0.11145999441E+02  0.51100000000E-03 0. -1.
        -11    1    4    4    0    0 -0.64111144350E+01  0.15739958966E+02 -0.14993196439E+02  0.22663729532E+02  0.51100000000E-03 0.  1.
        -12    1    4    4    0    0  0.15272321287E+02  0.13445882332E+02 -0.29272322096E+01  0.20557340236E+02  0.00000000000E+00 0.  1.
</event>
<event>
 8    1  0.2530183E-006  0.9118800E+02  0.7816164E-02  0.1184000E+00
        -11   -1    0    0    0    0  0.00000000000E+00  0.00000000000E+00  0.45593999997E+02  0.45594000000E+02  0.51100000000E-03 0. -1.
         11   -1    0    0    0    0 -0.00000000000E+00 -0.00000000000E+00 -0.45593999997E+02  0.45594000000E+02  0.51100000000E-03 0.  1.
         23    2    1    2    0    0 -0.17763568394E-14  0.00000000000E+00  0.88817841970E-15  0.91188000000E+02  0.91188000000E+02 0.  0.
    9900012    2    3    3    0    0  0.92954326881E+01  0.35234333240E+02  0.52836327129E+01  0.54367080913E+02  0.39999992558E+02 0.  0.
        -12    1    3    3    0    0 -0.92954326881E+01 -0.35234333240E+02 -0.52836327129E+01  0.36820919087E+02  0.00000000000E+00 0.  1.
         11    1    4    4    0    0  0.16522488877E+02  0.28512194648E+02  0.54230835192E+01  0.33396821966E+02  0.51100000000E-03 0. -1.
        -11    1    4    4    0    0 -0.86013814103E+01  0.10618824591E+01 -0.75849543089E+01  0.11517069447E+02  0.51100000000E-03 0.  1.
        -12    1    4    4    0    0  0.13743252214E+01  0.56602561333E+01  0.74455035025E+01  0.94531894996E+01  0.00000000000E+00 0.  1.
</event>
<event>
 8    1  0.2530183E-006  0.9118800E+02  0.7816164E-02  0.1184000E+00
        -11   -1    0    0    0    0  0.00000000000E+00  0.00000000000E+00  0.45593999997E+02  0.45594000000E+02  0.51100000000E-03 0.  1.
         11   -1    0    0    0    0 -0.00000000000E+00 -0.00000000000E+00 -0.45593999997E+02  0.45594000000E+02  0.51100000000E-03 0. -1.
         23    2    1    2    0    0  0.00000000000E+00 -0.99920072216E-15  0.00000000000E+00  0.91188000000E+02  0.91188000000E+02 0.  0.
    9900012    2    3    3    0    0 -0.16389699044E+02  0.88462052514E+00 -0.32960205812E+02  0.54367082637E+02  0.39999996489E+02 0.  0.
        -12    1    3    3    0    0  0.16389699044E+02 -0.88462052514E+00  0.32960205812E+02  0.36820917363E+02  0.00000000000E+00 0.  1.
         11    1    4    4    0    0 -0.10301460710E+02 -0.83817891802E+01 -0.14108268452E+02  0.19375699254E+02  0.51100000000E-03 0. -1.
        -11    1    4    4    0    0  0.56948945925E+01  0.18838718890E+01  0.47139890868E+01  0.76290557139E+01  0.51100000000E-03 0.  1.
         12    1    4    4    0    0 -0.11783132927E+02  0.73825378164E+01 -0.23565926447E+02  0.27362327669E+02  0.00000000000E+00 0. -1.
</event>
<event>
 8    1  0.2530183E-006  0.9118800E+02  0.7816164E-02  0.1184000E+00
        -11   -1    0    0    0    0  0.00000000000E+00  0.00000000000E+00  0.45593999997E+02  0.45594000000E+02  0.51100000000E-03 0.  1.
         11   -1    0    0    0    0 -0.00000000000E+00 -0.00000000000E+00 -0.45593999997E+02  0.45594000000E+02  0.51100000000E-03 0. -1.
         23    2    1    2    0    0  0.00000000000E+00  0.00000000000E+00  0.35527136788E-14  0.91188000000E+02  0.91188000000E+02 0.  0.
    9900012    2    3    3    0    0 -0.29030746515E+01  0.21117146691E+02 -0.30023536454E+02  0.54367157153E+02  0.40000166360E+02 0.  0.
        -12    1    3    3    0    0  0.29030746515E+01 -0.21117146691E+02  0.30023536454E+02  0.36820842847E+02  0.00000000000E+00 0.  1.
         11    1    4    4    0    0  0.20195057773E+01  0.21029708661E+01 -0.10656437599E+01  0.31042691463E+01  0.51100000000E-03 0. -1.
        -11    1    4    4    0    0 -0.17411913495E+01 -0.10296197397E+02 -0.76557334795E+00  0.10470412168E+02  0.51100000000E-03 0.  1.
         12    1    4    4    0    0 -0.31813890793E+01  0.29310373222E+02 -0.28192319346E+02  0.40792475838E+02  0.00000000000E+00 0. -1.
</event>
<event>
 8    1  0.2530183E-006  0.9118800E+02  0.7816164E-02  0.1184000E+00
        -11   -1    0    0    0    0  0.00000000000E+00  0.00000000000E+00  0.45593999997E+02  0.45594000000E+02  0.51100000000E-03 0. -1.
         11   -1    0    0    0    0 -0.00000000000E+00 -0.00000000000E+00 -0.45593999997E+02  0.45594000000E+02  0.51100000000E-03 0.  1.
         23    2    1    2    0    0  0.00000000000E+00  0.00000000000E+00 -0.35527136788E-14  0.91188000000E+02  0.91188000000E+02 0.  0.
    9900012    2    3    3    0    0 -0.14033472202E+02  0.15089346901E+02  0.30514803531E+02  0.54367082488E+02  0.39999996147E+02 0.  0.
        -12    1    3    3    0    0  0.14033472202E+02 -0.15089346901E+02 -0.30514803531E+02  0.36820917512E+02  0.00000000000E+00 0.  1.
         11    1    4    4    0    0 -0.53429498770E+01  0.16954045350E+02  0.22883387797E+02  0.28976476743E+02  0.51100000000E-03 0. -1.
        -11    1    4    4    0    0 -0.91558957245E+01  0.61214490731E+01  0.11989872463E+02  0.16280651314E+02  0.51100000000E-03 0.  1.
        -12    1    4    4    0    0  0.46537339956E+00 -0.79861475230E+01 -0.43584567292E+01  0.91099544302E+01  0.00000000000E+00 0.  1.
</event>
<event>
 8    1  0.2530183E-006  0.9118800E+02  0.7816164E-02  0.1184000E+00
        -11   -1    0    0    0    0  0.00000000000E+00  0.00000000000E+00  0.45593999997E+02  0.45594000000E+02  0.51100000000E-03 0.  1.
         11   -1    0    0    0    0 -0.00000000000E+00 -0.00000000000E+00 -0.45593999997E+02  0.45594000000E+02  0.51100000000E-03 0. -1.
         23    2    1    2    0    0  0.00000000000E+00 -0.88817841970E-15  0.00000000000E+00  0.91188000000E+02  0.91188000000E+02 0.  0.
    9900012    2    3    3    0    0  0.21846254388E+02 -0.64101609471E+01  0.28938378469E+02  0.54367099107E+02  0.40000034035E+02 0.  0.
         12    1    3    3    0    0 -0.21846254388E+02  0.64101609471E+01 -0.28938378469E+02  0.36820900893E+02  0.00000000000E+00 0. -1.
         11    1    4    4    0    0  0.21518700043E+02 -0.25113587727E+01  0.52659642251E+01  0.22295554577E+02  0.51100000000E-03 0. -1.
        -11    1    4    4    0    0  0.30701701364E+01 -0.14651165871E+01  0.26943744766E+02  0.27157648896E+02  0.51100000000E-03 0.  1.
        -12    1    4    4    0    0 -0.27426157911E+01 -0.24336855872E+01 -0.32713305226E+01  0.49138956342E+01  0.00000000000E+00 0.  1.
</event>
<event>
 8    1  0.2530183E-006  0.9118800E+02  0.7816164E-02  0.1184000E+00
        -11   -1    0    0    0    0  0.00000000000E+00  0.00000000000E+00  0.45593999997E+02  0.45594000000E+02  0.51100000000E-03 0.  1.
         11   -1    0    0    0    0 -0.00000000000E+00 -0.00000000000E+00 -0.45593999997E+02  0.45594000000E+02  0.51100000000E-03 0. -1.
         23    2    1    2    0    0 -0.35527136788E-14  0.17763568394E-14  0.35527136788E-14  0.91188000000E+02  0.91188000000E+02 0.  0.
    9900012    2    3    3    0    0  0.17975264429E+02 -0.58466470951E+01 -0.31598839115E+02  0.54367081395E+02  0.39999993655E+02 0.  0.
        -12    1    3    3    0    0 -0.17975264429E+02  0.58466470951E+01  0.31598839115E+02  0.36820918605E+02  0.00000000000E+00 0.  1.
         11    1    4    4    0    0  0.67646755261E+00 -0.13696873121E+02 -0.59146021653E+01  0.14934673103E+02  0.51100000000E-03 0. -1.
        -11    1    4    4    0    0  0.14004922622E+02 -0.61756360382E+01 -0.15538986949E+02  0.21811383582E+02  0.51100000000E-03 0.  1.
        -12    1    4    4    0    0  0.32938742546E+01  0.14025862064E+02 -0.10145250001E+02  0.17621024710E+02  0.00000000000E+00 0.  1.
</event>
<event>
 8    1  0.2530183E-006  0.9118800E+02  0.7816164E-02  0.1184000E+00
        -11   -1    0    0    0    0  0.00000000000E+00  0.00000000000E+00  0.45593999997E+02  0.45594000000E+02  0.51100000000E-03 0.  1.
         11   -1    0    0    0    0 -0.00000000000E+00 -0.00000000000E+00 -0.45593999997E+02  0.45594000000E+02  0.51100000000E-03 0. -1.
         23    2    1    2    0    0  0.44408920985E-15 -0.71054273576E-14  0.35527136788E-14  0.91188000000E+02  0.91188000000E+02 0.  0.
    9900012    2    3    3    0    0 -0.10374685264E+01  0.32630798381E+02 -0.17027443504E+02  0.54367093219E+02  0.40000020610E+02 0.  0.
         12    1    3    3    0    0  0.10374685264E+01 -0.32630798381E+02  0.17027443504E+02  0.36820906781E+02  0.00000000000E+00 0. -1.
         11    1    4    4    0    0 -0.28457048675E+01 -0.65695692142E+01  0.26568657644E+00  0.71643468279E+01  0.51100000000E-03 0. -1.
        -11    1    4    4    0    0 -0.64660316832E+01  0.16740240416E+02 -0.47994196729E+00  0.17952034968E+02  0.51100000000E-03 0.  1.
        -12    1    4    4    0    0  0.82742680243E+01  0.22460127179E+02 -0.16813188113E+02  0.29250711423E+02  0.00000000000E+00 0.  1.
</event>
<event>
 8    1  0.2530183E-006  0.9118800E+02  0.7816164E-02  0.1184000E+00
        -11   -1    0    0    0    0  0.00000000000E+00  0.00000000000E+00  0.45593999997E+02  0.45594000000E+02  0.51100000000E-03 0.  1.
         11   -1    0    0    0    0 -0.00000000000E+00 -0.00000000000E+00 -0.45593999997E+02  0.45594000000E+02  0.51100000000E-03 0. -1.
         23    2    1    2    0    0  0.35527136788E-14  0.35527136788E-14 -0.19984014443E-14  0.91188000000E+02  0.91188000000E+02 0.  0.
    9900012    2    3    3    0    0  0.27764180146E+02  0.24179994049E+02  0.50789031972E+00  0.54367085238E+02  0.40000002416E+02 0.  0.
         12    1    3    3    0    0 -0.27764180146E+02 -0.24179994049E+02 -0.50789031972E+00  0.36820914762E+02  0.00000000000E+00 0. -1.
         11    1    4    4    0    0  0.90055722354E+01  0.10368261256E+02  0.16686069696E+02  0.21610786541E+02  0.51100000000E-03 0. -1.
        -11    1    4    4    0    0  0.12479321988E+02  0.14843744818E+01 -0.13894075373E+02  0.18734518292E+02  0.51100000000E-03 0.  1.
        -12    1    4    4    0    0  0.62792859221E+01  0.12327358311E+02 -0.22841040029E+01  0.14021780404E+02  0.00000000000E+00 0.  1.
</event>
<event>
 8    1  0.2530183E-006  0.9118800E+02  0.7816164E-02  0.1184000E+00
        -11   -1    0    0    0    0  0.00000000000E+00  0.00000000000E+00  0.45593999997E+02  0.45594000000E+02  0.51100000000E-03 0. -1.
         11   -1    0    0    0    0 -0.00000000000E+00 -0.00000000000E+00 -0.45593999997E+02  0.45594000000E+02  0.51100000000E-03 0.  1.
         23    2    1    2    0    0 -0.17763568394E-14 -0.88817841970E-15  0.00000000000E+00  0.91188000000E+02  0.91188000000E+02 0.  0.
    9900012    2    3    3    0    0 -0.63619326117E+01 -0.55044633911E+01  0.35846984462E+02  0.54367087480E+02  0.40000007528E+02 0.  0.
        -12    1    3    3    0    0  0.63619326117E+01  0.55044633911E+01 -0.35846984462E+02  0.36820912520E+02  0.00000000000E+00 0.  1.
         11    1    4    4    0    0 -0.22755534359E+01 -0.65588647593E+01  0.89433802496E+01  0.11321700443E+02  0.51100000000E-03 0. -1.
        -11    1    4    4    0    0  0.28746023899E+01  0.13669859989E+02  0.17779175838E+01  0.14081526984E+02  0.51100000000E-03 0.  1.
        -12    1    4    4    0    0 -0.69609815656E+01 -0.12615458621E+02  0.25125686629E+02  0.28963860052E+02  0.00000000000E+00 0.  1.
</event>
<event>
 8    1  0.2530183E-006  0.9118800E+02  0.7816164E-02  0.1184000E+00
        -11   -1    0    0    0    0  0.00000000000E+00  0.00000000000E+00  0.45593999997E+02  0.45594000000E+02  0.51100000000E-03 0. -1.
         11   -1    0    0    0    0 -0.00000000000E+00 -0.00000000000E+00 -0.45593999997E+02  0.45594000000E+02  0.51100000000E-03 0.  1.
         23    2    1    2    0    0  0.00000000000E+00  0.71054273576E-14 -0.13322676296E-14  0.91188000000E+02  0.91188000000E+02 0.  0.
    9900012    2    3    3    0    0 -0.20851269096E+02 -0.30153606168E+02  0.34302424123E+01  0.54367055541E+02  0.39999934716E+02 0.  0.
        -12    1    3    3    0    0  0.20851269096E+02  0.30153606168E+02 -0.34302424123E+01  0.36820944459E+02  0.00000000000E+00 0.  1.
         11    1    4    4    0    0 -0.37333495018E+01  0.13598465236E+01  0.31487465110E+01  0.50696830198E+01  0.51100000000E-03 0. -1.
        -11    1    4    4    0    0 -0.10814915631E+02 -0.13378860787E+02  0.16744246146E+02  0.24006792691E+02  0.51100000000E-03 0.  1.
         12    1    4    4    0    0 -0.63030039637E+01 -0.18134591905E+02 -0.16462750244E+02  0.25290579830E+02  0.00000000000E+00 0. -1.
</event>
<event>
 8    1  0.2530183E-006  0.9118800E+02  0.7816164E-02  0.1184000E+00
        -11   -1    0    0    0    0  0.00000000000E+00  0.00000000000E+00  0.45593999997E+02  0.45594000000E+02  0.51100000000E-03 0. -1.
         11   -1    0    0    0    0 -0.00000000000E+00 -0.00000000000E+00 -0.45593999997E+02  0.45594000000E+02  0.51100000000E-03 0.  1.
         23    2    1    2    0    0 -0.17763568394E-14  0.35527136788E-14  0.35527136788E-14  0.91188000000E+02  0.91188000000E+02 0.  0.
    9900012    2    3    3    0    0  0.76913630701E+01 -0.21795879614E+02 -0.28662949990E+02  0.54367053025E+02  0.39999928981E+02 0.  0.
         12    1    3    3    0    0 -0.76913630701E+01  0.21795879614E+02  0.28662949990E+02  0.36820946975E+02  0.00000000000E+00 0. -1.
         11    1    4    4    0    0  0.13966613025E+02 -0.20375599527E+02 -0.69258191833E+01  0.25655375794E+02  0.51100000000E-03 0. -1.
        -11    1    4    4    0    0 -0.12208327201E+02 -0.15450251359E+00 -0.17391342174E+02  0.21249138969E+02  0.51100000000E-03 0.  1.
        -12    1    4    4    0    0  0.59330772459E+01 -0.12657775728E+01 -0.43457886329E+01  0.74625382619E+01  0.00000000000E+00 0.  1.
</event>
<event>
 8    1  0.2530183E-006  0.9118800E+02  0.7816164E-02  0.1184000E+00
        -11   -1    0    0    0    0  0.00000000000E+00  0.00000000000E+00  0.45593999997E+02  0.45594000000E+02  0.51100000000E-03 0.  1.
         11   -1    0    0    0    0 -0.00000000000E+00 -0.00000000000E+00 -0.45593999997E+02  0.45594000000E+02  0.51100000000E-03 0. -1.
         23    2    1    2    0    0  0.00000000000E+00  0.00000000000E+00  0.00000000000E+00  0.91188000000E+02  0.91188000000E+02 0.  0.
    9900012    2    3    3    0    0 -0.17752193765E+02 -0.20770416563E+02 -0.24682542779E+02  0.54367102323E+02  0.40000041366E+02 0.  0.
        -12    1    3    3    0    0  0.17752193765E+02  0.20770416563E+02  0.24682542779E+02  0.36820897677E+02  0.00000000000E+00 0.  1.
         11    1    4    4    0    0 -0.13379728574E+02 -0.38532154300E+01 -0.18782006230E+02  0.23380080499E+02  0.51100000000E-03 0. -1.
        -11    1    4    4    0    0 -0.81634618491E+01 -0.12472343926E+02 -0.14365484461E+02  0.20701898860E+02  0.51100000000E-03 0.  1.
        -12    1    4    4    0    0  0.37909966584E+01 -0.44448572066E+01  0.84649479108E+01  0.10285122964E+02  0.00000000000E+00 0.  1.
</event>
<event>
 8    1  0.2530183E-006  0.9118800E+02  0.7816164E-02  0.1184000E+00
        -11   -1    0    0    0    0  0.00000000000E+00  0.00000000000E+00  0.45593999997E+02  0.45594000000E+02  0.51100000000E-03 0.  1.
         11   -1    0    0    0    0 -0.00000000000E+00 -0.00000000000E+00 -0.45593999997E+02  0.45594000000E+02  0.51100000000E-03 0. -1.
         23    2    1    2    0    0  0.35527136788E-14  0.00000000000E+00  0.00000000000E+00  0.91188000000E+02  0.91188000000E+02 0.  0.
    9900012    2    3    3    0    0 -0.24357613933E+02 -0.26482980093E+02 -0.78190971076E+01  0.54367083788E+02  0.39999999112E+02 0.  0.
         12    1    3    3    0    0  0.24357613933E+02  0.26482980093E+02  0.78190971076E+01  0.36820916212E+02  0.00000000000E+00 0. -1.
         11    1    4    4    0    0  0.29103873239E+01  0.32713351180E-01 -0.12389212395E+02  0.12726508106E+02  0.51100000000E-03 0. -1.
        -11    1    4    4    0    0 -0.56564508848E+01 -0.13152140719E+02 -0.39308283377E+01  0.14846738826E+02  0.51100000000E-03 0.  1.
         12    1    4    4    0    0 -0.21611550372E+02 -0.13363552726E+02  0.85009436254E+01  0.26793836856E+02  0.00000000000E+00 0. -1.
</event>
<event>
 8    1  0.2530183E-006  0.9118800E+02  0.7816164E-02  0.1184000E+00
        -11   -1    0    0    0    0  0.00000000000E+00  0.00000000000E+00  0.45593999997E+02  0.45594000000E+02  0.51100000000E-03 0. -1.
         11   -1    0    0    0    0 -0.00000000000E+00 -0.00000000000E+00 -0.45593999997E+02  0.45594000000E+02  0.51100000000E-03 0.  1.
         23    2    1    2    0    0  0.00000000000E+00  0.00000000000E+00  0.00000000000E+00  0.91188000000E+02  0.91188000000E+02 0.  0.
    9900012    2    3    3    0    0 -0.66530974722E+01  0.39826337713E+01 -0.35995207221E+02  0.54367081752E+02  0.39999994470E+02 0.  0.
         12    1    3    3    0    0  0.66530974722E+01 -0.39826337713E+01  0.35995207221E+02  0.36820918248E+02  0.00000000000E+00 0. -1.
         11    1    4    4    0    0 -0.37373348672E+01 -0.16842756876E+02 -0.14190524254E+02  0.22338690874E+02  0.51100000000E-03 0. -1.
        -11    1    4    4    0    0 -0.41675220428E+01  0.10352754648E+02 -0.17237481586E+02  0.20534812891E+02  0.51100000000E-03 0.  1.
         12    1    4    4    0    0  0.12517594377E+01  0.10472636000E+02 -0.45672013804E+01  0.11493577986E+02  0.00000000000E+00 0. -1.
</event>
<event>
 8    1  0.2530183E-006  0.9118800E+02  0.7816164E-02  0.1184000E+00
        -11   -1    0    0    0    0  0.00000000000E+00  0.00000000000E+00  0.45593999997E+02  0.45594000000E+02  0.51100000000E-03 0.  1.
         11   -1    0    0    0    0 -0.00000000000E+00 -0.00000000000E+00 -0.45593999997E+02  0.45594000000E+02  0.51100000000E-03 0. -1.
         23    2    1    2    0    0  0.00000000000E+00 -0.35527136788E-14  0.17763568394E-14  0.91188000000E+02  0.91188000000E+02 0.  0.
    9900012    2    3    3    0    0 -0.27369084428E+02 -0.21923095187E+02  0.11229018930E+02  0.54367085411E+02  0.40000002812E+02 0.  0.
        -12    1    3    3    0    0  0.27369084428E+02  0.21923095187E+02 -0.11229018930E+02  0.36820914589E+02  0.00000000000E+00 0.  1.
         11    1    4    4    0    0 -0.35328100303E+01 -0.59048699521E+01 -0.51414065362E+01  0.85896622340E+01  0.51100000000E-03 0. -1.
        -11    1    4    4    0    0 -0.15068647567E+02  0.75605200933E+01  0.24777979390E+01  0.17040102302E+02  0.51100000000E-03 0.  1.
         12    1    4    4    0    0 -0.87676268312E+01 -0.23578745328E+02  0.13892627527E+02  0.28737320875E+02  0.00000000000E+00 0. -1.
</event>
<event>
 8    1  0.2530183E-006  0.9118800E+02  0.7816164E-02  0.1184000E+00
        -11   -1    0    0    0    0  0.00000000000E+00  0.00000000000E+00  0.45593999997E+02  0.45594000000E+02  0.51100000000E-03 0.  1.
         11   -1    0    0    0    0 -0.00000000000E+00 -0.00000000000E+00 -0.45593999997E+02  0.45594000000E+02  0.51100000000E-03 0. -1.
         23    2    1    2    0    0  0.88817841970E-15 -0.17763568394E-14 -0.71054273576E-14  0.91188000000E+02  0.91188000000E+02 0.  0.
    9900012    2    3    3    0    0 -0.47853598254E+01  0.10488116287E+02  0.34969703071E+02  0.54367076807E+02  0.39999983197E+02 0.  0.
         12    1    3    3    0    0  0.47853598254E+01 -0.10488116287E+02 -0.34969703071E+02  0.36820923193E+02  0.00000000000E+00 0. -1.
         11    1    4    4    0    0  0.44777495700E+01  0.23648042874E+01  0.11884795652E+02  0.12918626416E+02  0.51100000000E-03 0. -1.
        -11    1    4    4    0    0 -0.11335654291E+02  0.10479497861E+02  0.30064259445E+02  0.33796103767E+02  0.51100000000E-03 0.  1.
         12    1    4    4    0    0  0.20725448951E+01 -0.23561858613E+01 -0.69793520257E+01  0.76523466240E+01  0.00000000000E+00 0. -1.
</event>
<event>
 8    1  0.2530183E-006  0.9118800E+02  0.7816164E-02  0.1184000E+00
        -11   -1    0    0    0    0  0.00000000000E+00  0.00000000000E+00  0.45593999997E+02  0.45594000000E+02  0.51100000000E-03 0. -1.
         11   -1    0    0    0    0 -0.00000000000E+00 -0.00000000000E+00 -0.45593999997E+02  0.45594000000E+02  0.51100000000E-03 0.  1.
         23    2    1    2    0    0  0.35527136788E-14  0.00000000000E+00 -0.18041124150E-15  0.91188000000E+02  0.91188000000E+02 0.  0.
    9900012    2    3    3    0    0 -0.21378534477E+02 -0.29978851786E+02 -0.69803254853E-01  0.54367106973E+02  0.40000051967E+02 0.  0.
        -12    1    3    3    0    0  0.21378534477E+02  0.29978851786E+02  0.69803254853E-01  0.36820893027E+02  0.00000000000E+00 0.  1.
         11    1    4    4    0    0  0.25154010725E+01 -0.18383459775E+02  0.17176714022E+01  0.18634087881E+02  0.51100000000E-03 0. -1.
        -11    1    4    4    0    0 -0.19859424035E+02  0.33750568309E+01 -0.17611525883E+00  0.20144943496E+02  0.51100000000E-03 0.  1.
        -12    1    4    4    0    0 -0.40345115144E+01 -0.14970448842E+02 -0.16113593982E+01  0.15588075597E+02  0.00000000000E+00 0.  1.
</event>
<event>
 8    1  0.2530183E-006  0.9118800E+02  0.7816164E-02  0.1184000E+00
        -11   -1    0    0    0    0  0.00000000000E+00  0.00000000000E+00  0.45593999997E+02  0.45594000000E+02  0.51100000000E-03 0.  1.
         11   -1    0    0    0    0 -0.00000000000E+00 -0.00000000000E+00 -0.45593999997E+02  0.45594000000E+02  0.51100000000E-03 0. -1.
         23    2    1    2    0    0  0.00000000000E+00  0.71054273576E-14  0.00000000000E+00  0.91188000000E+02  0.91188000000E+02 0.  0.
    9900012    2    3    3    0    0 -0.16449908182E+02  0.32848382479E+02  0.24829082052E+01  0.54367074647E+02  0.39999978273E+02 0.  0.
        -12    1    3    3    0    0  0.16449908182E+02 -0.32848382479E+02 -0.24829082052E+01  0.36820925353E+02  0.00000000000E+00 0.  1.
         11    1    4    4    0    0 -0.10857449397E+02  0.28117510230E+02  0.32761955112E+01  0.30318509961E+02  0.51100000000E-03 0. -1.
        -11    1    4    4    0    0  0.71805931957E+01  0.71981616012E+01 -0.35149332484E+01  0.10757750930E+02  0.51100000000E-03 0.  1.
         12    1    4    4    0    0 -0.12773051981E+02 -0.24672893522E+01  0.27216459424E+01  0.13290813756E+02  0.00000000000E+00 0. -1.
</event>
<event>
 8    1  0.2530183E-006  0.9118800E+02  0.7816164E-02  0.1184000E+00
        -11   -1    0    0    0    0  0.00000000000E+00  0.00000000000E+00  0.45593999997E+02  0.45594000000E+02  0.51100000000E-03 0.  1.
         11   -1    0    0    0    0 -0.00000000000E+00 -0.00000000000E+00 -0.45593999997E+02  0.45594000000E+02  0.51100000000E-03 0. -1.
         23    2    1    2    0    0  0.00000000000E+00 -0.71054273576E-14 -0.53290705182E-14  0.91188000000E+02  0.91188000000E+02 0.  0.
    9900012    2    3    3    0    0  0.24597224165E+01 -0.35779540951E+02 -0.83399330818E+01  0.54367078381E+02  0.39999986786E+02 0.  0.
         12    1    3    3    0    0 -0.24597224165E+01  0.35779540951E+02  0.83399330818E+01  0.36820921619E+02  0.00000000000E+00 0. -1.
         11    1    4    4    0    0  0.11774974246E+02 -0.14924674982E+02 -0.12914438273E+02  0.22982137803E+02  0.51100000000E-03 0. -1.
        -11    1    4    4    0    0  0.23158715998E+01 -0.19114034427E+02  0.21128891255E+01  0.19369405620E+02  0.51100000000E-03 0.  1.
        -12    1    4    4    0    0 -0.11631123430E+02 -0.17408315424E+01  0.24616160659E+01  0.12015534959E+02  0.00000000000E+00 0.  1.
</event>
<event>
 8    1  0.2530183E-006  0.9118800E+02  0.7816164E-02  0.1184000E+00
        -11   -1    0    0    0    0  0.00000000000E+00  0.00000000000E+00  0.45593999997E+02  0.45594000000E+02  0.51100000000E-03 0.  1.
         11   -1    0    0    0    0 -0.00000000000E+00 -0.00000000000E+00 -0.45593999997E+02  0.45594000000E+02  0.51100000000E-03 0. -1.
         23    2    1    2    0    0  0.00000000000E+00  0.00000000000E+00  0.00000000000E+00  0.91188000000E+02  0.91188000000E+02 0.  0.
    9900012    2    3    3    0    0  0.13146345038E+02  0.24478268678E+02  0.24161290491E+02  0.54367082256E+02  0.39999995619E+02 0.  0.
         12    1    3    3    0    0 -0.13146345038E+02 -0.24478268678E+02 -0.24161290491E+02  0.36820917744E+02  0.00000000000E+00 0. -1.
         11    1    4    4    0    0  0.23049440666E+02  0.36386426634E+01  0.10233733205E+02  0.25480300843E+02  0.51100000000E-03 0. -1.
        -11    1    4    4    0    0  0.99258211113E+00  0.91377604254E+01  0.64944413273E+01  0.11254405948E+02  0.51100000000E-03 0.  1.
         12    1    4    4    0    0 -0.10895677740E+02  0.11701865589E+02  0.74331159589E+01  0.17632375465E+02  0.00000000000E+00 0. -1.
</event>
<event>
 8    1  0.2530183E-006  0.9118800E+02  0.7816164E-02  0.1184000E+00
        -11   -1    0    0    0    0  0.00000000000E+00  0.00000000000E+00  0.45593999997E+02  0.45594000000E+02  0.51100000000E-03 0.  1.
         11   -1    0    0    0    0 -0.00000000000E+00 -0.00000000000E+00 -0.45593999997E+02  0.45594000000E+02  0.51100000000E-03 0. -1.
         23    2    1    2    0    0  0.17763568394E-14  0.35527136788E-14  0.71054273576E-14  0.91188000000E+02  0.91188000000E+02 0.  0.
    9900012    2    3    3    0    0 -0.11985658013E+02 -0.22143054473E+02 -0.26866502599E+02  0.54367084458E+02  0.40000000640E+02 0.  0.
        -12    1    3    3    0    0  0.11985658013E+02  0.22143054473E+02  0.26866502599E+02  0.36820915542E+02  0.00000000000E+00 0.  1.
         11    1    4    4    0    0  0.23687349305E+01 -0.40746146890E+01 -0.41574848724E+01  0.62847490611E+01  0.51100000000E-03 0. -1.
        -11    1    4    4    0    0  0.96649687557E+01 -0.73436843430E+00  0.15237824778E+01  0.98118719593E+01  0.51100000000E-03 0.  1.
         12    1    4    4    0    0 -0.24019361700E+02 -0.17334071350E+02 -0.24232800204E+02  0.38270463438E+02  0.00000000000E+00 0. -1.
</event>
<event>
 8    1  0.2530183E-006  0.9118800E+02  0.7816164E-02  0.1184000E+00
        -11   -1    0    0    0    0  0.00000000000E+00  0.00000000000E+00  0.45593999997E+02  0.45594000000E+02  0.51100000000E-03 0. -1.
         11   -1    0    0    0    0 -0.00000000000E+00 -0.00000000000E+00 -0.45593999997E+02  0.45594000000E+02  0.51100000000E-03 0.  1.
         23    2    1    2    0    0  0.00000000000E+00  0.17763568394E-14  0.00000000000E+00  0.91188000000E+02  0.91188000000E+02 0.  0.
    9900012    2    3    3    0    0  0.34119466198E+02 -0.13096494427E+02  0.44872970774E+01  0.54366919421E+02  0.39999624403E+02 0.  0.
         12    1    3    3    0    0 -0.34119466198E+02  0.13096494427E+02 -0.44872970774E+01  0.36821080579E+02  0.00000000000E+00 0. -1.
         11    1    4    4    0    0  0.10098065309E+02  0.13931895806E+02  0.32491942531E+01  0.17510736914E+02  0.51100000000E-03 0. -1.
        -11    1    4    4    0    0  0.39648090135E+01 -0.38031890112E+01 -0.23201674463E+01  0.59638187773E+01  0.51100000000E-03 0.  1.
         12    1    4    4    0    0  0.20056591876E+02 -0.23225201222E+02  0.35582702706E+01  0.30892363730E+02  0.00000000000E+00 0. -1.
</event>
<event>
 8    1  0.2530183E-006  0.9118800E+02  0.7816164E-02  0.1184000E+00
        -11   -1    0    0    0    0  0.00000000000E+00  0.00000000000E+00  0.45593999997E+02  0.45594000000E+02  0.51100000000E-03 0.  1.
         11   -1    0    0    0    0 -0.00000000000E+00 -0.00000000000E+00 -0.45593999997E+02  0.45594000000E+02  0.51100000000E-03 0. -1.
         23    2    1    2    0    0 -0.35527136788E-14  0.00000000000E+00 -0.35527136788E-14  0.91188000000E+02  0.91188000000E+02 0.  0.
    9900012    2    3    3    0    0 -0.26716944993E+02  0.18403100391E+02 -0.17415826471E+02  0.54367078427E+02  0.39999986891E+02 0.  0.
        -12    1    3    3    0    0  0.26716944993E+02 -0.18403100391E+02  0.17415826471E+02  0.36820921573E+02  0.00000000000E+00 0.  1.
         11    1    4    4    0    0 -0.81314214750E+01  0.19163860274E+01  0.37276196931E+01  0.91480981328E+01  0.51100000000E-03 0. -1.
        -11    1    4    4    0    0 -0.12289803476E+02 -0.71135043075E+01 -0.23344114129E+01  0.14390645917E+02  0.51100000000E-03 0.  1.
         12    1    4    4    0    0 -0.62957200423E+01  0.23600218672E+02 -0.18809034751E+02  0.30828334377E+02  0.00000000000E+00 0. -1.
</event>
<event>
 8    1  0.2530183E-006  0.9118800E+02  0.7816164E-02  0.1184000E+00
        -11   -1    0    0    0    0  0.00000000000E+00  0.00000000000E+00  0.45593999997E+02  0.45594000000E+02  0.51100000000E-03 0.  1.
         11   -1    0    0    0    0 -0.00000000000E+00 -0.00000000000E+00 -0.45593999997E+02  0.45594000000E+02  0.51100000000E-03 0. -1.
         23    2    1    2    0    0  0.71054273576E-14  0.35527136788E-14 -0.88817841970E-15  0.91188000000E+02  0.91188000000E+02 0.  0.
    9900012    2    3    3    0    0  0.25020691010E+02  0.26198390696E+02 -0.65870966574E+01  0.54367075296E+02  0.39999979751E+02 0.  0.
        -12    1    3    3    0    0 -0.25020691010E+02 -0.26198390696E+02  0.65870966574E+01  0.36820924704E+02  0.00000000000E+00 0.  1.
         11    1    4    4    0    0  0.18638669270E+01  0.12948595190E+02  0.72965962444E+01  0.14979333574E+02  0.51100000000E-03 0. -1.
        -11    1    4    4    0    0 -0.49875898512E+00  0.13068570541E+01 -0.12789451028E+02  0.12865717770E+02  0.51100000000E-03 0.  1.
         12    1    4    4    0    0  0.23655583069E+02  0.11942938452E+02 -0.10942418739E+01  0.26522023951E+02  0.00000000000E+00 0. -1.
</event>
<event>
 8    1  0.2530183E-006  0.9118800E+02  0.7816164E-02  0.1184000E+00
        -11   -1    0    0    0    0  0.00000000000E+00  0.00000000000E+00  0.45593999997E+02  0.45594000000E+02  0.51100000000E-03 0.  1.
         11   -1    0    0    0    0 -0.00000000000E+00 -0.00000000000E+00 -0.45593999997E+02  0.45594000000E+02  0.51100000000E-03 0. -1.
         23    2    1    2    0    0  0.00000000000E+00  0.00000000000E+00 -0.17763568394E-14  0.91188000000E+02  0.91188000000E+02 0.  0.
    9900012    2    3    3    0    0  0.17108144457E+02  0.30776931349E+02 -0.10764603964E+02  0.54367016736E+02  0.39999846252E+02 0.  0.
        -12    1    3    3    0    0 -0.17108144457E+02 -0.30776931349E+02  0.10764603964E+02  0.36820983264E+02  0.00000000000E+00 0.  1.
         11    1    4    4    0    0  0.66564993145E+01  0.90099101141E+01 -0.20027127022E+00  0.11203908792E+02  0.51100000000E-03 0. -1.
        -11    1    4    4    0    0  0.90620276549E+01  0.18618878460E+02  0.95167664254E+01  0.22789291867E+02  0.51100000000E-03 0.  1.
        -12    1    4    4    0    0  0.13896174879E+01  0.31481427754E+01 -0.20081099119E+02  0.20373816077E+02  0.00000000000E+00 0.  1.
</event>
<event>
 8    1  0.2530183E-006  0.9118800E+02  0.7816164E-02  0.1184000E+00
        -11   -1    0    0    0    0  0.00000000000E+00  0.00000000000E+00  0.45593999997E+02  0.45594000000E+02  0.51100000000E-03 0. -1.
         11   -1    0    0    0    0 -0.00000000000E+00 -0.00000000000E+00 -0.45593999997E+02  0.45594000000E+02  0.51100000000E-03 0.  1.
         23    2    1    2    0    0 -0.88817841970E-15 -0.35527136788E-14  0.35527136788E-14  0.91188000000E+02  0.91188000000E+02 0.  0.
    9900012    2    3    3    0    0  0.75447686092E+01 -0.28632399710E+02  0.21887022094E+02  0.54367087700E+02  0.40000008029E+02 0.  0.
        -12    1    3    3    0    0 -0.75447686092E+01  0.28632399710E+02 -0.21887022094E+02  0.36820912300E+02  0.00000000000E+00 0.  1.
         11    1    4    4    0    0  0.31715291440E+01 -0.22784712863E+02  0.17754491198E+02  0.29058969275E+02  0.51100000000E-03 0. -1.
        -11    1    4    4    0    0 -0.26309241832E+01 -0.12722220668E+02  0.74162466397E+01  0.14959190328E+02  0.51100000000E-03 0.  1.
        -12    1    4    4    0    0  0.70041636484E+01  0.68745338210E+01 -0.32837157438E+01  0.10348928097E+02  0.00000000000E+00 0.  1.
</event>
<event>
 8    1  0.2530183E-006  0.9118800E+02  0.7816164E-02  0.1184000E+00
        -11   -1    0    0    0    0  0.00000000000E+00  0.00000000000E+00  0.45593999997E+02  0.45594000000E+02  0.51100000000E-03 0. -1.
         11   -1    0    0    0    0 -0.00000000000E+00 -0.00000000000E+00 -0.45593999997E+02  0.45594000000E+02  0.51100000000E-03 0.  1.
         23    2    1    2    0    0 -0.71054273576E-14 -0.17763568394E-14  0.35527136788E-14  0.91188000000E+02  0.91188000000E+02 0.  0.
    9900012    2    3    3    0    0  0.23540847360E+02  0.14726178396E+02 -0.24181501234E+02  0.54367125126E+02  0.40000093349E+02 0.  0.
         12    1    3    3    0    0 -0.23540847360E+02 -0.14726178396E+02  0.24181501234E+02  0.36820874874E+02  0.00000000000E+00 0. -1.
         11    1    4    4    0    0  0.24141447892E+02  0.57127460931E+01 -0.12310670925E+01  0.24838689593E+02  0.51100000000E-03 0. -1.
        -11    1    4    4    0    0  0.56015315339E+01  0.77243320278E+01 -0.56134107913E+01  0.11070358701E+02  0.51100000000E-03 0.  1.
        -12    1    4    4    0    0 -0.62021320660E+01  0.12891002753E+01 -0.17337023350E+02  0.18458076832E+02  0.00000000000E+00 0.  1.
</event>
<event>
 8    1  0.2530183E-006  0.9118800E+02  0.7816164E-02  0.1184000E+00
        -11   -1    0    0    0    0  0.00000000000E+00  0.00000000000E+00  0.45593999997E+02  0.45594000000E+02  0.51100000000E-03 0.  1.
         11   -1    0    0    0    0 -0.00000000000E+00 -0.00000000000E+00 -0.45593999997E+02  0.45594000000E+02  0.51100000000E-03 0. -1.
         23    2    1    2    0    0 -0.44408920985E-15  0.35527136788E-14  0.35527136788E-14  0.91188000000E+02  0.91188000000E+02 0.  0.
    9900012    2    3    3    0    0  0.37862352491E+01  0.27427683351E+02 -0.24272846270E+02  0.54367021504E+02  0.39999857123E+02 0.  0.
        -12    1    3    3    0    0 -0.37862352491E+01 -0.27427683351E+02  0.24272846270E+02  0.36820978496E+02  0.00000000000E+00 0.  1.
         11    1    4    4    0    0  0.83384246441E+00  0.12922433496E+02 -0.25348733598E+02  0.28464765518E+02  0.51100000000E-03 0. -1.
        -11    1    4    4    0    0 -0.51646909598E+01 -0.20612282799E+00  0.64463785805E+01  0.82627063602E+01  0.51100000000E-03 0.  1.
        -12    1    4    4    0    0  0.81170837445E+01  0.14711372682E+02 -0.53704912525E+01  0.17639549626E+02  0.00000000000E+00 0.  1.
</event>
<event>
 8    1  0.2530183E-006  0.9118800E+02  0.7816164E-02  0.1184000E+00
        -11   -1    0    0    0    0  0.00000000000E+00  0.00000000000E+00  0.45593999997E+02  0.45594000000E+02  0.51100000000E-03 0.  1.
         11   -1    0    0    0    0 -0.00000000000E+00 -0.00000000000E+00 -0.45593999997E+02  0.45594000000E+02  0.51100000000E-03 0. -1.
         23    2    1    2    0    0 -0.35527136788E-14  0.00000000000E+00  0.00000000000E+00  0.91188000000E+02  0.91188000000E+02 0.  0.
    9900012    2    3    3    0    0  0.19616893270E+02  0.30213985674E+02 -0.76204997628E+01  0.54367089521E+02  0.40000012180E+02 0.  0.
         12    1    3    3    0    0 -0.19616893270E+02 -0.30213985674E+02  0.76204997628E+01  0.36820910479E+02  0.00000000000E+00 0. -1.
         11    1    4    4    0    0  0.39656994230E+01 -0.17326190497E+01  0.13449766558E+01  0.45318542729E+01  0.51100000000E-03 0. -1.
        -11    1    4    4    0    0  0.23313573239E+02  0.14068862965E+02  0.23529948903E+01  0.27331157815E+02  0.51100000000E-03 0.  1.
         12    1    4    4    0    0 -0.76623793914E+01  0.17877741759E+02 -0.11318471309E+02  0.22504077433E+02  0.00000000000E+00 0. -1.
</event>
<event>
 8    1  0.2530183E-006  0.9118800E+02  0.7816164E-02  0.1184000E+00
        -11   -1    0    0    0    0  0.00000000000E+00  0.00000000000E+00  0.45593999997E+02  0.45594000000E+02  0.51100000000E-03 0. -1.
         11   -1    0    0    0    0 -0.00000000000E+00 -0.00000000000E+00 -0.45593999997E+02  0.45594000000E+02  0.51100000000E-03 0.  1.
         23    2    1    2    0    0 -0.71054273576E-14  0.00000000000E+00  0.00000000000E+00  0.91188000000E+02  0.91188000000E+02 0.  0.
    9900012    2    3    3    0    0 -0.21557342467E+02 -0.27301603259E+02 -0.12069940480E+02  0.54367081788E+02  0.39999994553E+02 0.  0.
         12    1    3    3    0    0  0.21557342467E+02  0.27301603259E+02  0.12069940480E+02  0.36820918212E+02  0.00000000000E+00 0. -1.
         11    1    4    4    0    0  0.36856293929E+01 -0.15606764123E+02 -0.70132699755E+01  0.17502597134E+02  0.51100000000E-03 0. -1.
        -11    1    4    4    0    0 -0.29712485198E+02 -0.11159249246E+02 -0.59054753036E+01  0.32283668614E+02  0.51100000000E-03 0.  1.
         12    1    4    4    0    0  0.44695133382E+01 -0.53558988975E+00  0.84880479876E+00  0.45808160405E+01  0.00000000000E+00 0. -1.
</event>
<event>
 8    1  0.2530183E-006  0.9118800E+02  0.7816164E-02  0.1184000E+00
        -11   -1    0    0    0    0  0.00000000000E+00  0.00000000000E+00  0.45593999997E+02  0.45594000000E+02  0.51100000000E-03 0.  1.
         11   -1    0    0    0    0 -0.00000000000E+00 -0.00000000000E+00 -0.45593999997E+02  0.45594000000E+02  0.51100000000E-03 0. -1.
         23    2    1    2    0    0  0.88817841970E-15  0.17763568394E-14  0.00000000000E+00  0.91188000000E+02  0.91188000000E+02 0.  0.
    9900012    2    3    3    0    0 -0.27920325287E+01  0.13857258215E+02  0.33999425021E+02  0.54367082675E+02  0.39999996575E+02 0.  0.
         12    1    3    3    0    0  0.27920325287E+01 -0.13857258215E+02 -0.33999425021E+02  0.36820917325E+02  0.00000000000E+00 0. -1.
         11    1    4    4    0    0  0.40533942791E+01  0.67406178628E+01 -0.58660965803E+01  0.98120855941E+01  0.51100000000E-03 0. -1.
        -11    1    4    4    0    0  0.11932331436E+01 -0.41845534438E+01  0.33407593903E+01  0.54858879339E+01  0.51100000000E-03 0.  1.
        -12    1    4    4    0    0 -0.80386599513E+01  0.11301193796E+02  0.36524762211E+02  0.39069109147E+02  0.00000000000E+00 0.  1.
</event>
<event>
 8    1  0.2530183E-006  0.9118800E+02  0.7816164E-02  0.1184000E+00
        -11   -1    0    0    0    0  0.00000000000E+00  0.00000000000E+00  0.45593999997E+02  0.45594000000E+02  0.51100000000E-03 0.  1.
         11   -1    0    0    0    0 -0.00000000000E+00 -0.00000000000E+00 -0.45593999997E+02  0.45594000000E+02  0.51100000000E-03 0. -1.
         23    2    1    2    0    0  0.00000000000E+00  0.17763568394E-14  0.35527136788E-14  0.91188000000E+02  0.91188000000E+02 0.  0.
    9900012    2    3    3    0    0  0.22028241537E+02  0.11055072096E+02  0.27355492003E+02  0.54367068630E+02  0.39999964555E+02 0.  0.
         12    1    3    3    0    0 -0.22028241537E+02 -0.11055072096E+02 -0.27355492003E+02  0.36820931370E+02  0.00000000000E+00 0. -1.
         11    1    4    4    0    0  0.69824078220E+01  0.19884621866E+02  0.58393709710E+00  0.21083007104E+02  0.51100000000E-03 0. -1.
        -11    1    4    4    0    0  0.53894411612E+01 -0.69122394626E+01  0.18321002808E+02  0.20309708875E+02  0.51100000000E-03 0.  1.
        -12    1    4    4    0    0  0.96563925539E+01 -0.19173103071E+01  0.84505520970E+01  0.12974352651E+02  0.00000000000E+00 0.  1.
</event>
<event>
 8    1  0.2530183E-006  0.9118800E+02  0.7816164E-02  0.1184000E+00
        -11   -1    0    0    0    0  0.00000000000E+00  0.00000000000E+00  0.45593999997E+02  0.45594000000E+02  0.51100000000E-03 0. -1.
         11   -1    0    0    0    0 -0.00000000000E+00 -0.00000000000E+00 -0.45593999997E+02  0.45594000000E+02  0.51100000000E-03 0.  1.
         23    2    1    2    0    0  0.00000000000E+00 -0.44408920985E-15  0.00000000000E+00  0.91188000000E+02  0.91188000000E+02 0.  0.
    9900012    2    3    3    0    0 -0.23486207637E+01  0.22883177181E+01 -0.36674611177E+02  0.54367088517E+02  0.40000009893E+02 0.  0.
         12    1    3    3    0    0  0.23486207637E+01 -0.22883177181E+01  0.36674611177E+02  0.36820911483E+02  0.00000000000E+00 0. -1.
         11    1    4    4    0    0  0.16526874138E+01 -0.10715278200E+02 -0.14613874532E+02  0.18196535156E+02  0.51100000000E-03 0. -1.
        -11    1    4    4    0    0 -0.27092161065E+01  0.25376719251E+01 -0.24959487124E+02  0.25234017287E+02  0.51100000000E-03 0.  1.
         12    1    4    4    0    0 -0.12920920711E+01  0.10465923993E+02  0.28987504795E+01  0.10936536074E+02  0.00000000000E+00 0. -1.
</event>
<event>
 8    1  0.2530183E-006  0.9118800E+02  0.7816164E-02  0.1184000E+00
        -11   -1    0    0    0    0  0.00000000000E+00  0.00000000000E+00  0.45593999997E+02  0.45594000000E+02  0.51100000000E-03 0.  1.
         11   -1    0    0    0    0 -0.00000000000E+00 -0.00000000000E+00 -0.45593999997E+02  0.45594000000E+02  0.51100000000E-03 0. -1.
         23    2    1    2    0    0  0.17763568394E-14  0.00000000000E+00  0.00000000000E+00  0.91188000000E+02  0.91188000000E+02 0.  0.
    9900012    2    3    3    0    0  0.13923417125E+02  0.36471647253E+01  0.33891273570E+02  0.54367057872E+02  0.39999940031E+02 0.  0.
         12    1    3    3    0    0 -0.13923417125E+02 -0.36471647253E+01 -0.33891273570E+02  0.36820942128E+02  0.00000000000E+00 0. -1.
         11    1    4    4    0    0 -0.29051099019E+01  0.77307780113E+01  0.44961110180E+01  0.94031700372E+01  0.51100000000E-03 0. -1.
        -11    1    4    4    0    0  0.24397513292E+02 -0.30180848743E+01  0.27881979805E+02  0.37171928781E+02  0.51100000000E-03 0.  1.
        -12    1    4    4    0    0 -0.75689862653E+01 -0.10655284117E+01  0.15131827468E+01  0.77919590544E+01  0.00000000000E+00 0.  1.
</event>
<event>
 8    1  0.2530183E-006  0.9118800E+02  0.7816164E-02  0.1184000E+00
        -11   -1    0    0    0    0  0.00000000000E+00  0.00000000000E+00  0.45593999997E+02  0.45594000000E+02  0.51100000000E-03 0.  1.
         11   -1    0    0    0    0 -0.00000000000E+00 -0.00000000000E+00 -0.45593999997E+02  0.45594000000E+02  0.51100000000E-03 0. -1.
         23    2    1    2    0    0  0.88817841970E-15  0.00000000000E+00 -0.88817841970E-15  0.91188000000E+02  0.91188000000E+02 0.  0.
    9900012    2    3    3    0    0  0.50321826661E+01 -0.36091737184E+02  0.52767193277E+01  0.54367080373E+02  0.39999991326E+02 0.  0.
         12    1    3    3    0    0 -0.50321826661E+01  0.36091737184E+02 -0.52767193277E+01  0.36820919627E+02  0.00000000000E+00 0. -1.
         11    1    4    4    0    0  0.36233609623E-01 -0.17022036513E+01 -0.11118667042E+02  0.11248269520E+02  0.51100000000E-03 0. -1.
        -11    1    4    4    0    0  0.53432952755E+00 -0.18914853332E+02 -0.15749379082E+01  0.18987828056E+02  0.51100000000E-03 0.  1.
        -12    1    4    4    0    0  0.44616195289E+01 -0.15474680201E+02  0.17970324277E+02  0.24130982797E+02  0.00000000000E+00 0.  1.
</event>
<event>
 8    1  0.2530183E-006  0.9118800E+02  0.7816164E-02  0.1184000E+00
        -11   -1    0    0    0    0  0.00000000000E+00  0.00000000000E+00  0.45593999997E+02  0.45594000000E+02  0.51100000000E-03 0. -1.
         11   -1    0    0    0    0 -0.00000000000E+00 -0.00000000000E+00 -0.45593999997E+02  0.45594000000E+02  0.51100000000E-03 0.  1.
         23    2    1    2    0    0  0.00000000000E+00  0.00000000000E+00 -0.88817841970E-15  0.91188000000E+02  0.91188000000E+02 0.  0.
    9900012    2    3    3    0    0 -0.22197675493E+02 -0.29182520812E+02  0.33796423411E+01  0.54367105109E+02  0.40000047717E+02 0.  0.
        -12    1    3    3    0    0  0.22197675493E+02  0.29182520812E+02 -0.33796423411E+01  0.36820894891E+02  0.00000000000E+00 0.  1.
         11    1    4    4    0    0 -0.17511099715E+02 -0.28988127066E+02 -0.46911740234E+01  0.34190016643E+02  0.51100000000E-03 0. -1.
        -11    1    4    4    0    0 -0.95790423031E+01  0.13510367129E+00 -0.12341292771E+01  0.96591604077E+01  0.51100000000E-03 0.  1.
        -12    1    4    4    0    0  0.48924665258E+01 -0.32949741679E+00  0.93049456415E+01  0.10517928059E+02  0.00000000000E+00 0.  1.
</event>
<event>
 8    1  0.2530183E-006  0.9118800E+02  0.7816164E-02  0.1184000E+00
        -11   -1    0    0    0    0  0.00000000000E+00  0.00000000000E+00  0.45593999997E+02  0.45594000000E+02  0.51100000000E-03 0. -1.
         11   -1    0    0    0    0 -0.00000000000E+00 -0.00000000000E+00 -0.45593999997E+02  0.45594000000E+02  0.51100000000E-03 0.  1.
         23    2    1    2    0    0 -0.88817841970E-15 -0.35527136788E-14  0.00000000000E+00  0.91188000000E+02  0.91188000000E+02 0.  0.
    9900012    2    3    3    0    0 -0.48371969584E+01 -0.16708831665E+02  0.32452986864E+02  0.54367083574E+02  0.39999998624E+02 0.  0.
        -12    1    3    3    0    0  0.48371969584E+01  0.16708831665E+02 -0.32452986864E+02  0.36820916426E+02  0.00000000000E+00 0.  1.
         11    1    4    4    0    0  0.27376792326E+01 -0.21185881818E+02  0.20839477448E+02  0.29843262163E+02  0.51100000000E-03 0. -1.
        -11    1    4    4    0    0  0.64321252362E+01  0.34064070285E+00  0.11147662885E+01  0.65368933969E+01  0.51100000000E-03 0.  1.
         12    1    4    4    0    0 -0.14007001427E+02  0.41364094494E+01  0.10498743128E+02  0.17986928014E+02  0.00000000000E+00 0. -1.
</event>
<event>
 8    1  0.2530183E-006  0.9118800E+02  0.7816164E-02  0.1184000E+00
        -11   -1    0    0    0    0  0.00000000000E+00  0.00000000000E+00  0.45593999997E+02  0.45594000000E+02  0.51100000000E-03 0. -1.
         11   -1    0    0    0    0 -0.00000000000E+00 -0.00000000000E+00 -0.45593999997E+02  0.45594000000E+02  0.51100000000E-03 0.  1.
         23    2    1    2    0    0 -0.22204460493E-15  0.00000000000E+00  0.00000000000E+00  0.91188000000E+02  0.91188000000E+02 0.  0.
    9900012    2    3    3    0    0  0.67928418428E+00 -0.13778309032E+02  0.34139062965E+02  0.54367097690E+02  0.40000030804E+02 0.  0.
        -12    1    3    3    0    0 -0.67928418428E+00  0.13778309032E+02 -0.34139062965E+02  0.36820902310E+02  0.00000000000E+00 0.  1.
         11    1    4    4    0    0  0.17532498066E+01 -0.13166848275E+01 -0.96591516764E+00  0.23959416086E+01  0.51100000000E-03 0.  1.
        -11    1    4    4    0    0  0.17433762073E+02 -0.78176116121E+01  0.15384031778E+02  0.24529972388E+02  0.51100000000E-03 0. -1.
        -12    1    4    4    0    0 -0.18507727695E+02 -0.46440125929E+01  0.19720946354E+02  0.27441183694E+02  0.00000000000E+00 0.  1.
</event>
<event>
 8    1  0.2530183E-006  0.9118800E+02  0.7816164E-02  0.1184000E+00
        -11   -1    0    0    0    0  0.00000000000E+00  0.00000000000E+00  0.45593999997E+02  0.45594000000E+02  0.51100000000E-03 0.  1.
         11   -1    0    0    0    0 -0.00000000000E+00 -0.00000000000E+00 -0.45593999997E+02  0.45594000000E+02  0.51100000000E-03 0. -1.
         23    2    1    2    0    0 -0.17763568394E-14  0.00000000000E+00  0.88817841970E-15  0.91188000000E+02  0.91188000000E+02 0.  0.
    9900012    2    3    3    0    0  0.15182052975E+02 -0.33455405730E+02  0.24538841016E+01  0.54367075890E+02  0.39999981107E+02 0.  0.
        -12    1    3    3    0    0 -0.15182052975E+02  0.33455405730E+02 -0.24538841016E+01  0.36820924110E+02  0.00000000000E+00 0.  1.
         11    1    4    4    0    0 -0.38816238925E+01 -0.66132982203E+01 -0.46785183709E+01  0.89828309459E+01  0.51100000000E-03 0. -1.
        -11    1    4    4    0    0 -0.14954678699E+01  0.28481067837E+01  0.86602557284E+01  0.92384071108E+01  0.51100000000E-03 0.  1.
         12    1    4    4    0    0  0.20559144737E+02 -0.29690214294E+02 -0.15278532559E+01  0.36145837834E+02  0.00000000000E+00 0. -1.
</event>
<event>
 8    1  0.2530183E-006  0.9118800E+02  0.7816164E-02  0.1184000E+00
        -11   -1    0    0    0    0  0.00000000000E+00  0.00000000000E+00  0.45593999997E+02  0.45594000000E+02  0.51100000000E-03 0.  1.
         11   -1    0    0    0    0 -0.00000000000E+00 -0.00000000000E+00 -0.45593999997E+02  0.45594000000E+02  0.51100000000E-03 0. -1.
         23    2    1    2    0    0  0.17763568394E-14  0.00000000000E+00  0.35527136788E-14  0.91188000000E+02  0.91188000000E+02 0.  0.
    9900012    2    3    3    0    0 -0.12627984185E+02  0.14738127879E+02  0.31290619304E+02  0.54367064998E+02  0.39999956277E+02 0.  0.
         12    1    3    3    0    0  0.12627984185E+02 -0.14738127879E+02 -0.31290619304E+02  0.36820935002E+02  0.00000000000E+00 0. -1.
         11    1    4    4    0    0  0.15915694761E+01  0.10427889232E+02 -0.35220694442E+01  0.11121103393E+02  0.51100000000E-03 0. -1.
        -11    1    4    4    0    0  0.19979361421E+01  0.40115203249E+01 -0.37757696551E+00  0.44974002236E+01  0.51100000000E-03 0.  1.
        -12    1    4    4    0    0 -0.16217489803E+02  0.29871832154E+00  0.35190265714E+02  0.38748561382E+02  0.00000000000E+00 0.  1.
</event>
<event>
 8    1  0.2530183E-006  0.9118800E+02  0.7816164E-02  0.1184000E+00
        -11   -1    0    0    0    0  0.00000000000E+00  0.00000000000E+00  0.45593999997E+02  0.45594000000E+02  0.51100000000E-03 0.  1.
         11   -1    0    0    0    0 -0.00000000000E+00 -0.00000000000E+00 -0.45593999997E+02  0.45594000000E+02  0.51100000000E-03 0. -1.
         23    2    1    2    0    0  0.17763568394E-14  0.00000000000E+00  0.17763568394E-14  0.91188000000E+02  0.91188000000E+02 0.  0.
    9900012    2    3    3    0    0 -0.14071471732E+02  0.32145580554E+02 -0.11155099759E+02  0.54367069587E+02  0.39999966737E+02 0.  0.
         12    1    3    3    0    0  0.14071471732E+02 -0.32145580554E+02  0.11155099759E+02  0.36820930413E+02  0.00000000000E+00 0. -1.
         11    1    4    4    0    0 -0.11157310143E+02  0.63965972172E+01 -0.75774701505E+01  0.14927159131E+02  0.51100000000E-03 0. -1.
        -11    1    4    4    0    0 -0.81846075456E+01  0.26647362223E+02  0.59599835450E+01  0.28505983903E+02  0.51100000000E-03 0.  1.
         12    1    4    4    0    0  0.52704459565E+01 -0.89837888650E+00 -0.95376131534E+01  0.10933926553E+02  0.00000000000E+00 0. -1.
</event>
<event>
 8    1  0.2530183E-006  0.9118800E+02  0.7816164E-02  0.1184000E+00
        -11   -1    0    0    0    0  0.00000000000E+00  0.00000000000E+00  0.45593999997E+02  0.45594000000E+02  0.51100000000E-03 0. -1.
         11   -1    0    0    0    0 -0.00000000000E+00 -0.00000000000E+00 -0.45593999997E+02  0.45594000000E+02  0.51100000000E-03 0.  1.
         23    2    1    2    0    0  0.17763568394E-14  0.00000000000E+00 -0.88817841970E-15  0.91188000000E+02  0.91188000000E+02 0.  0.
    9900012    2    3    3    0    0  0.14952828774E+02  0.33176077827E+02 -0.56160310389E+01  0.54367095164E+02  0.40000025045E+02 0.  0.
         12    1    3    3    0    0 -0.14952828774E+02 -0.33176077827E+02  0.56160310389E+01  0.36820904836E+02  0.00000000000E+00 0. -1.
         11    1    4    4    0    0 -0.78908853229E+01 -0.50579646444E+00 -0.28891215355E+00  0.79123556376E+01  0.51100000000E-03 0. -1.
        -11    1    4    4    0    0 -0.14055644819E+01  0.32274183170E+01 -0.66266421298E+01  0.75036142414E+01  0.51100000000E-03 0.  1.
         12    1    4    4    0    0  0.24249278579E+02  0.30454455974E+02  0.12995232445E+01  0.38951125285E+02  0.00000000000E+00 0. -1.
</event>
<event>
 8    1  0.2530183E-006  0.9118800E+02  0.7816164E-02  0.1184000E+00
        -11   -1    0    0    0    0  0.00000000000E+00  0.00000000000E+00  0.45593999997E+02  0.45594000000E+02  0.51100000000E-03 0. -1.
         11   -1    0    0    0    0 -0.00000000000E+00 -0.00000000000E+00 -0.45593999997E+02  0.45594000000E+02  0.51100000000E-03 0.  1.
         23    2    1    2    0    0  0.00000000000E+00 -0.22204460493E-15  0.00000000000E+00  0.91188000000E+02  0.91188000000E+02 0.  0.
    9900012    2    3    3    0    0  0.18006492367E+02  0.16792105301E+01  0.32073780176E+02  0.54367069945E+02  0.39999967553E+02 0.  0.
        -12    1    3    3    0    0 -0.18006492367E+02 -0.16792105301E+01 -0.32073780176E+02  0.36820930055E+02  0.00000000000E+00 0.  1.
         11    1    4    4    0    0  0.64095996235E+01  0.12024401763E+01  0.27654220453E+02  0.28412756621E+02  0.51100000000E-03 0. -1.
        -11    1    4    4    0    0 -0.58377321148E+01  0.71437806167E+00 -0.34564561121E+01  0.68217696659E+01  0.51100000000E-03 0.  1.
        -12    1    4    4    0    0  0.17434624858E+02 -0.23760770785E+00  0.78760158349E+01  0.19132543658E+02  0.00000000000E+00 0.  1.
</event>
<event>
 8    1  0.2530183E-006  0.9118800E+02  0.7816164E-02  0.1184000E+00
        -11   -1    0    0    0    0  0.00000000000E+00  0.00000000000E+00  0.45593999997E+02  0.45594000000E+02  0.51100000000E-03 0.  1.
         11   -1    0    0    0    0 -0.00000000000E+00 -0.00000000000E+00 -0.45593999997E+02  0.45594000000E+02  0.51100000000E-03 0. -1.
         23    2    1    2    0    0  0.35527136788E-14  0.35527136788E-14  0.00000000000E+00  0.91188000000E+02  0.91188000000E+02 0.  0.
    9900012    2    3    3    0    0  0.11953830079E+02  0.19263880641E+02 -0.29013600774E+02  0.54367079578E+02  0.39999989513E+02 0.  0.
        -12    1    3    3    0    0 -0.11953830079E+02 -0.19263880641E+02  0.29013600774E+02  0.36820920422E+02  0.00000000000E+00 0.  1.
         11    1    4    4    0    0  0.19326584027E+02  0.15574023422E+01 -0.57141401371E+01  0.20213702036E+02  0.51100000000E-03 0.  1.
        -11    1    4    4    0    0 -0.97821592933E+01  0.49913779043E+01 -0.15654985819E+02  0.19122841711E+02  0.51100000000E-03 0. -1.
         12    1    4    4    0    0  0.24094053450E+01  0.12715100394E+02 -0.76444748171E+01  0.15030535831E+02  0.00000000000E+00 0. -1.
</event>
<event>
 8    1  0.2530183E-006  0.9118800E+02  0.7816164E-02  0.1184000E+00
        -11   -1    0    0    0    0  0.00000000000E+00  0.00000000000E+00  0.45593999997E+02  0.45594000000E+02  0.51100000000E-03 0.  1.
         11   -1    0    0    0    0 -0.00000000000E+00 -0.00000000000E+00 -0.45593999997E+02  0.45594000000E+02  0.51100000000E-03 0. -1.
         23    2    1    2    0    0  0.00000000000E+00  0.00000000000E+00  0.00000000000E+00  0.91188000000E+02  0.91188000000E+02 0.  0.
    9900012    2    3    3    0    0  0.18059950896E+02 -0.24632318593E+02 -0.20563702851E+02  0.54367098047E+02  0.40000031618E+02 0.  0.
         12    1    3    3    0    0 -0.18059950896E+02  0.24632318593E+02  0.20563702851E+02  0.36820901953E+02  0.00000000000E+00 0. -1.
         11    1    4    4    0    0  0.17265257225E+02 -0.17485257430E+02 -0.27006109034E+02  0.36512371327E+02  0.51100000000E-03 0. -1.
        -11    1    4    4    0    0  0.53923875437E+01  0.14302223497E+01  0.58818556002E+01  0.81067629146E+01  0.51100000000E-03 0.  1.
         12    1    4    4    0    0 -0.45976938726E+01 -0.85772835130E+01  0.56055058289E+00  0.97479638060E+01  0.00000000000E+00 0. -1.
</event>
<event>
 8    1  0.2530183E-006  0.9118800E+02  0.7816164E-02  0.1184000E+00
        -11   -1    0    0    0    0  0.00000000000E+00  0.00000000000E+00  0.45593999997E+02  0.45594000000E+02  0.51100000000E-03 0. -1.
         11   -1    0    0    0    0 -0.00000000000E+00 -0.00000000000E+00 -0.45593999997E+02  0.45594000000E+02  0.51100000000E-03 0.  1.
         23    2    1    2    0    0 -0.35527136788E-14 -0.88817841970E-15 -0.71054273576E-14  0.91188000000E+02  0.91188000000E+02 0.  0.
    9900012    2    3    3    0    0 -0.13562859304E+02 -0.51043782490E+01 -0.33849278984E+02  0.54367088584E+02  0.40000010044E+02 0.  0.
         12    1    3    3    0    0  0.13562859304E+02  0.51043782490E+01  0.33849278984E+02  0.36820911416E+02  0.00000000000E+00 0. -1.
         11    1    4    4    0    0 -0.28513750051E+01  0.13578865481E+00 -0.26625562750E+00  0.28669967385E+01  0.51100000000E-03 0. -1.
        -11    1    4    4    0    0  0.33861060649E+01 -0.97350204679E+01 -0.35141085545E+02  0.36621472272E+02  0.51100000000E-03 0.  1.
         12    1    4    4    0    0 -0.14097590363E+02  0.44948535641E+01  0.15580621889E+01  0.14878619573E+02  0.00000000000E+00 0. -1.
</event>
<event>
 8    1  0.2530183E-006  0.9118800E+02  0.7816164E-02  0.1184000E+00
        -11   -1    0    0    0    0  0.00000000000E+00  0.00000000000E+00  0.45593999997E+02  0.45594000000E+02  0.51100000000E-03 0.  1.
         11   -1    0    0    0    0 -0.00000000000E+00 -0.00000000000E+00 -0.45593999997E+02  0.45594000000E+02  0.51100000000E-03 0. -1.
         23    2    1    2    0    0  0.00000000000E+00  0.00000000000E+00 -0.71054273576E-14  0.91188000000E+02  0.91188000000E+02 0.  0.
    9900012    2    3    3    0    0 -0.48984811256E+01 -0.11488521010E+02  0.34638100380E+02  0.54367092485E+02  0.40000018937E+02 0.  0.
         12    1    3    3    0    0  0.48984811256E+01  0.11488521010E+02 -0.34638100380E+02  0.36820907515E+02  0.00000000000E+00 0. -1.
         11    1    4    4    0    0  0.42123494744E+01  0.61033695376E+01  0.17053127067E+02  0.18595810034E+02  0.51100000000E-03 0. -1.
        -11    1    4    4    0    0 -0.14920142438E+01  0.60825157301E+01  0.40243927808E+01  0.74443832266E+01  0.51100000000E-03 0.  1.
        -12    1    4    4    0    0 -0.76188163562E+01 -0.23674406278E+02  0.13560580532E+02  0.28326899224E+02  0.00000000000E+00 0.  1.
</event>
<event>
 8    1  0.2530183E-006  0.9118800E+02  0.7816164E-02  0.1184000E+00
        -11   -1    0    0    0    0  0.00000000000E+00  0.00000000000E+00  0.45593999997E+02  0.45594000000E+02  0.51100000000E-03 0.  1.
         11   -1    0    0    0    0 -0.00000000000E+00 -0.00000000000E+00 -0.45593999997E+02  0.45594000000E+02  0.51100000000E-03 0. -1.
         23    2    1    2    0    0  0.88817841970E-15  0.00000000000E+00  0.00000000000E+00  0.91188000000E+02  0.91188000000E+02 0.  0.
    9900012    2    3    3    0    0  0.79034809848E+01  0.31227819658E+02  0.17836423306E+02  0.54367085717E+02  0.40000003509E+02 0.  0.
         12    1    3    3    0    0 -0.79034809848E+01 -0.31227819658E+02 -0.17836423306E+02  0.36820914283E+02  0.00000000000E+00 0. -1.
         11    1    4    4    0    0  0.32481339839E+01 -0.10910747807E+01 -0.19881958525E+01  0.39615327291E+01  0.51100000000E-03 0. -1.
        -11    1    4    4    0    0  0.12101495777E+02 -0.93206924747E+00  0.69046790536E+01  0.13963865733E+02  0.51100000000E-03 0.  1.
         12    1    4    4    0    0 -0.74461487757E+01  0.33250963686E+02  0.12919940105E+02  0.36441687255E+02  0.00000000000E+00 0. -1.
</event>
<event>
 8    1  0.2530183E-006  0.9118800E+02  0.7816164E-02  0.1184000E+00
        -11   -1    0    0    0    0  0.00000000000E+00  0.00000000000E+00  0.45593999997E+02  0.45594000000E+02  0.51100000000E-03 0.  1.
         11   -1    0    0    0    0 -0.00000000000E+00 -0.00000000000E+00 -0.45593999997E+02  0.45594000000E+02  0.51100000000E-03 0. -1.
         23    2    1    2    0    0 -0.88817841970E-15  0.00000000000E+00 -0.35527136788E-14  0.91188000000E+02  0.91188000000E+02 0.  0.
    9900012    2    3    3    0    0  0.59147372441E+01  0.17923516760E+02  0.31615567314E+02  0.54367072984E+02  0.39999974482E+02 0.  0.
         12    1    3    3    0    0 -0.59147372441E+01 -0.17923516760E+02 -0.31615567314E+02  0.36820927016E+02  0.00000000000E+00 0. -1.
         11    1    4    4    0    0  0.50325113512E+01 -0.69456643136E+00  0.32750876047E+00  0.50907617580E+01  0.51100000000E-03 0.  1.
        -11    1    4    4    0    0  0.14876336055E+02  0.95378896402E+01  0.26623674832E+02  0.31954604911E+02  0.51100000000E-03 0. -1.
         12    1    4    4    0    0 -0.13994110162E+02  0.90801935508E+01  0.46643837218E+01  0.17321706315E+02  0.00000000000E+00 0. -1.
</event>
<event>
 8    1  0.2530183E-006  0.9118800E+02  0.7816164E-02  0.1184000E+00
        -11   -1    0    0    0    0  0.00000000000E+00  0.00000000000E+00  0.45593999997E+02  0.45594000000E+02  0.51100000000E-03 0.  1.
         11   -1    0    0    0    0 -0.00000000000E+00 -0.00000000000E+00 -0.45593999997E+02  0.45594000000E+02  0.51100000000E-03 0. -1.
         23    2    1    2    0    0  0.88817841970E-15 -0.88817841970E-15  0.00000000000E+00  0.91188000000E+02  0.91188000000E+02 0.  0.
    9900012    2    3    3    0    0 -0.75204171491E+01  0.53489703796E+01 -0.35645599461E+02  0.54367123867E+02  0.40000090480E+02 0.  0.
        -12    1    3    3    0    0  0.75204171491E+01 -0.53489703796E+01  0.35645599461E+02  0.36820876133E+02  0.00000000000E+00 0.  1.
         11    1    4    4    0    0  0.96678805429E+01 -0.59216063885E+00 -0.25501004255E+02  0.27278559102E+02  0.51100000000E-03 0. -1.
        -11    1    4    4    0    0 -0.12834036996E+02  0.11793009033E+02 -0.49015382658E+01  0.18105597071E+02  0.51100000000E-03 0.  1.
         12    1    4    4    0    0 -0.43542606957E+01 -0.58518780148E+01 -0.52430569405E+01  0.89829676938E+01  0.00000000000E+00 0. -1.
</event>
<event>
 8    1  0.2530183E-006  0.9118800E+02  0.7816164E-02  0.1184000E+00
        -11   -1    0    0    0    0  0.00000000000E+00  0.00000000000E+00  0.45593999997E+02  0.45594000000E+02  0.51100000000E-03 0. -1.
         11   -1    0    0    0    0 -0.00000000000E+00 -0.00000000000E+00 -0.45593999997E+02  0.45594000000E+02  0.51100000000E-03 0.  1.
         23    2    1    2    0    0  0.35527136788E-14  0.00000000000E+00 -0.35527136788E-14  0.91188000000E+02  0.91188000000E+02 0.  0.
    9900012    2    3    3    0    0  0.28210198419E+02 -0.48535729467E+01  0.23160869064E+02  0.54366833248E+02  0.39999427951E+02 0.  0.
         12    1    3    3    0    0 -0.28210198419E+02  0.48535729467E+01 -0.23160869064E+02  0.36821166752E+02  0.00000000000E+00 0. -1.
         11    1    4    4    0    0  0.11108459418E+02  0.63267783555E+00  0.17474605982E+02  0.20716177407E+02  0.51100000000E-03 0. -1.
        -11    1    4    4    0    0 -0.30852538089E+01 -0.11656416973E+02  0.20904713476E+01  0.12237684357E+02  0.51100000000E-03 0.  1.
        -12    1    4    4    0    0  0.20186992810E+02  0.61701661909E+01  0.35957917348E+01  0.21412971483E+02  0.00000000000E+00 0.  1.
</event>
<event>
 8    1  0.2530183E-006  0.9118800E+02  0.7816164E-02  0.1184000E+00
        -11   -1    0    0    0    0  0.00000000000E+00  0.00000000000E+00  0.45593999997E+02  0.45594000000E+02  0.51100000000E-03 0.  1.
         11   -1    0    0    0    0 -0.00000000000E+00 -0.00000000000E+00 -0.45593999997E+02  0.45594000000E+02  0.51100000000E-03 0. -1.
         23    2    1    2    0    0 -0.35527136788E-14  0.44408920985E-15  0.00000000000E+00  0.91188000000E+02  0.91188000000E+02 0.  0.
    9900012    2    3    3    0    0  0.21607004288E+02 -0.39237891191E+01 -0.29555410429E+02  0.54367067897E+02  0.39999962884E+02 0.  0.
        -12    1    3    3    0    0 -0.21607004288E+02  0.39237891191E+01  0.29555410429E+02  0.36820932103E+02  0.00000000000E+00 0.  1.
         11    1    4    4    0    0  0.16582990706E+02  0.11902320974E+02 -0.57562337793E+01  0.21208372236E+02  0.51100000000E-03 0. -1.
        -11    1    4    4    0    0  0.79897737806E+01 -0.37857018172E+01 -0.37915877954E+01  0.96199876084E+01  0.51100000000E-03 0.  1.
         12    1    4    4    0    0 -0.29657601981E+01 -0.12040408276E+02 -0.20007588854E+02  0.23538708052E+02  0.00000000000E+00 0. -1.
</event>
<event>
 8    1  0.2530183E-006  0.9118800E+02  0.7816164E-02  0.1184000E+00
        -11   -1    0    0    0    0  0.00000000000E+00  0.00000000000E+00  0.45593999997E+02  0.45594000000E+02  0.51100000000E-03 0.  1.
         11   -1    0    0    0    0 -0.00000000000E+00 -0.00000000000E+00 -0.45593999997E+02  0.45594000000E+02  0.51100000000E-03 0. -1.
         23    2    1    2    0    0 -0.35527136788E-14  0.00000000000E+00  0.00000000000E+00  0.91188000000E+02  0.91188000000E+02 0.  0.
    9900012    2    3    3    0    0  0.16870906566E+02  0.21079716681E+02 -0.25035907110E+02  0.54367101199E+02  0.40000038803E+02 0.  0.
        -12    1    3    3    0    0 -0.16870906566E+02 -0.21079716681E+02  0.25035907110E+02  0.36820898801E+02  0.00000000000E+00 0.  1.
         11    1    4    4    0    0  0.10048260261E+02  0.18984686905E+02 -0.23621618559E+00  0.21481193391E+02  0.51100000000E-03 0. -1.
        -11    1    4    4    0    0  0.41798769459E+01 -0.10811124683E+01  0.26903688727E+01  0.50870679556E+01  0.51100000000E-03 0.  1.
         12    1    4    4    0    0  0.26427693589E+01  0.31761422435E+01 -0.27490059798E+02  0.27798839852E+02  0.00000000000E+00 0. -1.
</event>
<event>
 8    1  0.2530183E-006  0.9118800E+02  0.7816164E-02  0.1184000E+00
        -11   -1    0    0    0    0  0.00000000000E+00  0.00000000000E+00  0.45593999997E+02  0.45594000000E+02  0.51100000000E-03 0. -1.
         11   -1    0    0    0    0 -0.00000000000E+00 -0.00000000000E+00 -0.45593999997E+02  0.45594000000E+02  0.51100000000E-03 0.  1.
         23    2    1    2    0    0  0.00000000000E+00 -0.88817841970E-15 -0.71054273576E-14  0.91188000000E+02  0.91188000000E+02 0.  0.
    9900012    2    3    3    0    0  0.36772824312E+01 -0.43851170364E+01 -0.36373469094E+02  0.54367069655E+02  0.39999966893E+02 0.  0.
         12    1    3    3    0    0 -0.36772824312E+01  0.43851170364E+01  0.36373469094E+02  0.36820930345E+02  0.00000000000E+00 0. -1.
         11    1    4    4    0    0  0.13477939649E+01 -0.24417972399E+01 -0.42415232526E+00  0.28211394486E+01  0.51100000000E-03 0. -1.
        -11    1    4    4    0    0  0.89202852298E+01 -0.11828315828E+01  0.48421400627E+01  0.10218458777E+02  0.51100000000E-03 0.  1.
         12    1    4    4    0    0 -0.65907967635E+01 -0.76048821371E+00 -0.40791456832E+02  0.41327471429E+02  0.00000000000E+00 0. -1.
</event>
<event>
 8    1  0.2530183E-006  0.9118800E+02  0.7816164E-02  0.1184000E+00
        -11   -1    0    0    0    0  0.00000000000E+00  0.00000000000E+00  0.45593999997E+02  0.45594000000E+02  0.51100000000E-03 0. -1.
         11   -1    0    0    0    0 -0.00000000000E+00 -0.00000000000E+00 -0.45593999997E+02  0.45594000000E+02  0.51100000000E-03 0.  1.
         23    2    1    2    0    0  0.00000000000E+00  0.00000000000E+00  0.00000000000E+00  0.91188000000E+02  0.91188000000E+02 0.  0.
    9900012    2    3    3    0    0 -0.12726205385E+02  0.33956474794E+02 -0.63859863543E+01  0.54367091460E+02  0.40000016602E+02 0.  0.
         12    1    3    3    0    0  0.12726205385E+02 -0.33956474794E+02  0.63859863543E+01  0.36820908540E+02  0.00000000000E+00 0. -1.
         11    1    4    4    0    0 -0.24263600692E+01 -0.27369527230E+01  0.25542112202E+01  0.44611801815E+01  0.51100000000E-03 0. -1.
        -11    1    4    4    0    0 -0.11110057682E+02  0.49223069043E+00 -0.79712126747E+01  0.13682686305E+02  0.51100000000E-03 0.  1.
        -12    1    4    4    0    0  0.81021236603E+00  0.36201196827E+02 -0.96898489978E+00  0.36223224974E+02  0.00000000000E+00 0.  1.
</event>
<event>
 8    1  0.2530183E-006  0.9118800E+02  0.7816164E-02  0.1184000E+00
        -11   -1    0    0    0    0  0.00000000000E+00  0.00000000000E+00  0.45593999997E+02  0.45594000000E+02  0.51100000000E-03 0.  1.
         11   -1    0    0    0    0 -0.00000000000E+00 -0.00000000000E+00 -0.45593999997E+02  0.45594000000E+02  0.51100000000E-03 0. -1.
         23    2    1    2    0    0 -0.35527136788E-14  0.71054273576E-14  0.00000000000E+00  0.91188000000E+02  0.91188000000E+02 0.  0.
    9900012    2    3    3    0    0  0.12837183936E+02 -0.33131033794E+02 -0.96602719137E+01  0.54367088209E+02  0.40000009191E+02 0.  0.
        -12    1    3    3    0    0 -0.12837183936E+02  0.33131033794E+02  0.96602719137E+01  0.36820911791E+02  0.00000000000E+00 0.  1.
         11    1    4    4    0    0 -0.95588841280E+00 -0.14022047731E+02 -0.87598956811E+01  0.16561018020E+02  0.51100000000E-03 0. -1.
        -11    1    4    4    0    0  0.85532822483E+00  0.67882180220E+01  0.47257916494E+01  0.83153230400E+01  0.51100000000E-03 0.  1.
        -12    1    4    4    0    0  0.12937744124E+02 -0.25897204084E+02 -0.56261678819E+01  0.29490747150E+02  0.00000000000E+00 0.  1.
</event>
<event>
 8    1  0.2530183E-006  0.9118800E+02  0.7816164E-02  0.1184000E+00
        -11   -1    0    0    0    0  0.00000000000E+00  0.00000000000E+00  0.45593999997E+02  0.45594000000E+02  0.51100000000E-03 0.  1.
         11   -1    0    0    0    0 -0.00000000000E+00 -0.00000000000E+00 -0.45593999997E+02  0.45594000000E+02  0.51100000000E-03 0. -1.
         23    2    1    2    0    0  0.00000000000E+00  0.00000000000E+00  0.00000000000E+00  0.91188000000E+02  0.91188000000E+02 0.  0.
    9900012    2    3    3    0    0  0.18526279997E+02 -0.10557999980E+02  0.30018056336E+02  0.54367107557E+02  0.40000053298E+02 0.  0.
         12    1    3    3    0    0 -0.18526279997E+02  0.10557999980E+02 -0.30018056336E+02  0.36820892443E+02  0.00000000000E+00 0. -1.
         11    1    4    4    0    0 -0.36739363242E+01 -0.77344998602E+01 -0.16682437176E+01  0.87237224603E+01  0.51100000000E-03 0. -1.
        -11    1    4    4    0    0 -0.47253585350E+01  0.18847182465E+01  0.79672803642E+01  0.94529748131E+01  0.51100000000E-03 0.  1.
         12    1    4    4    0    0  0.26925574856E+02 -0.47082183667E+01  0.23719019689E+02  0.36190410284E+02  0.00000000000E+00 0. -1.
</event>
<event>
 8    1  0.2530183E-006  0.9118800E+02  0.7816164E-02  0.1184000E+00
        -11   -1    0    0    0    0  0.00000000000E+00  0.00000000000E+00  0.45593999997E+02  0.45594000000E+02  0.51100000000E-03 0. -1.
         11   -1    0    0    0    0 -0.00000000000E+00 -0.00000000000E+00 -0.45593999997E+02  0.45594000000E+02  0.51100000000E-03 0.  1.
         23    2    1    2    0    0 -0.71054273576E-14  0.00000000000E+00  0.00000000000E+00  0.91188000000E+02  0.91188000000E+02 0.  0.
    9900012    2    3    3    0    0  0.31248185956E+02  0.14106877095E+02 -0.13428566008E+02  0.54367088931E+02  0.40000010835E+02 0.  0.
         12    1    3    3    0    0 -0.31248185956E+02 -0.14106877095E+02  0.13428566008E+02  0.36820911069E+02  0.00000000000E+00 0. -1.
         11    1    4    4    0    0  0.96019529100E+00  0.14316114878E+02 -0.13580801422E+02  0.19756297420E+02  0.51100000000E-03 0. -1.
        -11    1    4    4    0    0  0.33358990674E+01 -0.23469559443E+01 -0.56402415122E+01  0.69605135852E+01  0.51100000000E-03 0.  1.
         12    1    4    4    0    0  0.26952091598E+02  0.21377181615E+01  0.57924769263E+01  0.27650277926E+02  0.00000000000E+00 0. -1.
</event>
<event>
 8    1  0.2530183E-006  0.9118800E+02  0.7816164E-02  0.1184000E+00
        -11   -1    0    0    0    0  0.00000000000E+00  0.00000000000E+00  0.45593999997E+02  0.45594000000E+02  0.51100000000E-03 0.  1.
         11   -1    0    0    0    0 -0.00000000000E+00 -0.00000000000E+00 -0.45593999997E+02  0.45594000000E+02  0.51100000000E-03 0. -1.
         23    2    1    2    0    0  0.00000000000E+00  0.13322676296E-14  0.00000000000E+00  0.91188000000E+02  0.91188000000E+02 0.  0.
    9900012    2    3    3    0    0  0.25326619073E+02 -0.18272784997E+01 -0.26664643020E+02  0.54367085186E+02  0.40000002297E+02 0.  0.
         12    1    3    3    0    0 -0.25326619073E+02  0.18272784997E+01  0.26664643020E+02  0.36820914814E+02  0.00000000000E+00 0. -1.
         11    1    4    4    0    0  0.54251780132E+01 -0.22232472989E+01 -0.16336840287E+02  0.17357065877E+02  0.51100000000E-03 0. -1.
        -11    1    4    4    0    0  0.85719226590E+01  0.14687520073E+02 -0.26029536894E+01  0.17203966756E+02  0.51100000000E-03 0.  1.
        -12    1    4    4    0    0  0.11329518400E+02 -0.14291551273E+02 -0.77248490441E+01  0.19806052553E+02  0.00000000000E+00 0.  1.
</event>
<event>
 8    1  0.2530183E-006  0.9118800E+02  0.7816164E-02  0.1184000E+00
        -11   -1    0    0    0    0  0.00000000000E+00  0.00000000000E+00  0.45593999997E+02  0.45594000000E+02  0.51100000000E-03 0.  1.
         11   -1    0    0    0    0 -0.00000000000E+00 -0.00000000000E+00 -0.45593999997E+02  0.45594000000E+02  0.51100000000E-03 0. -1.
         23    2    1    2    0    0  0.35527136788E-14  0.00000000000E+00  0.00000000000E+00  0.91188000000E+02  0.91188000000E+02 0.  0.
    9900012    2    3    3    0    0 -0.17819865638E+02  0.29194272427E+02 -0.13635494829E+02  0.54367083755E+02  0.39999999036E+02 0.  0.
         12    1    3    3    0    0  0.17819865638E+02 -0.29194272427E+02  0.13635494829E+02  0.36820916245E+02  0.00000000000E+00 0. -1.
         11    1    4    4    0    0  0.10980853490E+00  0.19651135648E+02 -0.43191486474E+01  0.20120492923E+02  0.51100000000E-03 0. -1.
        -11    1    4    4    0    0 -0.14445561312E+02  0.11645113483E+02  0.51195410709E+01  0.19248184607E+02  0.51100000000E-03 0.  1.
         12    1    4    4    0    0 -0.34841128615E+01 -0.21019767046E+01 -0.14435887252E+02  0.14998406224E+02  0.00000000000E+00 0. -1.
</event>
<event>
 8    1  0.2530183E-006  0.9118800E+02  0.7816164E-02  0.1184000E+00
        -11   -1    0    0    0    0  0.00000000000E+00  0.00000000000E+00  0.45593999997E+02  0.45594000000E+02  0.51100000000E-03 0.  1.
         11   -1    0    0    0    0 -0.00000000000E+00 -0.00000000000E+00 -0.45593999997E+02  0.45594000000E+02  0.51100000000E-03 0. -1.
         23    2    1    2    0    0  0.00000000000E+00  0.00000000000E+00  0.00000000000E+00  0.91188000000E+02  0.91188000000E+02 0.  0.
    9900012    2    3    3    0    0 -0.21427692569E+02  0.24573162424E+02 -0.17111244846E+02  0.54367068175E+02  0.39999963518E+02 0.  0.
        -12    1    3    3    0    0  0.21427692569E+02 -0.24573162424E+02  0.17111244846E+02  0.36820931825E+02  0.00000000000E+00 0.  1.
         11    1    4    4    0    0 -0.16824293002E+02  0.25615831839E+01 -0.18395544455E+02  0.25060219462E+02  0.51100000000E-03 0. -1.
        -11    1    4    4    0    0 -0.33640257513E+01  0.25215533423E+02  0.27192936897E+01  0.25583869009E+02  0.51100000000E-03 0.  1.
        -12    1    4    4    0    0 -0.12393738149E+01 -0.32039541829E+01 -0.14349940803E+01  0.37229797031E+01  0.00000000000E+00 0.  1.
</event>
<event>
 8    1  0.2530183E-006  0.9118800E+02  0.7816164E-02  0.1184000E+00
        -11   -1    0    0    0    0  0.00000000000E+00  0.00000000000E+00  0.45593999997E+02  0.45594000000E+02  0.51100000000E-03 0. -1.
         11   -1    0    0    0    0 -0.00000000000E+00 -0.00000000000E+00 -0.45593999997E+02  0.45594000000E+02  0.51100000000E-03 0.  1.
         23    2    1    2    0    0  0.00000000000E+00 -0.88817841970E-15  0.00000000000E+00  0.91188000000E+02  0.91188000000E+02 0.  0.
    9900012    2    3    3    0    0  0.14118466015E+02 -0.28937044416E+01  0.33883267985E+02  0.54367075821E+02  0.39999980950E+02 0.  0.
        -12    1    3    3    0    0 -0.14118466015E+02  0.28937044416E+01 -0.33883267985E+02  0.36820924179E+02  0.00000000000E+00 0.  1.
         11    1    4    4    0    0 -0.16790125207E+01  0.49121801303E+01  0.28547170215E+01  0.59243570294E+01  0.51100000000E-03 0. -1.
        -11    1    4    4    0    0  0.15327961508E+02  0.48130115087E+01  0.31970277600E+02  0.35780024229E+02  0.51100000000E-03 0.  1.
        -12    1    4    4    0    0  0.46951702827E+00 -0.12618896081E+02 -0.94172663632E+00  0.12662694563E+02  0.00000000000E+00 0.  1.
</event>
<event>
 8    1  0.2530183E-006  0.9118800E+02  0.7816164E-02  0.1184000E+00
        -11   -1    0    0    0    0  0.00000000000E+00  0.00000000000E+00  0.45593999997E+02  0.45594000000E+02  0.51100000000E-03 0. -1.
         11   -1    0    0    0    0 -0.00000000000E+00 -0.00000000000E+00 -0.45593999997E+02  0.45594000000E+02  0.51100000000E-03 0.  1.
         23    2    1    2    0    0  0.00000000000E+00  0.35527136788E-14  0.17763568394E-14  0.91188000000E+02  0.91188000000E+02 0.  0.
    9900012    2    3    3    0    0 -0.23531850255E+02 -0.26510552808E+02 -0.99610390312E+01  0.54367086307E+02  0.40000004853E+02 0.  0.
        -12    1    3    3    0    0  0.23531850255E+02  0.26510552808E+02  0.99610390312E+01  0.36820913693E+02  0.00000000000E+00 0.  1.
         11    1    4    4    0    0 -0.21054224193E+02 -0.10879540887E+02  0.31446318118E+00  0.23701131906E+02  0.51100000000E-03 0. -1.
        -11    1    4    4    0    0 -0.71881126860E+01 -0.20341328004E+02 -0.10515121465E+02  0.24000132680E+02  0.51100000000E-03 0.  1.
        -12    1    4    4    0    0  0.47104866236E+01  0.47103160828E+01  0.23961925286E+00  0.66658217211E+01  0.00000000000E+00 0.  1.
</event>
<event>
 8    1  0.2530183E-006  0.9118800E+02  0.7816164E-02  0.1184000E+00
        -11   -1    0    0    0    0  0.00000000000E+00  0.00000000000E+00  0.45593999997E+02  0.45594000000E+02  0.51100000000E-03 0.  1.
         11   -1    0    0    0    0 -0.00000000000E+00 -0.00000000000E+00 -0.45593999997E+02  0.45594000000E+02  0.51100000000E-03 0. -1.
         23    2    1    2    0    0  0.00000000000E+00 -0.35527136788E-14 -0.35527136788E-14  0.91188000000E+02  0.91188000000E+02 0.  0.
    9900012    2    3    3    0    0  0.15173122076E+02  0.22464417900E+02  0.24918081044E+02  0.54367021359E+02  0.39999856792E+02 0.  0.
         12    1    3    3    0    0 -0.15173122076E+02 -0.22464417900E+02 -0.24918081044E+02  0.36820978641E+02  0.00000000000E+00 0. -1.
         11    1    4    4    0    0 -0.91881601571E+01  0.16211067292E+02  0.12961843139E+02  0.22698686474E+02  0.51100000000E-03 0. -1.
        -11    1    4    4    0    0 -0.53939912905E+00  0.34237929017E+01  0.41770245355E+01  0.54277843993E+01  0.51100000000E-03 0.  1.
         12    1    4    4    0    0  0.24900681363E+02  0.28295577060E+01  0.77792133693E+01  0.26240550485E+02  0.00000000000E+00 0. -1.
</event>
<event>
 8    1  0.2530183E-006  0.9118800E+02  0.7816164E-02  0.1184000E+00
        -11   -1    0    0    0    0  0.00000000000E+00  0.00000000000E+00  0.45593999997E+02  0.45594000000E+02  0.51100000000E-03 0. -1.
         11   -1    0    0    0    0 -0.00000000000E+00 -0.00000000000E+00 -0.45593999997E+02  0.45594000000E+02  0.51100000000E-03 0.  1.
         23    2    1    2    0    0  0.00000000000E+00  0.00000000000E+00  0.00000000000E+00  0.91188000000E+02  0.91188000000E+02 0.  0.
    9900012    2    3    3    0    0 -0.19577963513E+02 -0.29563566719E+02  0.99235727981E+01  0.54367103358E+02  0.40000043725E+02 0.  0.
        -12    1    3    3    0    0  0.19577963513E+02  0.29563566719E+02 -0.99235727981E+01  0.36820896642E+02  0.00000000000E+00 0.  1.
         11    1    4    4    0    0 -0.45282274052E+01  0.47014595269E+01  0.21005267723E+01  0.68571698315E+01  0.51100000000E-03 0. -1.
        -11    1    4    4    0    0 -0.42705460372E+00 -0.62485897056E+01  0.13974557594E+02  0.15313899215E+02  0.51100000000E-03 0.  1.
         12    1    4    4    0    0 -0.14622681504E+02 -0.28016436541E+02 -0.61515115686E+01  0.32196034311E+02  0.00000000000E+00 0. -1.
</event>
<event>
 8    1  0.2530183E-006  0.9118800E+02  0.7816164E-02  0.1184000E+00
        -11   -1    0    0    0    0  0.00000000000E+00  0.00000000000E+00  0.45593999997E+02  0.45594000000E+02  0.51100000000E-03 0.  1.
         11   -1    0    0    0    0 -0.00000000000E+00 -0.00000000000E+00 -0.45593999997E+02  0.45594000000E+02  0.51100000000E-03 0. -1.
         23    2    1    2    0    0  0.00000000000E+00  0.00000000000E+00  0.00000000000E+00  0.91188000000E+02  0.91188000000E+02 0.  0.
    9900012    2    3    3    0    0  0.15323550623E+02  0.32640468159E+02  0.74543953449E+01  0.54367090515E+02  0.40000014448E+02 0.  0.
        -12    1    3    3    0    0 -0.15323550623E+02 -0.32640468159E+02 -0.74543953449E+01  0.36820909485E+02  0.00000000000E+00 0.  1.
         11    1    4    4    0    0  0.23040232579E+02  0.16934287881E+02  0.17152507207E+02  0.33344128825E+02  0.51100000000E-03 0.  1.
        -11    1    4    4    0    0 -0.72892862226E+01  0.10705925659E+02 -0.93851301788E+01  0.15994724336E+02  0.51100000000E-03 0. -1.
        -12    1    4    4    0    0 -0.42739573328E+00  0.50002546182E+01 -0.31298168344E+00  0.50282373546E+01  0.00000000000E+00 0.  1.
</event>
<event>
 8    1  0.2530183E-006  0.9118800E+02  0.7816164E-02  0.1184000E+00
        -11   -1    0    0    0    0  0.00000000000E+00  0.00000000000E+00  0.45593999997E+02  0.45594000000E+02  0.51100000000E-03 0.  1.
         11   -1    0    0    0    0 -0.00000000000E+00 -0.00000000000E+00 -0.45593999997E+02  0.45594000000E+02  0.51100000000E-03 0. -1.
         23    2    1    2    0    0  0.00000000000E+00  0.35527136788E-14 -0.26645352591E-14  0.91188000000E+02  0.91188000000E+02 0.  0.
    9900012    2    3    3    0    0  0.31973735272E+02  0.17668329664E+02  0.46142070794E+01  0.54367074872E+02  0.39999978785E+02 0.  0.
        -12    1    3    3    0    0 -0.31973735272E+02 -0.17668329664E+02 -0.46142070794E+01  0.36820925128E+02  0.00000000000E+00 0.  1.
         11    1    4    4    0    0 -0.36434102483E+01  0.20571372868E+01 -0.10065904015E+02  0.10900856662E+02  0.51100000000E-03 0. -1.
        -11    1    4    4    0    0  0.46449677339E+01  0.73499387842E+01  0.47542209901E+01  0.99095884306E+01  0.51100000000E-03 0.  1.
         12    1    4    4    0    0  0.30972177786E+02  0.82612535926E+01  0.99258901048E+01  0.33556629779E+02  0.00000000000E+00 0. -1.
</event>
<event>
 8    1  0.2530183E-006  0.9118800E+02  0.7816164E-02  0.1184000E+00
        -11   -1    0    0    0    0  0.00000000000E+00  0.00000000000E+00  0.45593999997E+02  0.45594000000E+02  0.51100000000E-03 0. -1.
         11   -1    0    0    0    0 -0.00000000000E+00 -0.00000000000E+00 -0.45593999997E+02  0.45594000000E+02  0.51100000000E-03 0.  1.
         23    2    1    2    0    0  0.00000000000E+00  0.00000000000E+00 -0.17763568394E-14  0.91188000000E+02  0.91188000000E+02 0.  0.
    9900012    2    3    3    0    0 -0.20943416420E+02 -0.26936248900E+02 -0.13841635948E+02  0.54367094500E+02  0.40000023531E+02 0.  0.
        -12    1    3    3    0    0  0.20943416420E+02  0.26936248900E+02  0.13841635948E+02  0.36820905500E+02  0.00000000000E+00 0.  1.
         11    1    4    4    0    0 -0.84427742517E+00  0.19160983259E+01  0.89772439423E+00  0.22781893060E+01  0.51100000000E-03 0. -1.
        -11    1    4    4    0    0  0.94054333257E+01 -0.12461496719E+02 -0.98935650736E+00  0.15643845534E+02  0.51100000000E-03 0.  1.
         12    1    4    4    0    0 -0.29504572320E+02 -0.16390850507E+02 -0.13750003835E+02  0.36445059660E+02  0.00000000000E+00 0. -1.
</event>
<event>
 8    1  0.2530183E-006  0.9118800E+02  0.7816164E-02  0.1184000E+00
        -11   -1    0    0    0    0  0.00000000000E+00  0.00000000000E+00  0.45593999997E+02  0.45594000000E+02  0.51100000000E-03 0.  1.
         11   -1    0    0    0    0 -0.00000000000E+00 -0.00000000000E+00 -0.45593999997E+02  0.45594000000E+02  0.51100000000E-03 0. -1.
         23    2    1    2    0    0  0.35527136788E-14 -0.17763568394E-14  0.00000000000E+00  0.91188000000E+02  0.91188000000E+02 0.  0.
    9900012    2    3    3    0    0 -0.29405268075E+02  0.53609350276E+01  0.21502780264E+02  0.54367095964E+02  0.40000026870E+02 0.  0.
         12    1    3    3    0    0  0.29405268075E+02 -0.53609350276E+01 -0.21502780264E+02  0.36820904036E+02  0.00000000000E+00 0. -1.
         11    1    4    4    0    0 -0.75309474003E+01 -0.78670003767E+01  0.20994917302E+02  0.23651456962E+02  0.51100000000E-03 0. -1.
        -11    1    4    4    0    0 -0.23645065379E+02  0.11187173902E+02  0.38262657741E+01  0.26436381877E+02  0.51100000000E-03 0.  1.
         12    1    4    4    0    0  0.17707447052E+01  0.20407615027E+01 -0.33184028115E+01  0.42792571250E+01  0.00000000000E+00 0. -1.
</event>
<event>
 8    1  0.2530183E-006  0.9118800E+02  0.7816164E-02  0.1184000E+00
        -11   -1    0    0    0    0  0.00000000000E+00  0.00000000000E+00  0.45593999997E+02  0.45594000000E+02  0.51100000000E-03 0.  1.
         11   -1    0    0    0    0 -0.00000000000E+00 -0.00000000000E+00 -0.45593999997E+02  0.45594000000E+02  0.51100000000E-03 0. -1.
         23    2    1    2    0    0  0.00000000000E+00  0.00000000000E+00  0.00000000000E+00  0.91188000000E+02  0.91188000000E+02 0.  0.
    9900012    2    3    3    0    0  0.27884899779E+02  0.18122406846E+02  0.15804706996E+02  0.54367108799E+02  0.40000056129E+02 0.  0.
         12    1    3    3    0    0 -0.27884899779E+02 -0.18122406846E+02 -0.15804706996E+02  0.36820891201E+02  0.00000000000E+00 0. -1.
         11    1    4    4    0    0 -0.53499433544E+01  0.15802218160E+02  0.10484484378E+02  0.19704223040E+02  0.51100000000E-03 0. -1.
        -11    1    4    4    0    0  0.18608164851E+02  0.30956507137E+01  0.65388602847E+01  0.19965058141E+02  0.51100000000E-03 0.  1.
         12    1    4    4    0    0  0.14626678282E+02 -0.77546202787E+00 -0.12186376659E+01  0.14697827618E+02  0.00000000000E+00 0. -1.
</event>
<event>
 8    1  0.2530183E-006  0.9118800E+02  0.7816164E-02  0.1184000E+00
        -11   -1    0    0    0    0  0.00000000000E+00  0.00000000000E+00  0.45593999997E+02  0.45594000000E+02  0.51100000000E-03 0.  1.
         11   -1    0    0    0    0 -0.00000000000E+00 -0.00000000000E+00 -0.45593999997E+02  0.45594000000E+02  0.51100000000E-03 0. -1.
         23    2    1    2    0    0  0.00000000000E+00  0.99920072216E-15  0.00000000000E+00  0.91188000000E+02  0.91188000000E+02 0.  0.
    9900012    2    3    3    0    0 -0.12433291147E+02 -0.67220557856E+00  0.34651713263E+02  0.54367084460E+02  0.40000000644E+02 0.  0.
         12    1    3    3    0    0  0.12433291147E+02  0.67220557856E+00 -0.34651713263E+02  0.36820915540E+02  0.00000000000E+00 0. -1.
         11    1    4    4    0    0  0.67480850250E+01  0.93620700448E+01  0.15567273509E+02  0.19378467736E+02  0.51100000000E-03 0. -1.
        -11    1    4    4    0    0 -0.11188119745E+02 -0.10406590648E+02  0.11177948619E+01  0.15320594570E+02  0.51100000000E-03 0.  1.
         12    1    4    4    0    0 -0.79932564268E+01  0.37231502504E+00  0.17966644892E+02  0.19668022154E+02  0.00000000000E+00 0. -1.
</event>
<event>
 8    1  0.2530183E-006  0.9118800E+02  0.7816164E-02  0.1184000E+00
        -11   -1    0    0    0    0  0.00000000000E+00  0.00000000000E+00  0.45593999997E+02  0.45594000000E+02  0.51100000000E-03 0. -1.
         11   -1    0    0    0    0 -0.00000000000E+00 -0.00000000000E+00 -0.45593999997E+02  0.45594000000E+02  0.51100000000E-03 0.  1.
         23    2    1    2    0    0  0.00000000000E+00  0.00000000000E+00 -0.35527136788E-14  0.91188000000E+02  0.91188000000E+02 0.  0.
    9900012    2    3    3    0    0 -0.66597873855E+01  0.30531181647E+02  0.19474966826E+02  0.54367079945E+02  0.39999990351E+02 0.  0.
        -12    1    3    3    0    0  0.66597873855E+01 -0.30531181647E+02 -0.19474966826E+02  0.36820920055E+02  0.00000000000E+00 0.  1.
         11    1    4    4    0    0 -0.12702957012E+02  0.23900400081E+02  0.36653874475E+01  0.27313537052E+02  0.51100000000E-03 0. -1.
        -11    1    4    4    0    0 -0.51333078972E+01 -0.98853277397E+00 -0.11577422604E+01  0.53542893474E+01  0.51100000000E-03 0.  1.
         12    1    4    4    0    0  0.11176477524E+02  0.76193143402E+01  0.16967321639E+02  0.21699253546E+02  0.00000000000E+00 0. -1.
</event>
<event>
 8    1  0.2530183E-006  0.9118800E+02  0.7816164E-02  0.1184000E+00
        -11   -1    0    0    0    0  0.00000000000E+00  0.00000000000E+00  0.45593999997E+02  0.45594000000E+02  0.51100000000E-03 0. -1.
         11   -1    0    0    0    0 -0.00000000000E+00 -0.00000000000E+00 -0.45593999997E+02  0.45594000000E+02  0.51100000000E-03 0.  1.
         23    2    1    2    0    0  0.00000000000E+00  0.88817841970E-15  0.00000000000E+00  0.91188000000E+02  0.91188000000E+02 0.  0.
    9900012    2    3    3    0    0  0.24870329827E+02  0.32614503300E+01  0.26955752915E+02  0.54367041577E+02  0.39999902882E+02 0.  0.
        -12    1    3    3    0    0 -0.24870329827E+02 -0.32614503300E+01 -0.26955752915E+02  0.36820958423E+02  0.00000000000E+00 0.  1.
         11    1    4    4    0    0  0.83315824316E+01  0.71331434089E+00  0.53814544379E+01  0.99440502458E+01  0.51100000000E-03 0. -1.
        -11    1    4    4    0    0  0.12144982754E+02 -0.90714049709E+01 -0.42694653780E+01  0.15748629436E+02  0.51100000000E-03 0.  1.
         12    1    4    4    0    0  0.43937646417E+01  0.11619540960E+02  0.25843763855E+02  0.28674361895E+02  0.00000000000E+00 0. -1.
</event>
<event>
 8    1  0.2530183E-006  0.9118800E+02  0.7816164E-02  0.1184000E+00
        -11   -1    0    0    0    0  0.00000000000E+00  0.00000000000E+00  0.45593999997E+02  0.45594000000E+02  0.51100000000E-03 0. -1.
         11   -1    0    0    0    0 -0.00000000000E+00 -0.00000000000E+00 -0.45593999997E+02  0.45594000000E+02  0.51100000000E-03 0.  1.
         23    2    1    2    0    0  0.00000000000E+00  0.00000000000E+00  0.35527136788E-14  0.91188000000E+02  0.91188000000E+02 0.  0.
    9900012    2    3    3    0    0 -0.30003147501E+02  0.10126331548E+02  0.18789544972E+02  0.54367103068E+02  0.40000043064E+02 0.  0.
        -12    1    3    3    0    0  0.30003147501E+02 -0.10126331548E+02 -0.18789544972E+02  0.36820896932E+02  0.00000000000E+00 0.  1.
         11    1    4    4    0    0 -0.21185911970E+02 -0.44675283622E+01  0.22248017601E+02  0.31044741312E+02  0.51100000000E-03 0. -1.
        -11    1    4    4    0    0 -0.13056335624E+02  0.94609401625E+01 -0.76782854336E+00  0.16142083187E+02  0.51100000000E-03 0.  1.
        -12    1    4    4    0    0  0.42391000926E+01  0.51329197481E+01 -0.26906440860E+01  0.71802785693E+01  0.00000000000E+00 0.  1.
</event>
<event>
 8    1  0.2530183E-006  0.9118800E+02  0.7816164E-02  0.1184000E+00
        -11   -1    0    0    0    0  0.00000000000E+00  0.00000000000E+00  0.45593999997E+02  0.45594000000E+02  0.51100000000E-03 0. -1.
         11   -1    0    0    0    0 -0.00000000000E+00 -0.00000000000E+00 -0.45593999997E+02  0.45594000000E+02  0.51100000000E-03 0.  1.
         23    2    1    2    0    0 -0.17763568394E-14  0.35527136788E-14  0.35527136788E-14  0.91188000000E+02  0.91188000000E+02 0.  0.
    9900012    2    3    3    0    0 -0.10471485382E+02  0.20751357685E+02  0.28557131870E+02  0.54367073443E+02  0.39999975527E+02 0.  0.
        -12    1    3    3    0    0  0.10471485382E+02 -0.20751357685E+02 -0.28557131870E+02  0.36820926557E+02  0.00000000000E+00 0.  1.
         11    1    4    4    0    0 -0.18162275482E+00  0.16910961874E+02  0.24056713196E+02  0.29406446034E+02  0.51100000000E-03 0. -1.
        -11    1    4    4    0    0  0.31702417727E+01  0.90368129635E+01  0.43822764132E+01  0.10531797959E+02  0.51100000000E-03 0.  1.
         12    1    4    4    0    0 -0.13460104400E+02 -0.51964171523E+01  0.11814226130E+00  0.14428829449E+02  0.00000000000E+00 0. -1.
</event>
<event>
 8    1  0.2530183E-006  0.9118800E+02  0.7816164E-02  0.1184000E+00
        -11   -1    0    0    0    0  0.00000000000E+00  0.00000000000E+00  0.45593999997E+02  0.45594000000E+02  0.51100000000E-03 0. -1.
         11   -1    0    0    0    0 -0.00000000000E+00 -0.00000000000E+00 -0.45593999997E+02  0.45594000000E+02  0.51100000000E-03 0.  1.
         23    2    1    2    0    0 -0.35527136788E-14  0.00000000000E+00  0.88817841970E-15  0.91188000000E+02  0.91188000000E+02 0.  0.
    9900012    2    3    3    0    0 -0.14241619054E+02 -0.33640278833E+02 -0.46136405101E+01  0.54367112558E+02  0.40000064699E+02 0.  0.
         12    1    3    3    0    0  0.14241619054E+02  0.33640278833E+02  0.46136405101E+01  0.36820887442E+02  0.00000000000E+00 0. -1.
         11    1    4    4    0    0  0.10844744634E+02 -0.17043014515E+02  0.52750055509E+01  0.20878182722E+02  0.51100000000E-03 0. -1.
        -11    1    4    4    0    0 -0.11784689829E+02 -0.13965478736E+02 -0.40002254255E+01  0.18706023479E+02  0.51100000000E-03 0.  1.
         12    1    4    4    0    0 -0.13301673859E+02 -0.26317855820E+01 -0.58884206355E+01  0.14782906357E+02  0.00000000000E+00 0. -1.
</event>
<event>
 8    1  0.2530183E-006  0.9118800E+02  0.7816164E-02  0.1184000E+00
        -11   -1    0    0    0    0  0.00000000000E+00  0.00000000000E+00  0.45593999997E+02  0.45594000000E+02  0.51100000000E-03 0. -1.
         11   -1    0    0    0    0 -0.00000000000E+00 -0.00000000000E+00 -0.45593999997E+02  0.45594000000E+02  0.51100000000E-03 0.  1.
         23    2    1    2    0    0  0.00000000000E+00  0.17763568394E-14  0.35527136788E-14  0.91188000000E+02  0.91188000000E+02 0.  0.
    9900012    2    3    3    0    0  0.24331130684E+02 -0.92384083333E+01  0.26046638010E+02  0.54367089358E+02  0.40000011810E+02 0.  0.
        -12    1    3    3    0    0 -0.24331130684E+02  0.92384083333E+01 -0.26046638010E+02  0.36820910642E+02  0.00000000000E+00 0.  1.
         11    1    4    4    0    0  0.99846464696E+01  0.68998511687E+01  0.20428349689E+02  0.23761704117E+02  0.51100000000E-03 0. -1.
        -11    1    4    4    0    0 -0.12965732160E+01 -0.85149870516E+01  0.94505721637E+01  0.12786689215E+02  0.51100000000E-03 0.  1.
         12    1    4    4    0    0  0.15643057430E+02 -0.76232724504E+01 -0.38322838435E+01  0.17818696026E+02  0.00000000000E+00 0. -1.
</event>
<event>
 8    1  0.2530183E-006  0.9118800E+02  0.7816164E-02  0.1184000E+00
        -11   -1    0    0    0    0  0.00000000000E+00  0.00000000000E+00  0.45593999997E+02  0.45594000000E+02  0.51100000000E-03 0. -1.
         11   -1    0    0    0    0 -0.00000000000E+00 -0.00000000000E+00 -0.45593999997E+02  0.45594000000E+02  0.51100000000E-03 0.  1.
         23    2    1    2    0    0  0.00000000000E+00  0.00000000000E+00  0.35527136788E-14  0.91188000000E+02  0.91188000000E+02 0.  0.
    9900012    2    3    3    0    0 -0.20214508232E+02  0.10025298748E+02 -0.29097209802E+02  0.54367074206E+02  0.39999977267E+02 0.  0.
         12    1    3    3    0    0  0.20214508232E+02 -0.10025298748E+02  0.29097209802E+02  0.36820925794E+02  0.00000000000E+00 0. -1.
         11    1    4    4    0    0 -0.12961584645E+01  0.17629240559E+02 -0.11940814851E+01  0.17717109818E+02  0.51100000000E-03 0. -1.
        -11    1    4    4    0    0 -0.77462163004E+00 -0.10881273704E+01  0.11634610900E+01  0.17713559250E+01  0.51100000000E-03 0.  1.
        -12    1    4    4    0    0 -0.18143728138E+02 -0.65158144405E+01 -0.29066589407E+02  0.34878608463E+02  0.00000000000E+00 0.  1.
</event>
<event>
 8    1  0.2530183E-006  0.9118800E+02  0.7816164E-02  0.1184000E+00
        -11   -1    0    0    0    0  0.00000000000E+00  0.00000000000E+00  0.45593999997E+02  0.45594000000E+02  0.51100000000E-03 0.  1.
         11   -1    0    0    0    0 -0.00000000000E+00 -0.00000000000E+00 -0.45593999997E+02  0.45594000000E+02  0.51100000000E-03 0. -1.
         23    2    1    2    0    0  0.00000000000E+00  0.00000000000E+00  0.35527136788E-14  0.91188000000E+02  0.91188000000E+02 0.  0.
    9900012    2    3    3    0    0  0.19734582147E+02  0.22091569541E+02 -0.21869820249E+02  0.54367079112E+02  0.39999988452E+02 0.  0.
        -12    1    3    3    0    0 -0.19734582147E+02 -0.22091569541E+02  0.21869820249E+02  0.36820920888E+02  0.00000000000E+00 0.  1.
         11    1    4    4    0    0  0.11169435466E+02 -0.31002259832E+01 -0.72394936539E+01  0.13666673275E+02  0.51100000000E-03 0. -1.
        -11    1    4    4    0    0 -0.97928405783E+01  0.85366406737E+01 -0.30660100101E+01  0.13348197565E+02  0.51100000000E-03 0.  1.
         12    1    4    4    0    0  0.18357987259E+02  0.16655154851E+02 -0.11564316585E+02  0.27352208272E+02  0.00000000000E+00 0. -1.
</event>
<event>
 8    1  0.2530183E-006  0.9118800E+02  0.7816164E-02  0.1184000E+00
        -11   -1    0    0    0    0  0.00000000000E+00  0.00000000000E+00  0.45593999997E+02  0.45594000000E+02  0.51100000000E-03 0. -1.
         11   -1    0    0    0    0 -0.00000000000E+00 -0.00000000000E+00 -0.45593999997E+02  0.45594000000E+02  0.51100000000E-03 0.  1.
         23    2    1    2    0    0 -0.35527136788E-14  0.00000000000E+00  0.35527136788E-14  0.91188000000E+02  0.91188000000E+02 0.  0.
    9900012    2    3    3    0    0  0.21242709851E+02 -0.10885773398E+02 -0.28036171453E+02  0.54367086187E+02  0.40000004581E+02 0.  0.
         12    1    3    3    0    0 -0.21242709851E+02  0.10885773398E+02  0.28036171453E+02  0.36820913813E+02  0.00000000000E+00 0. -1.
         11    1    4    4    0    0  0.11941651127E+02  0.64416578345E+01  0.34445017280E+01  0.13998663498E+02  0.51100000000E-03 0. -1.
        -11    1    4    4    0    0 -0.45215024070E+01 -0.40332809655E+01 -0.66975223005E+01  0.90315084338E+01  0.51100000000E-03 0.  1.
        -12    1    4    4    0    0  0.13822561131E+02 -0.13294150267E+02 -0.24783150880E+02  0.31336914256E+02  0.00000000000E+00 0.  1.
</event>
<event>
 8    1  0.2530183E-006  0.9118800E+02  0.7816164E-02  0.1184000E+00
        -11   -1    0    0    0    0  0.00000000000E+00  0.00000000000E+00  0.45593999997E+02  0.45594000000E+02  0.51100000000E-03 0.  1.
         11   -1    0    0    0    0 -0.00000000000E+00 -0.00000000000E+00 -0.45593999997E+02  0.45594000000E+02  0.51100000000E-03 0. -1.
         23    2    1    2    0    0  0.00000000000E+00  0.00000000000E+00  0.00000000000E+00  0.91188000000E+02  0.91188000000E+02 0.  0.
    9900012    2    3    3    0    0  0.29079393736E+02  0.79698203456E+01  0.21134042845E+02  0.54367123539E+02  0.40000089733E+02 0.  0.
         12    1    3    3    0    0 -0.29079393736E+02 -0.79698203456E+01 -0.21134042845E+02  0.36820876461E+02  0.00000000000E+00 0. -1.
         11    1    4    4    0    0  0.17559047079E+02  0.33437903366E+01 -0.91858530485E+01  0.20096789909E+02  0.51100000000E-03 0. -1.
        -11    1    4    4    0    0  0.56303163892E+01  0.75334361561E+01  0.17945317508E+02  0.20260492188E+02  0.51100000000E-03 0.  1.
         12    1    4    4    0    0  0.58900302670E+01 -0.29074061471E+01  0.12374578385E+02  0.14009841443E+02  0.00000000000E+00 0. -1.
</event>
<event>
 8    1  0.2530183E-006  0.9118800E+02  0.7816164E-02  0.1184000E+00
        -11   -1    0    0    0    0  0.00000000000E+00  0.00000000000E+00  0.45593999997E+02  0.45594000000E+02  0.51100000000E-03 0. -1.
         11   -1    0    0    0    0 -0.00000000000E+00 -0.00000000000E+00 -0.45593999997E+02  0.45594000000E+02  0.51100000000E-03 0.  1.
         23    2    1    2    0    0  0.71054273576E-14  0.00000000000E+00  0.00000000000E+00  0.91188000000E+02  0.91188000000E+02 0.  0.
    9900012    2    3    3    0    0 -0.29024891133E+02 -0.20243926668E+02  0.10174457251E+02  0.54367075886E+02  0.39999981098E+02 0.  0.
         12    1    3    3    0    0  0.29024891133E+02  0.20243926668E+02 -0.10174457251E+02  0.36820924114E+02  0.00000000000E+00 0. -1.
         11    1    4    4    0    0  0.43333024607E+01  0.40213299667E+01 -0.72085879534E+00  0.59555220242E+01  0.51100000000E-03 0. -1.
        -11    1    4    4    0    0 -0.18250736165E+02 -0.14587404730E+01  0.10387687388E+02  0.21050447593E+02  0.51100000000E-03 0.  1.
        -12    1    4    4    0    0 -0.15107457429E+02 -0.22806516162E+02  0.50762865793E+00  0.27361106269E+02  0.00000000000E+00 0.  1.
</event>
<event>
 8    1  0.2530183E-006  0.9118800E+02  0.7816164E-02  0.1184000E+00
        -11   -1    0    0    0    0  0.00000000000E+00  0.00000000000E+00  0.45593999997E+02  0.45594000000E+02  0.51100000000E-03 0.  1.
         11   -1    0    0    0    0 -0.00000000000E+00 -0.00000000000E+00 -0.45593999997E+02  0.45594000000E+02  0.51100000000E-03 0. -1.
         23    2    1    2    0    0  0.35527136788E-14  0.00000000000E+00  0.00000000000E+00  0.91188000000E+02  0.91188000000E+02 0.  0.
    9900012    2    3    3    0    0 -0.22189439970E+02  0.15515587292E+02 -0.24953384640E+02  0.54367134988E+02  0.40000115833E+02 0.  0.
        -12    1    3    3    0    0  0.22189439970E+02 -0.15515587292E+02  0.24953384640E+02  0.36820865012E+02  0.00000000000E+00 0.  1.
         11    1    4    4    0    0 -0.31136167612E+01  0.19385612535E+02 -0.55629284091E+01  0.20406929104E+02  0.51100000000E-03 0. -1.
        -11    1    4    4    0    0  0.44158120300E+00  0.15142435114E+01  0.32346910944E+01  0.35987711942E+01  0.51100000000E-03 0.  1.
        -12    1    4    4    0    0 -0.19517404411E+02 -0.53842687540E+01 -0.22625147326E+02  0.30361434691E+02  0.00000000000E+00 0.  1.
</event>
<event>
 8    1  0.2530183E-006  0.9118800E+02  0.7816164E-02  0.1184000E+00
        -11   -1    0    0    0    0  0.00000000000E+00  0.00000000000E+00  0.45593999997E+02  0.45594000000E+02  0.51100000000E-03 0.  1.
         11   -1    0    0    0    0 -0.00000000000E+00 -0.00000000000E+00 -0.45593999997E+02  0.45594000000E+02  0.51100000000E-03 0. -1.
         23    2    1    2    0    0  0.88817841970E-15  0.71054273576E-14 -0.88817841970E-15  0.91188000000E+02  0.91188000000E+02 0.  0.
    9900012    2    3    3    0    0  0.33935464481E+01  0.36353703325E+02 -0.47612328563E+01  0.54367119494E+02  0.40000080510E+02 0.  0.
        -12    1    3    3    0    0 -0.33935464481E+01 -0.36353703325E+02  0.47612328563E+01  0.36820880506E+02  0.00000000000E+00 0.  1.
         11    1    4    4    0    0 -0.30758424648E+01  0.23275163666E+01 -0.87187410380E+01  0.95338651582E+01  0.51100000000E-03 0. -1.
        -11    1    4    4    0    0  0.16488534973E+02  0.25774377733E+02  0.72456239895E+01  0.31443431752E+02  0.51100000000E-03 0.  1.
         12    1    4    4    0    0 -0.10019146060E+02  0.82518092252E+01 -0.32881158078E+01  0.13389822584E+02  0.00000000000E+00 0. -1.
</event>
<event>
 8    1  0.2530183E-006  0.9118800E+02  0.7816164E-02  0.1184000E+00
        -11   -1    0    0    0    0  0.00000000000E+00  0.00000000000E+00  0.45593999997E+02  0.45594000000E+02  0.51100000000E-03 0. -1.
         11   -1    0    0    0    0 -0.00000000000E+00 -0.00000000000E+00 -0.45593999997E+02  0.45594000000E+02  0.51100000000E-03 0.  1.
         23    2    1    2    0    0  0.88817841970E-15  0.88817841970E-15  0.00000000000E+00  0.91188000000E+02  0.91188000000E+02 0.  0.
    9900012    2    3    3    0    0 -0.61787943371E+01  0.73727669014E+01  0.35542145157E+02  0.54367091896E+02  0.40000017596E+02 0.  0.
        -12    1    3    3    0    0  0.61787943371E+01 -0.73727669014E+01 -0.35542145157E+02  0.36820908104E+02  0.00000000000E+00 0.  1.
         11    1    4    4    0    0  0.48172596943E+01  0.14538266640E+02  0.55361987648E+01  0.16285474659E+02  0.51100000000E-03 0.  1.
        -11    1    4    4    0    0 -0.76047846958E+01 -0.91191771404E+01  0.31674509998E+02  0.33827011779E+02  0.51100000000E-03 0. -1.
         12    1    4    4    0    0 -0.33912693355E+01  0.19536774018E+01 -0.16685636064E+01  0.42546054582E+01  0.00000000000E+00 0. -1.
</event>
<event>
 8    1  0.2530183E-006  0.9118800E+02  0.7816164E-02  0.1184000E+00
        -11   -1    0    0    0    0  0.00000000000E+00  0.00000000000E+00  0.45593999997E+02  0.45594000000E+02  0.51100000000E-03 0.  1.
         11   -1    0    0    0    0 -0.00000000000E+00 -0.00000000000E+00 -0.45593999997E+02  0.45594000000E+02  0.51100000000E-03 0. -1.
         23    2    1    2    0    0  0.00000000000E+00  0.00000000000E+00  0.00000000000E+00  0.91188000000E+02  0.91188000000E+02 0.  0.
    9900012    2    3    3    0    0  0.53198382042E+01 -0.34828212623E+02  0.10699296718E+02  0.54367081716E+02  0.39999994389E+02 0.  0.
         12    1    3    3    0    0 -0.53198382042E+01  0.34828212623E+02 -0.10699296718E+02  0.36820918284E+02  0.00000000000E+00 0. -1.
         11    1    4    4    0    0 -0.15270246937E+02 -0.19990853591E+02  0.95775092152E+00  0.25174033366E+02  0.51100000000E-03 0. -1.
        -11    1    4    4    0    0  0.14476169771E+02 -0.83944865318E+01  0.10515617771E+01  0.16767011595E+02  0.51100000000E-03 0.  1.
         12    1    4    4    0    0  0.61139153700E+01 -0.64428724995E+01  0.86899840191E+01  0.12426036755E+02  0.00000000000E+00 0. -1.
</event>
<event>
 8    1  0.2530183E-006  0.9118800E+02  0.7816164E-02  0.1184000E+00
        -11   -1    0    0    0    0  0.00000000000E+00  0.00000000000E+00  0.45593999997E+02  0.45594000000E+02  0.51100000000E-03 0.  1.
         11   -1    0    0    0    0 -0.00000000000E+00 -0.00000000000E+00 -0.45593999997E+02  0.45594000000E+02  0.51100000000E-03 0. -1.
         23    2    1    2    0    0  0.00000000000E+00  0.00000000000E+00  0.88817841970E-15  0.91188000000E+02  0.91188000000E+02 0.  0.
    9900012    2    3    3    0    0  0.84459668084E+01 -0.35147539267E+02  0.70067455319E+01  0.54367104373E+02  0.40000046038E+02 0.  0.
        -12    1    3    3    0    0 -0.84459668084E+01  0.35147539267E+02 -0.70067455319E+01  0.36820895627E+02  0.00000000000E+00 0.  1.
         11    1    4    4    0    0  0.17256067020E+02 -0.18800403339E+02 -0.34414520712E+01  0.25750157424E+02  0.51100000000E-03 0. -1.
        -11    1    4    4    0    0 -0.10360904752E+02 -0.54639856515E+01 -0.21368763476E+01  0.11906709338E+02  0.51100000000E-03 0.  1.
         12    1    4    4    0    0  0.15508045399E+01 -0.10883150276E+02  0.12585073951E+02  0.16710237610E+02  0.00000000000E+00 0. -1.
</event>
<event>
 8    1  0.2530183E-006  0.9118800E+02  0.7816164E-02  0.1184000E+00
        -11   -1    0    0    0    0  0.00000000000E+00  0.00000000000E+00  0.45593999997E+02  0.45594000000E+02  0.51100000000E-03 0.  1.
         11   -1    0    0    0    0 -0.00000000000E+00 -0.00000000000E+00 -0.45593999997E+02  0.45594000000E+02  0.51100000000E-03 0. -1.
         23    2    1    2    0    0  0.00000000000E+00  0.35527136788E-14 -0.35527136788E-14  0.91188000000E+02  0.91188000000E+02 0.  0.
    9900012    2    3    3    0    0 -0.11417599664E+02  0.17050333224E+02 -0.30572923744E+02  0.54367094098E+02  0.40000022616E+02 0.  0.
        -12    1    3    3    0    0  0.11417599664E+02 -0.17050333224E+02  0.30572923744E+02  0.36820905902E+02  0.00000000000E+00 0.  1.
         11    1    4    4    0    0  0.39936121530E+01  0.96678704312E+01 -0.14583493710E+02  0.17947003810E+02  0.51100000000E-03 0. -1.
        -11    1    4    4    0    0  0.22806659249E+01 -0.83454779007E+01 -0.18514095068E+01  0.88473813004E+01  0.51100000000E-03 0.  1.
         12    1    4    4    0    0 -0.17691877742E+02  0.15727940694E+02 -0.14138020528E+02  0.27572708988E+02  0.00000000000E+00 0. -1.
</event>
<event>
 8    1  0.2530183E-006  0.9118800E+02  0.7816164E-02  0.1184000E+00
        -11   -1    0    0    0    0  0.00000000000E+00  0.00000000000E+00  0.45593999997E+02  0.45594000000E+02  0.51100000000E-03 0.  1.
         11   -1    0    0    0    0 -0.00000000000E+00 -0.00000000000E+00 -0.45593999997E+02  0.45594000000E+02  0.51100000000E-03 0. -1.
         23    2    1    2    0    0  0.35527136788E-14 -0.35527136788E-14 -0.13322676296E-14  0.91188000000E+02  0.91188000000E+02 0.  0.
    9900012    2    3    3    0    0 -0.28204068700E+02  0.23544462372E+02  0.24430832314E+01  0.54367083997E+02  0.39999999588E+02 0.  0.
        -12    1    3    3    0    0  0.28204068700E+02 -0.23544462372E+02 -0.24430832314E+01  0.36820916003E+02  0.00000000000E+00 0.  1.
         11    1    4    4    0    0 -0.33215466280E+01  0.10628437729E+02 -0.14509473576E+02  0.18289920291E+02  0.51100000000E-03 0. -1.
        -11    1    4    4    0    0 -0.12140746614E+02  0.14562365179E+02  0.92257645871E+01  0.21084945825E+02  0.51100000000E-03 0.  1.
        -12    1    4    4    0    0 -0.12741775458E+02 -0.16463405362E+01  0.77267922200E+01  0.14992217881E+02  0.00000000000E+00 0.  1.
</event>
<event>
 8    1  0.2530183E-006  0.9118800E+02  0.7816164E-02  0.1184000E+00
        -11   -1    0    0    0    0  0.00000000000E+00  0.00000000000E+00  0.45593999997E+02  0.45594000000E+02  0.51100000000E-03 0.  1.
         11   -1    0    0    0    0 -0.00000000000E+00 -0.00000000000E+00 -0.45593999997E+02  0.45594000000E+02  0.51100000000E-03 0. -1.
         23    2    1    2    0    0 -0.71054273576E-14  0.22204460493E-15 -0.17763568394E-14  0.91188000000E+02  0.91188000000E+02 0.  0.
    9900012    2    3    3    0    0  0.33530600608E+02  0.85895749871E+00  0.15190221600E+02  0.54367057354E+02  0.39999938849E+02 0.  0.
         12    1    3    3    0    0 -0.33530600608E+02 -0.85895749871E+00 -0.15190221600E+02  0.36820942646E+02  0.00000000000E+00 0. -1.
         11    1    4    4    0    0  0.14765615957E+02 -0.84284004353E+01  0.22699844410E+02  0.28360964105E+02  0.51100000000E-03 0. -1.
        -11    1    4    4    0    0  0.12207258447E+02 -0.69951667596E+00 -0.68411843636E+00  0.12246407664E+02  0.51100000000E-03 0.  1.
         12    1    4    4    0    0  0.65577262041E+01  0.99868746100E+01 -0.68255043736E+01  0.13759685585E+02  0.00000000000E+00 0. -1.
</event>
<event>
 8    1  0.2530183E-006  0.9118800E+02  0.7816164E-02  0.1184000E+00
        -11   -1    0    0    0    0  0.00000000000E+00  0.00000000000E+00  0.45593999997E+02  0.45594000000E+02  0.51100000000E-03 0. -1.
         11   -1    0    0    0    0 -0.00000000000E+00 -0.00000000000E+00 -0.45593999997E+02  0.45594000000E+02  0.51100000000E-03 0.  1.
         23    2    1    2    0    0  0.00000000000E+00  0.17763568394E-14  0.00000000000E+00  0.91188000000E+02  0.91188000000E+02 0.  0.
    9900012    2    3    3    0    0 -0.25025026304E+02  0.13102455526E+02  0.23618909223E+02  0.54367093504E+02  0.40000021260E+02 0.  0.
        -12    1    3    3    0    0  0.25025026304E+02 -0.13102455526E+02 -0.23618909223E+02  0.36820906496E+02  0.00000000000E+00 0.  1.
         11    1    4    4    0    0  0.34719498645E+01 -0.43421987192E+01  0.51446357360E+01  0.75747212949E+01  0.51100000000E-03 0. -1.
        -11    1    4    4    0    0 -0.26223041557E+02  0.82430772032E+01  0.17188318261E+01  0.27541797570E+02  0.51100000000E-03 0.  1.
         12    1    4    4    0    0 -0.22739346115E+01  0.92015770417E+01  0.16755441660E+02  0.19250574638E+02  0.00000000000E+00 0. -1.
</event>
<event>
 8    1  0.2530183E-006  0.9118800E+02  0.7816164E-02  0.1184000E+00
        -11   -1    0    0    0    0  0.00000000000E+00  0.00000000000E+00  0.45593999997E+02  0.45594000000E+02  0.51100000000E-03 0. -1.
         11   -1    0    0    0    0 -0.00000000000E+00 -0.00000000000E+00 -0.45593999997E+02  0.45594000000E+02  0.51100000000E-03 0.  1.
         23    2    1    2    0    0  0.00000000000E+00 -0.35527136788E-14  0.35527136788E-14  0.91188000000E+02  0.91188000000E+02 0.  0.
    9900012    2    3    3    0    0  0.85801242774E+01 -0.16774248918E+02  0.31635208740E+02  0.54367076717E+02  0.39999982992E+02 0.  0.
        -12    1    3    3    0    0 -0.85801242774E+01  0.16774248918E+02 -0.31635208740E+02  0.36820923283E+02  0.00000000000E+00 0.  1.
         11    1    4    4    0    0  0.92494518153E+01 -0.37987278906E+01  0.15781256755E+01  0.10122903407E+02  0.51100000000E-03 0. -1.
        -11    1    4    4    0    0  0.97051820834E+01 -0.18363191138E+02  0.19672566855E+02  0.28607817725E+02  0.51100000000E-03 0.  1.
        -12    1    4    4    0    0 -0.10374509621E+02  0.53876701107E+01  0.10384516209E+02  0.15636355586E+02  0.00000000000E+00 0.  1.
</event>
<event>
 8    1  0.2530183E-006  0.9118800E+02  0.7816164E-02  0.1184000E+00
        -11   -1    0    0    0    0  0.00000000000E+00  0.00000000000E+00  0.45593999997E+02  0.45594000000E+02  0.51100000000E-03 0. -1.
         11   -1    0    0    0    0 -0.00000000000E+00 -0.00000000000E+00 -0.45593999997E+02  0.45594000000E+02  0.51100000000E-03 0.  1.
         23    2    1    2    0    0  0.44408920985E-15  0.35527136788E-14  0.00000000000E+00  0.91188000000E+02  0.91188000000E+02 0.  0.
    9900012    2    3    3    0    0  0.31904489072E+01  0.25727115458E+02  0.26148036365E+02  0.54367038038E+02  0.39999894816E+02 0.  0.
        -12    1    3    3    0    0 -0.31904489072E+01 -0.25727115458E+02 -0.26148036365E+02  0.36820961962E+02  0.00000000000E+00 0.  1.
         11    1    4    4    0    0  0.10493736649E+02 -0.14231381640E+01 -0.47868046294E+00  0.10600611602E+02  0.51100000000E-03 0. -1.
        -11    1    4    4    0    0 -0.75878023149E+01  0.12571907503E+02  0.15594687713E+01  0.14766839383E+02  0.51100000000E-03 0.  1.
         12    1    4    4    0    0  0.28451457276E+00  0.14578346119E+02  0.25067248057E+02  0.28999587053E+02  0.00000000000E+00 0. -1.
</event>
<event>
 8    1  0.2530183E-006  0.9118800E+02  0.7816164E-02  0.1184000E+00
        -11   -1    0    0    0    0  0.00000000000E+00  0.00000000000E+00  0.45593999997E+02  0.45594000000E+02  0.51100000000E-03 0. -1.
         11   -1    0    0    0    0 -0.00000000000E+00 -0.00000000000E+00 -0.45593999997E+02  0.45594000000E+02  0.51100000000E-03 0.  1.
         23    2    1    2    0    0  0.00000000000E+00  0.00000000000E+00  0.00000000000E+00  0.91188000000E+02  0.91188000000E+02 0.  0.
    9900012    2    3    3    0    0  0.34384598903E+01  0.11640451795E+02  0.34762857333E+02  0.54367090528E+02  0.40000014477E+02 0.  0.
        -12    1    3    3    0    0 -0.34384598903E+01 -0.11640451795E+02 -0.34762857333E+02  0.36820909472E+02  0.00000000000E+00 0.  1.
         11    1    4    4    0    0 -0.10155748045E+02  0.30568774946E+01  0.28344660421E+02  0.30263897519E+02  0.51100000000E-03 0. -1.
        -11    1    4    4    0    0  0.62486328586E+01  0.92144938724E+01  0.10812989544E+02  0.15520085472E+02  0.51100000000E-03 0.  1.
         12    1    4    4    0    0  0.73455750763E+01 -0.63091957220E+00 -0.43947926330E+01  0.85831075372E+01  0.00000000000E+00 0. -1.
</event>
<event>
 8    1  0.2530183E-006  0.9118800E+02  0.7816164E-02  0.1184000E+00
        -11   -1    0    0    0    0  0.00000000000E+00  0.00000000000E+00  0.45593999997E+02  0.45594000000E+02  0.51100000000E-03 0.  1.
         11   -1    0    0    0    0 -0.00000000000E+00 -0.00000000000E+00 -0.45593999997E+02  0.45594000000E+02  0.51100000000E-03 0. -1.
         23    2    1    2    0    0  0.00000000000E+00  0.41633363423E-15 -0.71054273576E-14  0.91188000000E+02  0.91188000000E+02 0.  0.
    9900012    2    3    3    0    0 -0.91910545506E+01  0.16851332650E+00  0.35654964001E+02  0.54367077437E+02  0.39999984633E+02 0.  0.
         12    1    3    3    0    0  0.91910545506E+01 -0.16851332650E+00 -0.35654964001E+02  0.36820922563E+02  0.00000000000E+00 0. -1.
         11    1    4    4    0    0 -0.37580864018E+01 -0.61309022044E+00 -0.53850950520E+01  0.65953272854E+01  0.51100000000E-03 0. -1.
        -11    1    4    4    0    0 -0.29680603179E+01 -0.62767442013E+01  0.39541794535E+02  0.40146736045E+02  0.51100000000E-03 0.  1.
        -12    1    4    4    0    0 -0.24649078309E+01  0.70583477482E+01  0.14982645183E+01  0.76250141060E+01  0.00000000000E+00 0.  1.
</event>
<event>
 8    1  0.2530183E-006  0.9118800E+02  0.7816164E-02  0.1184000E+00
        -11   -1    0    0    0    0  0.00000000000E+00  0.00000000000E+00  0.45593999997E+02  0.45594000000E+02  0.51100000000E-03 0. -1.
         11   -1    0    0    0    0 -0.00000000000E+00 -0.00000000000E+00 -0.45593999997E+02  0.45594000000E+02  0.51100000000E-03 0.  1.
         23    2    1    2    0    0  0.00000000000E+00  0.35527136788E-14 -0.17763568394E-14  0.91188000000E+02  0.91188000000E+02 0.  0.
    9900012    2    3    3    0    0 -0.28066695811E+02 -0.21910080175E+02 -0.93802471262E+01  0.54367081174E+02  0.39999993152E+02 0.  0.
        -12    1    3    3    0    0  0.28066695811E+02  0.21910080175E+02  0.93802471262E+01  0.36820918826E+02  0.00000000000E+00 0.  1.
         11    1    4    4    0    0 -0.17098983120E+02 -0.67603032386E+01 -0.13484084765E+01  0.18436244989E+02  0.51100000000E-03 0. -1.
        -11    1    4    4    0    0 -0.18112286348E+02 -0.73743457076E+01 -0.13765672350E+02  0.23915050217E+02  0.51100000000E-03 0.  1.
        -12    1    4    4    0    0  0.71445736566E+01 -0.77754312292E+01  0.57338337004E+01  0.12015785968E+02  0.00000000000E+00 0.  1.
</event>
<event>
 8    1  0.2530183E-006  0.9118800E+02  0.7816164E-02  0.1184000E+00
        -11   -1    0    0    0    0  0.00000000000E+00  0.00000000000E+00  0.45593999997E+02  0.45594000000E+02  0.51100000000E-03 0.  1.
         11   -1    0    0    0    0 -0.00000000000E+00 -0.00000000000E+00 -0.45593999997E+02  0.45594000000E+02  0.51100000000E-03 0. -1.
         23    2    1    2    0    0  0.35527136788E-14 -0.35527136788E-14 -0.17763568394E-14  0.91188000000E+02  0.91188000000E+02 0.  0.
    9900012    2    3    3    0    0 -0.17246479410E+02  0.29578184699E+02  0.13545138270E+02  0.54367070722E+02  0.39999969325E+02 0.  0.
        -12    1    3    3    0    0  0.17246479410E+02 -0.29578184699E+02 -0.13545138270E+02  0.36820929278E+02  0.00000000000E+00 0.  1.
         11    1    4    4    0    0 -0.85228476554E+00  0.48398325709E+01 -0.25350308169E+00  0.49208365864E+01  0.51100000000E-03 0.  1.
        -11    1    4    4    0    0  0.64859259550E+01 -0.13008165045E+01 -0.65023261901E+01  0.92757536198E+01  0.51100000000E-03 0. -1.
        -12    1    4    4    0    0 -0.22880120599E+02  0.26039168633E+02  0.20300967542E+02  0.40170480516E+02  0.00000000000E+00 0.  1.
</event>
<event>
 8    1  0.2530183E-006  0.9118800E+02  0.7816164E-02  0.1184000E+00
        -11   -1    0    0    0    0  0.00000000000E+00  0.00000000000E+00  0.45593999997E+02  0.45594000000E+02  0.51100000000E-03 0.  1.
         11   -1    0    0    0    0 -0.00000000000E+00 -0.00000000000E+00 -0.45593999997E+02  0.45594000000E+02  0.51100000000E-03 0. -1.
         23    2    1    2    0    0  0.00000000000E+00  0.17763568394E-14  0.00000000000E+00  0.91188000000E+02  0.91188000000E+02 0.  0.
    9900012    2    3    3    0    0  0.32747335367E+02  0.10273111499E+02 -0.13336267024E+02  0.54367071011E+02  0.39999969984E+02 0.  0.
        -12    1    3    3    0    0 -0.32747335367E+02 -0.10273111499E+02  0.13336267024E+02  0.36820928989E+02  0.00000000000E+00 0.  1.
         11    1    4    4    0    0  0.34656970786E+02  0.52010444020E+01  0.10650420580E+01  0.35061243586E+02  0.51100000000E-03 0. -1.
        -11    1    4    4    0    0 -0.27996439021E+00  0.85383026038E+01 -0.72983394592E+01  0.11235957927E+02  0.51100000000E-03 0.  1.
         12    1    4    4    0    0 -0.16296710291E+01 -0.34662355071E+01 -0.71029696230E+01  0.80698694982E+01  0.00000000000E+00 0. -1.
</event>
<event>
 8    1  0.2530183E-006  0.9118800E+02  0.7816164E-02  0.1184000E+00
        -11   -1    0    0    0    0  0.00000000000E+00  0.00000000000E+00  0.45593999997E+02  0.45594000000E+02  0.51100000000E-03 0. -1.
         11   -1    0    0    0    0 -0.00000000000E+00 -0.00000000000E+00 -0.45593999997E+02  0.45594000000E+02  0.51100000000E-03 0.  1.
         23    2    1    2    0    0  0.00000000000E+00  0.17763568394E-14  0.00000000000E+00  0.91188000000E+02  0.91188000000E+02 0.  0.
    9900012    2    3    3    0    0  0.26619330055E+02  0.70940647706E+01 -0.24430766231E+02  0.54367125130E+02  0.40000093360E+02 0.  0.
         12    1    3    3    0    0 -0.26619330055E+02 -0.70940647706E+01  0.24430766231E+02  0.36820874870E+02  0.00000000000E+00 0. -1.
         11    1    4    4    0    0  0.15573396278E+02  0.10853723194E+02  0.22343963516E+01  0.19113516320E+02  0.51100000000E-03 0. -1.
        -11    1    4    4    0    0  0.15419331751E+02 -0.69015792658E+01 -0.15816338326E+02  0.23141826771E+02  0.51100000000E-03 0.  1.
         12    1    4    4    0    0 -0.43733979740E+01  0.31419208424E+01 -0.10848824256E+02  0.12111782039E+02  0.00000000000E+00 0. -1.
</event>
<event>
 8    1  0.2530183E-006  0.9118800E+02  0.7816164E-02  0.1184000E+00
        -11   -1    0    0    0    0  0.00000000000E+00  0.00000000000E+00  0.45593999997E+02  0.45594000000E+02  0.51100000000E-03 0.  1.
         11   -1    0    0    0    0 -0.00000000000E+00 -0.00000000000E+00 -0.45593999997E+02  0.45594000000E+02  0.51100000000E-03 0. -1.
         23    2    1    2    0    0  0.00000000000E+00 -0.17763568394E-14  0.00000000000E+00  0.91188000000E+02  0.91188000000E+02 0.  0.
    9900012    2    3    3    0    0  0.10972871872E+02  0.11060900776E+02  0.33362141913E+02  0.54367082628E+02  0.39999996468E+02 0.  0.
         12    1    3    3    0    0 -0.10972871872E+02 -0.11060900776E+02 -0.33362141913E+02  0.36820917372E+02  0.00000000000E+00 0. -1.
         11    1    4    4    0    0 -0.38048779944E+01  0.17808505338E+02  0.15065369880E+02  0.23634409847E+02  0.51100000000E-03 0. -1.
        -11    1    4    4    0    0  0.27965473374E+00  0.81934823080E+00  0.13724157727E+02  0.13751437884E+02  0.51100000000E-03 0.  1.
         12    1    4    4    0    0  0.14498095133E+02 -0.75669527934E+01  0.45726143060E+01  0.16981234898E+02  0.00000000000E+00 0. -1.
</event>
<event>
 8    1  0.2530183E-006  0.9118800E+02  0.7816164E-02  0.1184000E+00
        -11   -1    0    0    0    0  0.00000000000E+00  0.00000000000E+00  0.45593999997E+02  0.45594000000E+02  0.51100000000E-03 0. -1.
         11   -1    0    0    0    0 -0.00000000000E+00 -0.00000000000E+00 -0.45593999997E+02  0.45594000000E+02  0.51100000000E-03 0.  1.
         23    2    1    2    0    0  0.00000000000E+00 -0.88817841970E-15  0.00000000000E+00  0.91188000000E+02  0.91188000000E+02 0.  0.
    9900012    2    3    3    0    0  0.10116972876E+02  0.63016350890E+01  0.34838421277E+02  0.54367090967E+02  0.40000015477E+02 0.  0.
        -12    1    3    3    0    0 -0.10116972876E+02 -0.63016350890E+01 -0.34838421277E+02  0.36820909033E+02  0.00000000000E+00 0.  1.
         11    1    4    4    0    0 -0.45072090808E+01 -0.11134266761E+01  0.23922925541E+02  0.24369263825E+02  0.51100000000E-03 0.  1.
        -11    1    4    4    0    0  0.77964224394E+01 -0.42915457896E+01 -0.40761652257E+01  0.97886000698E+01  0.51100000000E-03 0. -1.
        -12    1    4    4    0    0  0.68277595171E+01  0.11706607555E+02  0.14991660962E+02  0.20209227072E+02  0.00000000000E+00 0.  1.
</event>
<event>
 8    1  0.2530183E-006  0.9118800E+02  0.7816164E-02  0.1184000E+00
        -11   -1    0    0    0    0  0.00000000000E+00  0.00000000000E+00  0.45593999997E+02  0.45594000000E+02  0.51100000000E-03 0.  1.
         11   -1    0    0    0    0 -0.00000000000E+00 -0.00000000000E+00 -0.45593999997E+02  0.45594000000E+02  0.51100000000E-03 0. -1.
         23    2    1    2    0    0  0.88817841970E-15  0.00000000000E+00 -0.35527136788E-14  0.91188000000E+02  0.91188000000E+02 0.  0.
    9900012    2    3    3    0    0 -0.29888731708E+01 -0.25295650985E+02  0.26588999464E+02  0.54367106283E+02  0.40000050394E+02 0.  0.
         12    1    3    3    0    0  0.29888731708E+01  0.25295650985E+02 -0.26588999464E+02  0.36820893717E+02  0.00000000000E+00 0. -1.
         11    1    4    4    0    0 -0.99670846934E-01  0.22528341991E+01 -0.53196019778E+01  0.57778336485E+01  0.51100000000E-03 0. -1.
        -11    1    4    4    0    0  0.10278420261E+02 -0.16219047130E+02  0.15237166517E+02  0.24512744779E+02  0.51100000000E-03 0.  1.
        -12    1    4    4    0    0 -0.13167622585E+02 -0.11329438053E+02  0.16671434925E+02  0.24076527856E+02  0.00000000000E+00 0.  1.
</event>
<event>
 8    1  0.2530183E-006  0.9118800E+02  0.7816164E-02  0.1184000E+00
        -11   -1    0    0    0    0  0.00000000000E+00  0.00000000000E+00  0.45593999997E+02  0.45594000000E+02  0.51100000000E-03 0.  1.
         11   -1    0    0    0    0 -0.00000000000E+00 -0.00000000000E+00 -0.45593999997E+02  0.45594000000E+02  0.51100000000E-03 0. -1.
         23    2    1    2    0    0  0.17763568394E-14  0.35527136788E-14  0.17763568394E-14  0.91188000000E+02  0.91188000000E+02 0.  0.
    9900012    2    3    3    0    0 -0.10131738596E+02  0.31715290897E+02 -0.15724240672E+02  0.54367305434E+02  0.40000504394E+02 0.  0.
        -12    1    3    3    0    0  0.10131738596E+02 -0.31715290897E+02  0.15724240672E+02  0.36820694566E+02  0.00000000000E+00 0.  1.
         11    1    4    4    0    0 -0.17712874820E+02  0.26641445034E+02 -0.20296451724E+02  0.37887444896E+02  0.51100000000E-03 0. -1.
        -11    1    4    4    0    0  0.42265156254E+01 -0.21195675398E+01 -0.29265245443E+01  0.55606247003E+01  0.51100000000E-03 0.  1.
        -12    1    4    4    0    0  0.33546205990E+01  0.71934134024E+01  0.74987355959E+01  0.10919235838E+02  0.00000000000E+00 0.  1.
</event>
<event>
 8    1  0.2530183E-006  0.9118800E+02  0.7816164E-02  0.1184000E+00
        -11   -1    0    0    0    0  0.00000000000E+00  0.00000000000E+00  0.45593999997E+02  0.45594000000E+02  0.51100000000E-03 0. -1.
         11   -1    0    0    0    0 -0.00000000000E+00 -0.00000000000E+00 -0.45593999997E+02  0.45594000000E+02  0.51100000000E-03 0.  1.
         23    2    1    2    0    0  0.71054273576E-14 -0.71054273576E-14  0.35527136788E-14  0.91188000000E+02  0.91188000000E+02 0.  0.
    9900012    2    3    3    0    0  0.22347055251E+02 -0.16453636400E+02  0.24200559242E+02  0.54367080718E+02  0.39999992112E+02 0.  0.
        -12    1    3    3    0    0 -0.22347055251E+02  0.16453636400E+02 -0.24200559242E+02  0.36820919282E+02  0.00000000000E+00 0.  1.
         11    1    4    4    0    0  0.41192052912E+01 -0.10558892546E+02  0.21990517439E+02  0.24739460817E+02  0.51100000000E-03 0. -1.
        -11    1    4    4    0    0  0.63813343676E+01  0.73185734355E+01  0.60905219197E+01  0.11461998210E+02  0.51100000000E-03 0.  1.
        -12    1    4    4    0    0  0.11846515593E+02 -0.13213317289E+02 -0.38804801170E+01  0.18165621691E+02  0.00000000000E+00 0.  1.
</event>
<event>
 8    1  0.2530183E-006  0.9118800E+02  0.7816164E-02  0.1184000E+00
        -11   -1    0    0    0    0  0.00000000000E+00  0.00000000000E+00  0.45593999997E+02  0.45594000000E+02  0.51100000000E-03 0.  1.
         11   -1    0    0    0    0 -0.00000000000E+00 -0.00000000000E+00 -0.45593999997E+02  0.45594000000E+02  0.51100000000E-03 0. -1.
         23    2    1    2    0    0  0.00000000000E+00 -0.35527136788E-14 -0.10658141036E-13  0.91188000000E+02  0.91188000000E+02 0.  0.
    9900012    2    3    3    0    0 -0.20799345002E+02  0.21517532974E+02  0.21451372532E+02  0.54367104284E+02  0.40000045837E+02 0.  0.
        -12    1    3    3    0    0  0.20799345002E+02 -0.21517532974E+02 -0.21451372532E+02  0.36820895716E+02  0.00000000000E+00 0.  1.
         11    1    4    4    0    0 -0.45562042357E+01  0.18547121085E+02 -0.18994760788E+01  0.19192777475E+02  0.51100000000E-03 0. -1.
        -11    1    4    4    0    0  0.13913627519E+01  0.63949452543E+01  0.11980867855E+01  0.66533170163E+01  0.51100000000E-03 0.  1.
        -12    1    4    4    0    0 -0.17634503518E+02 -0.34245333657E+01  0.22152761825E+02  0.28521009793E+02  0.00000000000E+00 0.  1.
</event>
<event>
 8    1  0.2530183E-006  0.9118800E+02  0.7816164E-02  0.1184000E+00
        -11   -1    0    0    0    0  0.00000000000E+00  0.00000000000E+00  0.45593999997E+02  0.45594000000E+02  0.51100000000E-03 0.  1.
         11   -1    0    0    0    0 -0.00000000000E+00 -0.00000000000E+00 -0.45593999997E+02  0.45594000000E+02  0.51100000000E-03 0. -1.
         23    2    1    2    0    0  0.00000000000E+00  0.35527136788E-14  0.00000000000E+00  0.91188000000E+02  0.91188000000E+02 0.  0.
    9900012    2    3    3    0    0 -0.84773936047E+01 -0.30304289964E+02 -0.19119745279E+02  0.54367070461E+02  0.39999968731E+02 0.  0.
        -12    1    3    3    0    0  0.84773936047E+01  0.30304289964E+02  0.19119745279E+02  0.36820929539E+02  0.00000000000E+00 0.  1.
         11    1    4    4    0    0  0.49558095516E+01  0.28828780963E+00 -0.16207727974E+02  0.16950917513E+02  0.51100000000E-03 0. -1.
        -11    1    4    4    0    0  0.38546773598E+01 -0.56369643991E+01 -0.16794997233E+01  0.70323982230E+01  0.51100000000E-03 0.  1.
         12    1    4    4    0    0 -0.17287880516E+02 -0.24955613374E+02 -0.12325175812E+01  0.30383754726E+02  0.00000000000E+00 0. -1.
</event>
<event>
 8    1  0.2530183E-006  0.9118800E+02  0.7816164E-02  0.1184000E+00
        -11   -1    0    0    0    0  0.00000000000E+00  0.00000000000E+00  0.45593999997E+02  0.45594000000E+02  0.51100000000E-03 0. -1.
         11   -1    0    0    0    0 -0.00000000000E+00 -0.00000000000E+00 -0.45593999997E+02  0.45594000000E+02  0.51100000000E-03 0.  1.
         23    2    1    2    0    0 -0.17763568394E-14  0.00000000000E+00  0.00000000000E+00  0.91188000000E+02  0.91188000000E+02 0.  0.
    9900012    2    3    3    0    0  0.13635902248E+02 -0.20486135895E+02  0.27389065106E+02  0.54367075495E+02  0.39999980205E+02 0.  0.
        -12    1    3    3    0    0 -0.13635902248E+02  0.20486135895E+02 -0.27389065106E+02  0.36820924505E+02  0.00000000000E+00 0.  1.
         11    1    4    4    0    0 -0.55219780517E+01 -0.90121161297E+01  0.15722395129E+02  0.18944766760E+02  0.51100000000E-03 0. -1.
        -11    1    4    4    0    0 -0.48124155221E+01  0.18085834557E+01 -0.99135397159E+00  0.52357521171E+01  0.51100000000E-03 0.  1.
         12    1    4    4    0    0  0.23970295822E+02 -0.13282603221E+02  0.12658023949E+02  0.30186556618E+02  0.00000000000E+00 0. -1.
</event>
<event>
 8    1  0.2530183E-006  0.9118800E+02  0.7816164E-02  0.1184000E+00
        -11   -1    0    0    0    0  0.00000000000E+00  0.00000000000E+00  0.45593999997E+02  0.45594000000E+02  0.51100000000E-03 0.  1.
         11   -1    0    0    0    0 -0.00000000000E+00 -0.00000000000E+00 -0.45593999997E+02  0.45594000000E+02  0.51100000000E-03 0. -1.
         23    2    1    2    0    0  0.00000000000E+00  0.00000000000E+00  0.00000000000E+00  0.91188000000E+02  0.91188000000E+02 0.  0.
    9900012    2    3    3    0    0  0.24425173335E+02 -0.15086642010E+02  0.23056103384E+02  0.54367085253E+02  0.40000002451E+02 0.  0.
         12    1    3    3    0    0 -0.24425173335E+02  0.15086642010E+02 -0.23056103384E+02  0.36820914747E+02  0.00000000000E+00 0. -1.
         11    1    4    4    0    0  0.20855652303E+02 -0.14290355330E+02 -0.28616175700E+01  0.25443296638E+02  0.51100000000E-03 0. -1.
        -11    1    4    4    0    0  0.57216323037E+01  0.35785537131E+01  0.20746809160E+02  0.21816810342E+02  0.51100000000E-03 0.  1.
         12    1    4    4    0    0 -0.21521112721E+01 -0.43748403931E+01  0.51709117936E+01  0.71069782728E+01  0.00000000000E+00 0. -1.
</event>
<event>
 8    1  0.2530183E-006  0.9118800E+02  0.7816164E-02  0.1184000E+00
        -11   -1    0    0    0    0  0.00000000000E+00  0.00000000000E+00  0.45593999997E+02  0.45594000000E+02  0.51100000000E-03 0.  1.
         11   -1    0    0    0    0 -0.00000000000E+00 -0.00000000000E+00 -0.45593999997E+02  0.45594000000E+02  0.51100000000E-03 0. -1.
         23    2    1    2    0    0 -0.44408920985E-15  0.00000000000E+00  0.00000000000E+00  0.91188000000E+02  0.91188000000E+02 0.  0.
    9900012    2    3    3    0    0  0.28134183405E+01 -0.35487083952E+02  0.94090497671E+01  0.54367100124E+02  0.40000036353E+02 0.  0.
         12    1    3    3    0    0 -0.28134183405E+01  0.35487083952E+02 -0.94090497671E+01  0.36820899876E+02  0.00000000000E+00 0. -1.
         11    1    4    4    0    0  0.64222776889E+01  0.26327692892E+01  0.39275913740E+01  0.79751551148E+01  0.51100000000E-03 0. -1.
        -11    1    4    4    0    0 -0.29578911594E+01 -0.13312047788E+02  0.14577097644E+02  0.19961250272E+02  0.51100000000E-03 0.  1.
         12    1    4    4    0    0 -0.65096818907E+00 -0.24807805452E+02 -0.90956392505E+01  0.26430694738E+02  0.00000000000E+00 0. -1.
</event>
<event>
 8    1  0.2530183E-006  0.9118800E+02  0.7816164E-02  0.1184000E+00
        -11   -1    0    0    0    0  0.00000000000E+00  0.00000000000E+00  0.45593999997E+02  0.45594000000E+02  0.51100000000E-03 0.  1.
         11   -1    0    0    0    0 -0.00000000000E+00 -0.00000000000E+00 -0.45593999997E+02  0.45594000000E+02  0.51100000000E-03 0. -1.
         23    2    1    2    0    0  0.00000000000E+00  0.00000000000E+00 -0.88817841970E-15  0.91188000000E+02  0.91188000000E+02 0.  0.
    9900012    2    3    3    0    0  0.32896487755E+02 -0.15455768364E+02  0.58923934250E+01  0.54367082269E+02  0.39999995648E+02 0.  0.
         12    1    3    3    0    0 -0.32896487755E+02  0.15455768364E+02 -0.58923934250E+01  0.36820917731E+02  0.00000000000E+00 0. -1.
         11    1    4    4    0    0 -0.19935187743E+01  0.57519255534E+01 -0.36969684850E+01  0.71222426887E+01  0.51100000000E-03 0. -1.
        -11    1    4    4    0    0  0.22185721981E+02 -0.16386520809E+02 -0.41839838696E+01  0.27896774819E+02  0.51100000000E-03 0.  1.
         12    1    4    4    0    0  0.12704284548E+02 -0.48211731090E+01  0.13773345780E+02  0.19348064761E+02  0.00000000000E+00 0. -1.
</event>
<event>
 8    1  0.2530183E-006  0.9118800E+02  0.7816164E-02  0.1184000E+00
        -11   -1    0    0    0    0  0.00000000000E+00  0.00000000000E+00  0.45593999997E+02  0.45594000000E+02  0.51100000000E-03 0. -1.
         11   -1    0    0    0    0 -0.00000000000E+00 -0.00000000000E+00 -0.45593999997E+02  0.45594000000E+02  0.51100000000E-03 0.  1.
         23    2    1    2    0    0  0.17763568394E-14 -0.35527136788E-14  0.00000000000E+00  0.91188000000E+02  0.91188000000E+02 0.  0.
    9900012    2    3    3    0    0  0.10441370888E+02 -0.24748804563E+02  0.25184402197E+02  0.54367086549E+02  0.40000005406E+02 0.  0.
        -12    1    3    3    0    0 -0.10441370888E+02  0.24748804563E+02 -0.25184402197E+02  0.36820913451E+02  0.00000000000E+00 0.  1.
         11    1    4    4    0    0  0.93186701734E+01  0.37920471653E+01  0.13849680100E+02  0.17118144603E+02  0.51100000000E-03 0. -1.
        -11    1    4    4    0    0  0.11202617140E+01 -0.29052929098E+02  0.33715854428E+01  0.29269357085E+02  0.51100000000E-03 0.  1.
        -12    1    4    4    0    0  0.24390001100E-02  0.51207736953E+00  0.79631366549E+01  0.79795848617E+01  0.00000000000E+00 0.  1.
</event>
<event>
 8    1  0.2530183E-006  0.9118800E+02  0.7816164E-02  0.1184000E+00
        -11   -1    0    0    0    0  0.00000000000E+00  0.00000000000E+00  0.45593999997E+02  0.45594000000E+02  0.51100000000E-03 0.  1.
         11   -1    0    0    0    0 -0.00000000000E+00 -0.00000000000E+00 -0.45593999997E+02  0.45594000000E+02  0.51100000000E-03 0. -1.
         23    2    1    2    0    0  0.00000000000E+00  0.35527136788E-14  0.00000000000E+00  0.91188000000E+02  0.91188000000E+02 0.  0.
    9900012    2    3    3    0    0 -0.25994052902E+02 -0.17913152815E+02  0.18952709107E+02  0.54367122600E+02  0.40000087591E+02 0.  0.
         12    1    3    3    0    0  0.25994052902E+02  0.17913152815E+02 -0.18952709107E+02  0.36820877400E+02  0.00000000000E+00 0. -1.
         11    1    4    4    0    0 -0.20117179861E+02 -0.89907995627E+01  0.17620991752E+02  0.28214087845E+02  0.51100000000E-03 0. -1.
        -11    1    4    4    0    0 -0.13043696939E+02  0.50818592206E+00 -0.32515274768E+01  0.13452461260E+02  0.51100000000E-03 0.  1.
         12    1    4    4    0    0  0.71668238986E+01 -0.94305391740E+01  0.45832448318E+01  0.12700573495E+02  0.00000000000E+00 0. -1.
</event>
<event>
 8    1  0.2530183E-006  0.9118800E+02  0.7816164E-02  0.1184000E+00
        -11   -1    0    0    0    0  0.00000000000E+00  0.00000000000E+00  0.45593999997E+02  0.45594000000E+02  0.51100000000E-03 0. -1.
         11   -1    0    0    0    0 -0.00000000000E+00 -0.00000000000E+00 -0.45593999997E+02  0.45594000000E+02  0.51100000000E-03 0.  1.
         23    2    1    2    0    0  0.00000000000E+00  0.22204460493E-15  0.00000000000E+00  0.91188000000E+02  0.91188000000E+02 0.  0.
    9900012    2    3    3    0    0  0.31774050889E+02  0.19520452399E+01 -0.18503476629E+02  0.54367089665E+02  0.40000012510E+02 0.  0.
         12    1    3    3    0    0 -0.31774050889E+02 -0.19520452399E+01  0.18503476629E+02  0.36820910335E+02  0.00000000000E+00 0. -1.
         11    1    4    4    0    0  0.10881485269E+02  0.98534555764E+01  0.76857295746E+01  0.16570085932E+02  0.51100000000E-03 0. -1.
        -11    1    4    4    0    0  0.22957435889E+02 -0.48522989775E+01 -0.23708499966E+02  0.33356882931E+02  0.51100000000E-03 0.  1.
         12    1    4    4    0    0 -0.20648702681E+01 -0.30491113590E+01 -0.24807062371E+01  0.44401208023E+01  0.00000000000E+00 0. -1.
</event>
<event>
 8    1  0.2530183E-006  0.9118800E+02  0.7816164E-02  0.1184000E+00
        -11   -1    0    0    0    0  0.00000000000E+00  0.00000000000E+00  0.45593999997E+02  0.45594000000E+02  0.51100000000E-03 0. -1.
         11   -1    0    0    0    0 -0.00000000000E+00 -0.00000000000E+00 -0.45593999997E+02  0.45594000000E+02  0.51100000000E-03 0.  1.
         23    2    1    2    0    0 -0.17763568394E-14 -0.35527136788E-14  0.00000000000E+00  0.91188000000E+02  0.91188000000E+02 0.  0.
    9900012    2    3    3    0    0  0.89549121096E+01  0.23643868008E+02  0.26768784262E+02  0.54366935972E+02  0.39999662135E+02 0.  0.
        -12    1    3    3    0    0 -0.89549121096E+01 -0.23643868008E+02 -0.26768784262E+02  0.36821064028E+02  0.00000000000E+00 0.  1.
         11    1    4    4    0    0 -0.37954988025E+01  0.18054251804E+02  0.22012139893E+02  0.28721004897E+02  0.51100000000E-03 0. -1.
        -11    1    4    4    0    0 -0.10286647708E+01 -0.60312421314E+01  0.45411580478E+01  0.76194586116E+01  0.51100000000E-03 0.  1.
         12    1    4    4    0    0  0.13779075683E+02  0.11620858336E+02  0.21548632088E+00  0.18026472464E+02  0.00000000000E+00 0. -1.
</event>
<event>
 8    1  0.2530183E-006  0.9118800E+02  0.7816164E-02  0.1184000E+00
        -11   -1    0    0    0    0  0.00000000000E+00  0.00000000000E+00  0.45593999997E+02  0.45594000000E+02  0.51100000000E-03 0. -1.
         11   -1    0    0    0    0 -0.00000000000E+00 -0.00000000000E+00 -0.45593999997E+02  0.45594000000E+02  0.51100000000E-03 0.  1.
         23    2    1    2    0    0  0.00000000000E+00  0.72858385991E-15  0.00000000000E+00  0.91188000000E+02  0.91188000000E+02 0.  0.
    9900012    2    3    3    0    0 -0.35984353830E+02 -0.14194733576E-01  0.78042371608E+01  0.54367081493E+02  0.39999993880E+02 0.  0.
         12    1    3    3    0    0  0.35984353830E+02  0.14194733576E-01 -0.78042371608E+01  0.36820918507E+02  0.00000000000E+00 0. -1.
         11    1    4    4    0    0  0.36640128377E+01 -0.23060454824E+01  0.38956246649E+00  0.43467913474E+01  0.51100000000E-03 0. -1.
        -11    1    4    4    0    0 -0.22167403732E+01  0.53093581876E+01  0.10880063408E+02  0.12307680621E+02  0.51100000000E-03 0.  1.
        -12    1    4    4    0    0 -0.37431626294E+02 -0.30175074388E+01 -0.34653887140E+01  0.37712609524E+02  0.00000000000E+00 0.  1.
</event>
<event>
 8    1  0.2530183E-006  0.9118800E+02  0.7816164E-02  0.1184000E+00
        -11   -1    0    0    0    0  0.00000000000E+00  0.00000000000E+00  0.45593999997E+02  0.45594000000E+02  0.51100000000E-03 0.  1.
         11   -1    0    0    0    0 -0.00000000000E+00 -0.00000000000E+00 -0.45593999997E+02  0.45594000000E+02  0.51100000000E-03 0. -1.
         23    2    1    2    0    0  0.00000000000E+00  0.17763568394E-14  0.35527136788E-14  0.91188000000E+02  0.91188000000E+02 0.  0.
    9900012    2    3    3    0    0 -0.22337556368E+02  0.92751698690E+01 -0.27763007148E+02  0.54367085203E+02  0.40000002336E+02 0.  0.
        -12    1    3    3    0    0  0.22337556368E+02 -0.92751698690E+01  0.27763007148E+02  0.36820914797E+02  0.00000000000E+00 0.  1.
         11    1    4    4    0    0 -0.17500491551E+02  0.18808569023E+02 -0.13694481632E+02  0.29113026305E+02  0.51100000000E-03 0. -1.
        -11    1    4    4    0    0  0.42003809377E+01 -0.42781857857E+01 -0.13514917795E+02  0.14785096445E+02  0.51100000000E-03 0.  1.
         12    1    4    4    0    0 -0.90374457550E+01 -0.52552133679E+01 -0.55360772128E+00  0.10468962452E+02  0.00000000000E+00 0. -1.
</event>
<event>
 8    1  0.2530183E-006  0.9118800E+02  0.7816164E-02  0.1184000E+00
        -11   -1    0    0    0    0  0.00000000000E+00  0.00000000000E+00  0.45593999997E+02  0.45594000000E+02  0.51100000000E-03 0.  1.
         11   -1    0    0    0    0 -0.00000000000E+00 -0.00000000000E+00 -0.45593999997E+02  0.45594000000E+02  0.51100000000E-03 0. -1.
         23    2    1    2    0    0  0.17763568394E-14  0.00000000000E+00  0.00000000000E+00  0.91188000000E+02  0.91188000000E+02 0.  0.
    9900012    2    3    3    0    0  0.13820585269E+02  0.31816862082E+02 -0.12347288305E+02  0.54367125235E+02  0.40000093599E+02 0.  0.
        -12    1    3    3    0    0 -0.13820585269E+02 -0.31816862082E+02  0.12347288305E+02  0.36820874765E+02  0.00000000000E+00 0.  1.
         11    1    4    4    0    0  0.18426612682E+02  0.17724114219E+02 -0.18746331495E+02  0.31703457612E+02  0.51100000000E-03 0. -1.
        -11    1    4    4    0    0 -0.85996426934E+01  0.18453917344E+01  0.17459877445E+01  0.89670395657E+01  0.51100000000E-03 0.  1.
         12    1    4    4    0    0  0.39936152805E+01  0.12247356129E+02  0.46530554457E+01  0.13696628058E+02  0.00000000000E+00 0. -1.
</event>
<event>
 8    1  0.2530183E-006  0.9118800E+02  0.7816164E-02  0.1184000E+00
        -11   -1    0    0    0    0  0.00000000000E+00  0.00000000000E+00  0.45593999997E+02  0.45594000000E+02  0.51100000000E-03 0.  1.
         11   -1    0    0    0    0 -0.00000000000E+00 -0.00000000000E+00 -0.45593999997E+02  0.45594000000E+02  0.51100000000E-03 0. -1.
         23    2    1    2    0    0  0.00000000000E+00  0.17763568394E-14  0.88817841970E-15  0.91188000000E+02  0.91188000000E+02 0.  0.
    9900012    2    3    3    0    0 -0.35429104653E+02  0.74860218658E+01 -0.66721787161E+01  0.54367082729E+02  0.39999996696E+02 0.  0.
        -12    1    3    3    0    0  0.35429104653E+02 -0.74860218658E+01  0.66721787161E+01  0.36820917271E+02  0.00000000000E+00 0.  1.
         11    1    4    4    0    0 -0.43185173970E+01 -0.51105764353E+01 -0.44957709067E+01  0.80609887927E+01  0.51100000000E-03 0. -1.
        -11    1    4    4    0    0 -0.29601795140E+02 -0.36805763971E+01 -0.11727390982E+00  0.29829962648E+02  0.51100000000E-03 0.  1.
        -12    1    4    4    0    0 -0.15087921158E+01  0.16277174698E+02 -0.20591338996E+01  0.16476131288E+02  0.00000000000E+00 0.  1.
</event>
<event>
 8    1  0.2530183E-006  0.9118800E+02  0.7816164E-02  0.1184000E+00
        -11   -1    0    0    0    0  0.00000000000E+00  0.00000000000E+00  0.45593999997E+02  0.45594000000E+02  0.51100000000E-03 0.  1.
         11   -1    0    0    0    0 -0.00000000000E+00 -0.00000000000E+00 -0.45593999997E+02  0.45594000000E+02  0.51100000000E-03 0. -1.
         23    2    1    2    0    0  0.35527136788E-14  0.00000000000E+00  0.00000000000E+00  0.91188000000E+02  0.91188000000E+02 0.  0.
    9900012    2    3    3    0    0 -0.11861338419E+02 -0.32413241508E+02 -0.12824650161E+02  0.54367065385E+02  0.39999957159E+02 0.  0.
        -12    1    3    3    0    0  0.11861338419E+02  0.32413241508E+02  0.12824650161E+02  0.36820934615E+02  0.00000000000E+00 0.  1.
         11    1    4    4    0    0  0.88325335651E+01 -0.69747269648E+01 -0.42141608122E+01  0.12017471324E+02  0.51100000000E-03 0. -1.
        -11    1    4    4    0    0 -0.63968836377E+01 -0.14107804085E+02  0.82138463916E+01  0.17533326244E+02  0.51100000000E-03 0.  1.
         12    1    4    4    0    0 -0.14296988346E+02 -0.11330710458E+02 -0.16824335740E+02  0.24816267817E+02  0.00000000000E+00 0. -1.
</event>
<event>
 8    1  0.2530183E-006  0.9118800E+02  0.7816164E-02  0.1184000E+00
        -11   -1    0    0    0    0  0.00000000000E+00  0.00000000000E+00  0.45593999997E+02  0.45594000000E+02  0.51100000000E-03 0.  1.
         11   -1    0    0    0    0 -0.00000000000E+00 -0.00000000000E+00 -0.45593999997E+02  0.45594000000E+02  0.51100000000E-03 0. -1.
         23    2    1    2    0    0  0.17763568394E-14  0.17763568394E-14 -0.35527136788E-14  0.91188000000E+02  0.91188000000E+02 0.  0.
    9900012    2    3    3    0    0 -0.14494932686E+02 -0.14260036978E+02  0.30697368334E+02  0.54367079984E+02  0.39999990439E+02 0.  0.
         12    1    3    3    0    0  0.14494932686E+02  0.14260036978E+02 -0.30697368334E+02  0.36820920016E+02  0.00000000000E+00 0. -1.
         11    1    4    4    0    0  0.18078870515E+01  0.33047565856E+01  0.62796885839E+01  0.73228656039E+01  0.51100000000E-03 0. -1.
        -11    1    4    4    0    0 -0.89011572330E+01 -0.15317796858E+02  0.31767749641E+02  0.36373828753E+02  0.51100000000E-03 0.  1.
        -12    1    4    4    0    0 -0.74016625045E+01 -0.22469967059E+01 -0.73500698907E+01  0.10670385627E+02  0.00000000000E+00 0.  1.
</event>
<event>
 8    1  0.2530183E-006  0.9118800E+02  0.7816164E-02  0.1184000E+00
        -11   -1    0    0    0    0  0.00000000000E+00  0.00000000000E+00  0.45593999997E+02  0.45594000000E+02  0.51100000000E-03 0.  1.
         11   -1    0    0    0    0 -0.00000000000E+00 -0.00000000000E+00 -0.45593999997E+02  0.45594000000E+02  0.51100000000E-03 0. -1.
         23    2    1    2    0    0  0.00000000000E+00  0.88817841970E-15  0.00000000000E+00  0.91188000000E+02  0.91188000000E+02 0.  0.
    9900012    2    3    3    0    0 -0.36400685340E+02  0.51453693363E+01  0.20724099199E+01  0.54367087441E+02  0.40000007439E+02 0.  0.
        -12    1    3    3    0    0  0.36400685340E+02 -0.51453693363E+01 -0.20724099199E+01  0.36820912559E+02  0.00000000000E+00 0.  1.
         11    1    4    4    0    0 -0.30182762582E+02  0.43787862504E+01 -0.98215721406E+01  0.32041164237E+02  0.51100000000E-03 0. -1.
        -11    1    4    4    0    0 -0.45402560019E+01 -0.83040964012E+01  0.76620303370E+01  0.12176972150E+02  0.51100000000E-03 0.  1.
        -12    1    4    4    0    0 -0.16776667559E+01  0.90706794871E+01  0.42319517234E+01  0.10148951054E+02  0.00000000000E+00 0.  1.
</event>
<event>
 8    1  0.2530183E-006  0.9118800E+02  0.7816164E-02  0.1184000E+00
        -11   -1    0    0    0    0  0.00000000000E+00  0.00000000000E+00  0.45593999997E+02  0.45594000000E+02  0.51100000000E-03 0.  1.
         11   -1    0    0    0    0 -0.00000000000E+00 -0.00000000000E+00 -0.45593999997E+02  0.45594000000E+02  0.51100000000E-03 0. -1.
         23    2    1    2    0    0  0.00000000000E+00  0.00000000000E+00 -0.35527136788E-14  0.91188000000E+02  0.91188000000E+02 0.  0.
    9900012    2    3    3    0    0 -0.17745951979E+02  0.25514537286E+02  0.19745134357E+02  0.54367071775E+02  0.39999971726E+02 0.  0.
        -12    1    3    3    0    0  0.17745951979E+02 -0.25514537286E+02 -0.19745134357E+02  0.36820928225E+02  0.00000000000E+00 0.  1.
         11    1    4    4    0    0  0.53909869634E+01  0.11781921699E+02  0.52959349322E-02  0.12956714386E+02  0.51100000000E-03 0. -1.
        -11    1    4    4    0    0 -0.67077416001E+01  0.12648252970E+02  0.20411248430E+02  0.24931730050E+02  0.51100000000E-03 0.  1.
         12    1    4    4    0    0 -0.16429197342E+02  0.10843626161E+01 -0.67141000748E+00  0.16478627339E+02  0.00000000000E+00 0. -1.
</event>
<event>
 8    1  0.2530183E-006  0.9118800E+02  0.7816164E-02  0.1184000E+00
        -11   -1    0    0    0    0  0.00000000000E+00  0.00000000000E+00  0.45593999997E+02  0.45594000000E+02  0.51100000000E-03 0. -1.
         11   -1    0    0    0    0 -0.00000000000E+00 -0.00000000000E+00 -0.45593999997E+02  0.45594000000E+02  0.51100000000E-03 0.  1.
         23    2    1    2    0    0  0.00000000000E+00  0.00000000000E+00  0.00000000000E+00  0.91188000000E+02  0.91188000000E+02 0.  0.
    9900012    2    3    3    0    0  0.21854523746E+02  0.12243648282E+01  0.29608474881E+02  0.54367067608E+02  0.39999962226E+02 0.  0.
        -12    1    3    3    0    0 -0.21854523746E+02 -0.12243648282E+01 -0.29608474881E+02  0.36820932392E+02  0.00000000000E+00 0.  1.
         11    1    4    4    0    0  0.20959426364E+02  0.17399294356E+02  0.17531442906E+02  0.32394204547E+02  0.51100000000E-03 0. -1.
        -11    1    4    4    0    0  0.39744587444E+01 -0.10666130994E+02  0.10458027164E+02  0.15457457912E+02  0.51100000000E-03 0.  1.
         12    1    4    4    0    0 -0.30793613621E+01 -0.55087985333E+01  0.16190048112E+01  0.65154051492E+01  0.00000000000E+00 0. -1.
</event>
<event>
 8    1  0.2530183E-006  0.9118800E+02  0.7816164E-02  0.1184000E+00
        -11   -1    0    0    0    0  0.00000000000E+00  0.00000000000E+00  0.45593999997E+02  0.45594000000E+02  0.51100000000E-03 0. -1.
         11   -1    0    0    0    0 -0.00000000000E+00 -0.00000000000E+00 -0.45593999997E+02  0.45594000000E+02  0.51100000000E-03 0.  1.
         23    2    1    2    0    0  0.88817841970E-15  0.17763568394E-14 -0.71054273576E-14  0.91188000000E+02  0.91188000000E+02 0.  0.
    9900012    2    3    3    0    0  0.75228656950E+01  0.10560175190E+02 -0.34462560073E+02  0.54367097579E+02  0.40000030551E+02 0.  0.
         12    1    3    3    0    0 -0.75228656950E+01 -0.10560175190E+02  0.34462560073E+02  0.36820902421E+02  0.00000000000E+00 0. -1.
         11    1    4    4    0    0  0.52958711743E+01  0.19191436471E+02 -0.16026094276E+02  0.25557644323E+02  0.51100000000E-03 0. -1.
        -11    1    4    4    0    0 -0.32302772647E+01  0.56515025647E+01 -0.79211995263E+01  0.10252783751E+02  0.51100000000E-03 0.  1.
        -12    1    4    4    0    0  0.54572717854E+01 -0.14282763845E+02 -0.10515266270E+02  0.18556669505E+02  0.00000000000E+00 0.  1.
</event>
<event>
 8    1  0.2530183E-006  0.9118800E+02  0.7816164E-02  0.1184000E+00
        -11   -1    0    0    0    0  0.00000000000E+00  0.00000000000E+00  0.45593999997E+02  0.45594000000E+02  0.51100000000E-03 0. -1.
         11   -1    0    0    0    0 -0.00000000000E+00 -0.00000000000E+00 -0.45593999997E+02  0.45594000000E+02  0.51100000000E-03 0.  1.
         23    2    1    2    0    0 -0.71054273576E-14  0.00000000000E+00  0.00000000000E+00  0.91188000000E+02  0.91188000000E+02 0.  0.
    9900012    2    3    3    0    0 -0.24920049298E+02  0.13409937177E+02  0.23557137622E+02  0.54367163439E+02  0.40000180692E+02 0.  0.
        -12    1    3    3    0    0  0.24920049298E+02 -0.13409937177E+02 -0.23557137622E+02  0.36820836561E+02  0.00000000000E+00 0.  1.
         11    1    4    4    0    0  0.40458579132E+01  0.21007692479E+01 -0.14061391754E+01  0.47706839476E+01  0.51100000000E-03 0. -1.
        -11    1    4    4    0    0  0.24064683683E+01  0.60179270626E+01 -0.30892981626E+01  0.71798537268E+01  0.51100000000E-03 0.  1.
         12    1    4    4    0    0 -0.31372375579E+02  0.52912408668E+01  0.28052574960E+02  0.42416625765E+02  0.00000000000E+00 0. -1.
</event>
<event>
 8    1  0.2530183E-006  0.9118800E+02  0.7816164E-02  0.1184000E+00
        -11   -1    0    0    0    0  0.00000000000E+00  0.00000000000E+00  0.45593999997E+02  0.45594000000E+02  0.51100000000E-03 0. -1.
         11   -1    0    0    0    0 -0.00000000000E+00 -0.00000000000E+00 -0.45593999997E+02  0.45594000000E+02  0.51100000000E-03 0.  1.
         23    2    1    2    0    0  0.00000000000E+00  0.00000000000E+00  0.00000000000E+00  0.91188000000E+02  0.91188000000E+02 0.  0.
    9900012    2    3    3    0    0  0.28337145318E+02  0.19703714423E+02 -0.12827678701E+02  0.54367088717E+02  0.40000010348E+02 0.  0.
         12    1    3    3    0    0 -0.28337145318E+02 -0.19703714423E+02  0.12827678701E+02  0.36820911283E+02  0.00000000000E+00 0. -1.
         11    1    4    4    0    0 -0.69942280411E+01  0.33864848973E+01  0.29931711269E+01  0.83274593668E+01  0.51100000000E-03 0. -1.
        -11    1    4    4    0    0 -0.21245992112E+01  0.95512009964E+00  0.51236264301E+00  0.23850978915E+01  0.51100000000E-03 0.  1.
        -12    1    4    4    0    0  0.37455972571E+02  0.15362109426E+02 -0.16333212471E+02  0.43654531458E+02  0.00000000000E+00 0.  1.
</event>
<event>
 8    1  0.2530183E-006  0.9118800E+02  0.7816164E-02  0.1184000E+00
        -11   -1    0    0    0    0  0.00000000000E+00  0.00000000000E+00  0.45593999997E+02  0.45594000000E+02  0.51100000000E-03 0.  1.
         11   -1    0    0    0    0 -0.00000000000E+00 -0.00000000000E+00 -0.45593999997E+02  0.45594000000E+02  0.51100000000E-03 0. -1.
         23    2    1    2    0    0  0.35527136788E-14  0.35527136788E-14  0.00000000000E+00  0.91188000000E+02  0.91188000000E+02 0.  0.
    9900012    2    3    3    0    0  0.21416005304E+02 -0.28710191976E+02  0.85358282832E+01  0.54367071562E+02  0.39999971241E+02 0.  0.
         12    1    3    3    0    0 -0.21416005304E+02  0.28710191976E+02 -0.85358282832E+01  0.36820928438E+02  0.00000000000E+00 0. -1.
         11    1    4    4    0    0 -0.76680439113E+01 -0.89733655338E+01  0.49626998229E+00  0.11813825400E+02  0.51100000000E-03 0. -1.
        -11    1    4    4    0    0  0.24227443987E+02 -0.17448257795E+02 -0.32690218268E+01  0.30034933764E+02  0.51100000000E-03 0.  1.
         12    1    4    4    0    0  0.48566052282E+01 -0.22885686477E+01  0.11308580128E+02  0.12518312398E+02  0.00000000000E+00 0. -1.
</event>
<event>
 8    1  0.2530183E-006  0.9118800E+02  0.7816164E-02  0.1184000E+00
        -11   -1    0    0    0    0  0.00000000000E+00  0.00000000000E+00  0.45593999997E+02  0.45594000000E+02  0.51100000000E-03 0.  1.
         11   -1    0    0    0    0 -0.00000000000E+00 -0.00000000000E+00 -0.45593999997E+02  0.45594000000E+02  0.51100000000E-03 0. -1.
         23    2    1    2    0    0  0.00000000000E+00  0.00000000000E+00 -0.44408920985E-15  0.91188000000E+02  0.91188000000E+02 0.  0.
    9900012    2    3    3    0    0 -0.36014741907E+02  0.75421247161E+01 -0.13538080840E+01  0.54367108156E+02  0.40000054663E+02 0.  0.
         12    1    3    3    0    0  0.36014741907E+02 -0.75421247161E+01  0.13538080840E+01  0.36820891844E+02  0.00000000000E+00 0. -1.
         11    1    4    4    0    0 -0.52911800368E+01  0.51298956994E+01  0.15129420779E+01  0.75233908619E+01  0.51100000000E-03 0. -1.
        -11    1    4    4    0    0 -0.35275972114E+02  0.87532496813E+01 -0.83647644826E+01  0.37295882798E+02  0.51100000000E-03 0.  1.
         12    1    4    4    0    0  0.45524102437E+01 -0.63410206646E+01  0.54980143206E+01  0.95478344961E+01  0.00000000000E+00 0. -1.
</event>
<event>
 8    1  0.2530183E-006  0.9118800E+02  0.7816164E-02  0.1184000E+00
        -11   -1    0    0    0    0  0.00000000000E+00  0.00000000000E+00  0.45593999997E+02  0.45594000000E+02  0.51100000000E-03 0.  1.
         11   -1    0    0    0    0 -0.00000000000E+00 -0.00000000000E+00 -0.45593999997E+02  0.45594000000E+02  0.51100000000E-03 0. -1.
         23    2    1    2    0    0  0.17763568394E-14 -0.35527136788E-14  0.17763568394E-14  0.91188000000E+02  0.91188000000E+02 0.  0.
    9900012    2    3    3    0    0  0.15912655149E+02  0.30488776179E+02 -0.13153049992E+02  0.54367071293E+02  0.39999970627E+02 0.  0.
        -12    1    3    3    0    0 -0.15912655149E+02 -0.30488776179E+02  0.13153049992E+02  0.36820928707E+02  0.00000000000E+00 0.  1.
         11    1    4    4    0    0  0.15350947612E+02  0.22149724011E+01  0.14375388659E+01  0.15576399249E+02  0.51100000000E-03 0. -1.
        -11    1    4    4    0    0  0.90393124093E+01  0.35759871906E+01 -0.53204266690E+01  0.11081687300E+02  0.51100000000E-03 0.  1.
         12    1    4    4    0    0 -0.84776048720E+01  0.24697816587E+02 -0.92701621886E+01  0.27708984744E+02  0.00000000000E+00 0. -1.
</event>
<event>
 8    1  0.2530183E-006  0.9118800E+02  0.7816164E-02  0.1184000E+00
        -11   -1    0    0    0    0  0.00000000000E+00  0.00000000000E+00  0.45593999997E+02  0.45594000000E+02  0.51100000000E-03 0. -1.
         11   -1    0    0    0    0 -0.00000000000E+00 -0.00000000000E+00 -0.45593999997E+02  0.45594000000E+02  0.51100000000E-03 0.  1.
         23    2    1    2    0    0  0.71054273576E-14  0.00000000000E+00  0.00000000000E+00  0.91188000000E+02  0.91188000000E+02 0.  0.
    9900012    2    3    3    0    0  0.34867484774E+02 -0.97870997749E+01 -0.66523583650E+01  0.54367045528E+02  0.39999911889E+02 0.  0.
         12    1    3    3    0    0 -0.34867484774E+02  0.97870997749E+01  0.66523583650E+01  0.36820954472E+02  0.00000000000E+00 0. -1.
         11    1    4    4    0    0  0.16310811747E+02  0.60863341498E+01  0.45413894934E+00  0.17415288849E+02  0.51100000000E-03 0. -1.
        -11    1    4    4    0    0  0.11312142755E+02  0.44765401248E+01 -0.91954831937E+01  0.15249947431E+02  0.51100000000E-03 0.  1.
         12    1    4    4    0    0  0.72445302710E+01 -0.20349974049E+02  0.20889858793E+01  0.21701809249E+02  0.00000000000E+00 0. -1.
</event>
<event>
 8    1  0.2530183E-006  0.9118800E+02  0.7816164E-02  0.1184000E+00
        -11   -1    0    0    0    0  0.00000000000E+00  0.00000000000E+00  0.45593999997E+02  0.45594000000E+02  0.51100000000E-03 0. -1.
         11   -1    0    0    0    0 -0.00000000000E+00 -0.00000000000E+00 -0.45593999997E+02  0.45594000000E+02  0.51100000000E-03 0.  1.
         23    2    1    2    0    0  0.00000000000E+00 -0.88817841970E-15 -0.17763568394E-14  0.91188000000E+02  0.91188000000E+02 0.  0.
    9900012    2    3    3    0    0  0.35070880938E+02  0.40754334091E+01  0.10449881327E+02  0.54367138155E+02  0.40000123052E+02 0.  0.
        -12    1    3    3    0    0 -0.35070880938E+02 -0.40754334091E+01 -0.10449881327E+02  0.36820861845E+02  0.00000000000E+00 0.  1.
         11    1    4    4    0    0  0.77749835184E+00 -0.13389924722E+01 -0.23528773570E+01  0.28166356964E+01  0.51100000000E-03 0. -1.
        -11    1    4    4    0    0 -0.57371700104E+01 -0.31105321009E+01  0.80260558585E+01  0.10344472079E+02  0.51100000000E-03 0.  1.
         12    1    4    4    0    0  0.40030552597E+02  0.85249579822E+01  0.47767028256E+01  0.41206030380E+02  0.00000000000E+00 0. -1.
</event>
<event>
 8    1  0.2530183E-006  0.9118800E+02  0.7816164E-02  0.1184000E+00
        -11   -1    0    0    0    0  0.00000000000E+00  0.00000000000E+00  0.45593999997E+02  0.45594000000E+02  0.51100000000E-03 0.  1.
         11   -1    0    0    0    0 -0.00000000000E+00 -0.00000000000E+00 -0.45593999997E+02  0.45594000000E+02  0.51100000000E-03 0. -1.
         23    2    1    2    0    0  0.00000000000E+00 -0.71054273576E-14  0.00000000000E+00  0.91188000000E+02  0.91188000000E+02 0.  0.
    9900012    2    3    3    0    0 -0.20668332968E+02 -0.30128337461E+02 -0.45697106573E+01  0.54367096137E+02  0.40000027263E+02 0.  0.
        -12    1    3    3    0    0  0.20668332968E+02  0.30128337461E+02  0.45697106573E+01  0.36820903863E+02  0.00000000000E+00 0.  1.
         11    1    4    4    0    0 -0.96546552406E+01 -0.63309659785E+01 -0.39707845485E+01  0.12209038792E+02  0.51100000000E-03 0. -1.
        -11    1    4    4    0    0 -0.15060447604E+02 -0.13426032597E+02  0.13438480901E+02  0.24241868792E+02  0.51100000000E-03 0.  1.
         12    1    4    4    0    0  0.40467698771E+01 -0.10371338885E+02 -0.14037407010E+02  0.17916188553E+02  0.00000000000E+00 0. -1.
</event>
<event>
 8    1  0.2530183E-006  0.9118800E+02  0.7816164E-02  0.1184000E+00
        -11   -1    0    0    0    0  0.00000000000E+00  0.00000000000E+00  0.45593999997E+02  0.45594000000E+02  0.51100000000E-03 0.  1.
         11   -1    0    0    0    0 -0.00000000000E+00 -0.00000000000E+00 -0.45593999997E+02  0.45594000000E+02  0.51100000000E-03 0. -1.
         23    2    1    2    0    0  0.00000000000E+00  0.00000000000E+00  0.00000000000E+00  0.91188000000E+02  0.91188000000E+02 0.  0.
    9900012    2    3    3    0    0  0.25045684452E+02  0.24418583110E+02  0.11498978366E+02  0.54367081839E+02  0.39999994669E+02 0.  0.
         12    1    3    3    0    0 -0.25045684452E+02 -0.24418583110E+02 -0.11498978366E+02  0.36820918161E+02  0.00000000000E+00 0. -1.
         11    1    4    4    0    0 -0.50499807642E+01 -0.25788174906E+01  0.15544504814E-01  0.56703480724E+01  0.51100000000E-03 0. -1.
        -11    1    4    4    0    0  0.34073115576E+02  0.26028909705E+02  0.87133081243E+01  0.43753892218E+02  0.51100000000E-03 0.  1.
        -12    1    4    4    0    0 -0.39774503600E+01  0.96849089589E+00  0.27701257366E+01  0.49428415490E+01  0.00000000000E+00 0.  1.
</event>
<event>
 8    1  0.2530183E-006  0.9118800E+02  0.7816164E-02  0.1184000E+00
        -11   -1    0    0    0    0  0.00000000000E+00  0.00000000000E+00  0.45593999997E+02  0.45594000000E+02  0.51100000000E-03 0.  1.
         11   -1    0    0    0    0 -0.00000000000E+00 -0.00000000000E+00 -0.45593999997E+02  0.45594000000E+02  0.51100000000E-03 0. -1.
         23    2    1    2    0    0  0.00000000000E+00  0.00000000000E+00  0.35527136788E-14  0.91188000000E+02  0.91188000000E+02 0.  0.
    9900012    2    3    3    0    0  0.21681493337E+02 -0.24330915069E+02  0.17137760285E+02  0.54367035741E+02  0.39999889578E+02 0.  0.
        -12    1    3    3    0    0 -0.21681493337E+02  0.24330915069E+02 -0.17137760285E+02  0.36820964259E+02  0.00000000000E+00 0.  1.
         11    1    4    4    0    0  0.92893145597E+00 -0.48538865509E+01 -0.15381989688E+01  0.51758269510E+01  0.51100000000E-03 0. -1.
        -11    1    4    4    0    0  0.10605001283E+02  0.75154559323E+01 -0.27250892407E+01  0.13280596437E+02  0.51100000000E-03 0.  1.
        -12    1    4    4    0    0  0.10147560598E+02 -0.26992484450E+02  0.21401048495E+02  0.35910612353E+02  0.00000000000E+00 0.  1.
</event>
<event>
 8    1  0.2530183E-006  0.9118800E+02  0.7816164E-02  0.1184000E+00
        -11   -1    0    0    0    0  0.00000000000E+00  0.00000000000E+00  0.45593999997E+02  0.45594000000E+02  0.51100000000E-03 0. -1.
         11   -1    0    0    0    0 -0.00000000000E+00 -0.00000000000E+00 -0.45593999997E+02  0.45594000000E+02  0.51100000000E-03 0.  1.
         23    2    1    2    0    0  0.00000000000E+00  0.00000000000E+00 -0.17763568394E-14  0.91188000000E+02  0.91188000000E+02 0.  0.
    9900012    2    3    3    0    0 -0.10933079893E+02  0.33733602995E+02 -0.99141595326E+01  0.54367098786E+02  0.40000033301E+02 0.  0.
         12    1    3    3    0    0  0.10933079893E+02 -0.33733602995E+02  0.99141595326E+01  0.36820901214E+02  0.00000000000E+00 0. -1.
         11    1    4    4    0    0  0.94925820515E+01  0.81523257971E+01 -0.10142669006E+02  0.16107242617E+02  0.51100000000E-03 0. -1.
        -11    1    4    4    0    0 -0.21368273117E+01  0.19998224608E+00 -0.59907754295E+01  0.63636007391E+01  0.51100000000E-03 0.  1.
         12    1    4    4    0    0 -0.18288834633E+02  0.25381294952E+02  0.62192849032E+01  0.31896255429E+02  0.00000000000E+00 0. -1.
</event>
<event>
 8    1  0.2530183E-006  0.9118800E+02  0.7816164E-02  0.1184000E+00
        -11   -1    0    0    0    0  0.00000000000E+00  0.00000000000E+00  0.45593999997E+02  0.45594000000E+02  0.51100000000E-03 0.  1.
         11   -1    0    0    0    0 -0.00000000000E+00 -0.00000000000E+00 -0.45593999997E+02  0.45594000000E+02  0.51100000000E-03 0. -1.
         23    2    1    2    0    0  0.00000000000E+00 -0.17763568394E-14 -0.35527136788E-14  0.91188000000E+02  0.91188000000E+02 0.  0.
    9900012    2    3    3    0    0 -0.23016672809E+02 -0.13475443706E+02 -0.25385534237E+02  0.54367079876E+02  0.39999990193E+02 0.  0.
        -12    1    3    3    0    0  0.23016672809E+02  0.13475443706E+02  0.25385534237E+02  0.36820920124E+02  0.00000000000E+00 0.  1.
         11    1    4    4    0    0 -0.99821556919E+01  0.33458429635E+01 -0.26418537879E+01  0.10854376495E+02  0.51100000000E-03 0. -1.
        -11    1    4    4    0    0 -0.22195414586E+02 -0.16030770246E+02 -0.13699786205E+02  0.30615456319E+02  0.51100000000E-03 0.  1.
         12    1    4    4    0    0  0.91608974689E+01 -0.79051642280E+00 -0.90438942451E+01  0.12897247062E+02  0.00000000000E+00 0. -1.
</event>
<event>
 8    1  0.2530183E-006  0.9118800E+02  0.7816164E-02  0.1184000E+00
        -11   -1    0    0    0    0  0.00000000000E+00  0.00000000000E+00  0.45593999997E+02  0.45594000000E+02  0.51100000000E-03 0. -1.
         11   -1    0    0    0    0 -0.00000000000E+00 -0.00000000000E+00 -0.45593999997E+02  0.45594000000E+02  0.51100000000E-03 0.  1.
         23    2    1    2    0    0  0.00000000000E+00 -0.17763568394E-14  0.00000000000E+00  0.91188000000E+02  0.91188000000E+02 0.  0.
    9900012    2    3    3    0    0  0.20528658322E+01  0.11004990437E+02 -0.35077854690E+02  0.54367082544E+02  0.39999996276E+02 0.  0.
         12    1    3    3    0    0 -0.20528658322E+01 -0.11004990437E+02  0.35077854690E+02  0.36820917456E+02  0.00000000000E+00 0. -1.
         11    1    4    4    0    0  0.94911802742E-02  0.19212878980E+01 -0.41245988613E+01  0.45501377229E+01  0.51100000000E-03 0.  1.
        -11    1    4    4    0    0  0.79439570425E+01 -0.10105918596E+02 -0.26203181113E+02  0.29186345178E+02  0.51100000000E-03 0. -1.
         12    1    4    4    0    0 -0.59005823905E+01  0.19189621134E+02 -0.47500747157E+01  0.20630599643E+02  0.00000000000E+00 0. -1.
</event>
<event>
 8    1  0.2530183E-006  0.9118800E+02  0.7816164E-02  0.1184000E+00
        -11   -1    0    0    0    0  0.00000000000E+00  0.00000000000E+00  0.45593999997E+02  0.45594000000E+02  0.51100000000E-03 0.  1.
         11   -1    0    0    0    0 -0.00000000000E+00 -0.00000000000E+00 -0.45593999997E+02  0.45594000000E+02  0.51100000000E-03 0. -1.
         23    2    1    2    0    0  0.00000000000E+00  0.53290705182E-14  0.17763568394E-14  0.91188000000E+02  0.91188000000E+02 0.  0.
    9900012    2    3    3    0    0  0.33043948992E+02  0.15694699176E+02  0.41894310397E+01  0.54367116256E+02  0.40000073130E+02 0.  0.
         12    1    3    3    0    0 -0.33043948992E+02 -0.15694699176E+02 -0.41894310397E+01  0.36820883744E+02  0.00000000000E+00 0. -1.
         11    1    4    4    0    0  0.48050697398E+01  0.50229192396E+01 -0.98023133967E+01  0.12016811602E+02  0.51100000000E-03 0. -1.
        -11    1    4    4    0    0  0.13809078605E+02 -0.44339098987E+01 -0.37080352802E+01  0.14969961082E+02  0.51100000000E-03 0.  1.
        -12    1    4    4    0    0  0.14429800648E+02  0.15105689835E+02  0.17699779717E+02  0.27380343572E+02  0.00000000000E+00 0.  1.
</event>
<event>
 8    1  0.2530183E-006  0.9118800E+02  0.7816164E-02  0.1184000E+00
        -11   -1    0    0    0    0  0.00000000000E+00  0.00000000000E+00  0.45593999997E+02  0.45594000000E+02  0.51100000000E-03 0.  1.
         11   -1    0    0    0    0 -0.00000000000E+00 -0.00000000000E+00 -0.45593999997E+02  0.45594000000E+02  0.51100000000E-03 0. -1.
         23    2    1    2    0    0  0.00000000000E+00  0.71054273576E-14  0.00000000000E+00  0.91188000000E+02  0.91188000000E+02 0.  0.
    9900012    2    3    3    0    0  0.92423175578E+01 -0.30225423018E+02 -0.18888716158E+02  0.54367078929E+02  0.39999988034E+02 0.  0.
        -12    1    3    3    0    0 -0.92423175578E+01  0.30225423018E+02  0.18888716158E+02  0.36820921071E+02  0.00000000000E+00 0.  1.
         11    1    4    4    0    0 -0.11899941188E+02 -0.13496642525E+02 -0.93910026377E+01  0.20296770446E+02  0.51100000000E-03 0. -1.
        -11    1    4    4    0    0  0.99944612435E+01  0.20564695740E+00  0.27701415494E+01  0.10373294110E+02  0.51100000000E-03 0.  1.
        -12    1    4    4    0    0  0.11147797502E+02 -0.16934427450E+02 -0.12267855070E+02  0.23697014374E+02  0.00000000000E+00 0.  1.
</event>
<event>
 8    1  0.2530183E-006  0.9118800E+02  0.7816164E-02  0.1184000E+00
        -11   -1    0    0    0    0  0.00000000000E+00  0.00000000000E+00  0.45593999997E+02  0.45594000000E+02  0.51100000000E-03 0. -1.
         11   -1    0    0    0    0 -0.00000000000E+00 -0.00000000000E+00 -0.45593999997E+02  0.45594000000E+02  0.51100000000E-03 0.  1.
         23    2    1    2    0    0  0.88817841970E-15  0.35527136788E-14  0.00000000000E+00  0.91188000000E+02  0.91188000000E+02 0.  0.
    9900012    2    3    3    0    0  0.48902448010E+01 -0.29061994715E+02 -0.22074113465E+02  0.54367075021E+02  0.39999979126E+02 0.  0.
         12    1    3    3    0    0 -0.48902448010E+01  0.29061994715E+02  0.22074113465E+02  0.36820924979E+02  0.00000000000E+00 0. -1.
         11    1    4    4    0    0  0.13620331277E+02 -0.92337904152E+01 -0.98954923361E+01  0.19201486358E+02  0.51100000000E-03 0.  1.
        -11    1    4    4    0    0 -0.16458587454E+02 -0.16659418748E+02 -0.12978818205E+02  0.26774447823E+02  0.51100000000E-03 0. -1.
        -12    1    4    4    0    0  0.77285009777E+01 -0.31687855519E+01  0.80019707559E+00  0.83911408399E+01  0.00000000000E+00 0.  1.
</event>
<event>
 8    1  0.2530183E-006  0.9118800E+02  0.7816164E-02  0.1184000E+00
        -11   -1    0    0    0    0  0.00000000000E+00  0.00000000000E+00  0.45593999997E+02  0.45594000000E+02  0.51100000000E-03 0. -1.
         11   -1    0    0    0    0 -0.00000000000E+00 -0.00000000000E+00 -0.45593999997E+02  0.45594000000E+02  0.51100000000E-03 0.  1.
         23    2    1    2    0    0  0.00000000000E+00  0.00000000000E+00  0.44408920985E-15  0.91188000000E+02  0.91188000000E+02 0.  0.
    9900012    2    3    3    0    0 -0.34014108271E+02 -0.13806053613E+02  0.28659431117E+01  0.54367077853E+02  0.39999985581E+02 0.  0.
         12    1    3    3    0    0  0.34014108271E+02  0.13806053613E+02 -0.28659431117E+01  0.36820922147E+02  0.00000000000E+00 0. -1.
         11    1    4    4    0    0 -0.10619756010E+02 -0.11554538054E+02  0.90427315718E+01  0.18112359368E+02  0.51100000000E-03 0. -1.
        -11    1    4    4    0    0 -0.25042099685E+02 -0.60313868720E+01  0.32530191709E+01  0.25962791033E+02  0.51100000000E-03 0.  1.
         12    1    4    4    0    0  0.16477474236E+01  0.37798713124E+01 -0.94298076310E+01  0.10291927452E+02  0.00000000000E+00 0. -1.
</event>
<event>
 8    1  0.2530183E-006  0.9118800E+02  0.7816164E-02  0.1184000E+00
        -11   -1    0    0    0    0  0.00000000000E+00  0.00000000000E+00  0.45593999997E+02  0.45594000000E+02  0.51100000000E-03 0.  1.
         11   -1    0    0    0    0 -0.00000000000E+00 -0.00000000000E+00 -0.45593999997E+02  0.45594000000E+02  0.51100000000E-03 0. -1.
         23    2    1    2    0    0  0.00000000000E+00 -0.88817841970E-15  0.00000000000E+00  0.91188000000E+02  0.91188000000E+02 0.  0.
    9900012    2    3    3    0    0 -0.23796518135E+02 -0.55097741073E+01  0.27552636577E+02  0.54367086535E+02  0.40000005374E+02 0.  0.
         12    1    3    3    0    0  0.23796518135E+02  0.55097741073E+01 -0.27552636577E+02  0.36820913465E+02  0.00000000000E+00 0. -1.
         11    1    4    4    0    0 -0.18647733309E+02 -0.13319743084E+02  0.90106238586E+01  0.24624070662E+02  0.51100000000E-03 0.  1.
        -11    1    4    4    0    0  0.19090100001E+01  0.18949458718E+01  0.20206809450E+02  0.20385050588E+02  0.51100000000E-03 0. -1.
         12    1    4    4    0    0 -0.70577948256E+01  0.59150231044E+01 -0.16647967317E+01  0.93579652854E+01  0.00000000000E+00 0. -1.
</event>
<event>
 8    1  0.2530183E-006  0.9118800E+02  0.7816164E-02  0.1184000E+00
        -11   -1    0    0    0    0  0.00000000000E+00  0.00000000000E+00  0.45593999997E+02  0.45594000000E+02  0.51100000000E-03 0.  1.
         11   -1    0    0    0    0 -0.00000000000E+00 -0.00000000000E+00 -0.45593999997E+02  0.45594000000E+02  0.51100000000E-03 0. -1.
         23    2    1    2    0    0 -0.35527136788E-14  0.35527136788E-14  0.00000000000E+00  0.91188000000E+02  0.91188000000E+02 0.  0.
    9900012    2    3    3    0    0 -0.14702655144E+02  0.25890668581E+02  0.21662905241E+02  0.54367132936E+02  0.40000111154E+02 0.  0.
         12    1    3    3    0    0  0.14702655144E+02 -0.25890668581E+02 -0.21662905241E+02  0.36820867064E+02  0.00000000000E+00 0. -1.
         11    1    4    4    0    0  0.62230979878E+01  0.12133142525E+02  0.93980377289E+01  0.16560893983E+02  0.51100000000E-03 0. -1.
        -11    1    4    4    0    0 -0.89043949225E+00  0.12017626505E+02  0.12942613539E+02  0.17684102318E+02  0.51100000000E-03 0.  1.
         12    1    4    4    0    0 -0.20035313640E+02  0.17398995514E+01 -0.67774602723E+00  0.20122136635E+02  0.00000000000E+00 0. -1.
</event>
<event>
 8    1  0.2530183E-006  0.9118800E+02  0.7816164E-02  0.1184000E+00
        -11   -1    0    0    0    0  0.00000000000E+00  0.00000000000E+00  0.45593999997E+02  0.45594000000E+02  0.51100000000E-03 0. -1.
         11   -1    0    0    0    0 -0.00000000000E+00 -0.00000000000E+00 -0.45593999997E+02  0.45594000000E+02  0.51100000000E-03 0.  1.
         23    2    1    2    0    0  0.00000000000E+00  0.00000000000E+00 -0.35527136788E-14  0.91188000000E+02  0.91188000000E+02 0.  0.
    9900012    2    3    3    0    0  0.89378182924E+01 -0.18600300395E+02  0.30494601969E+02  0.54367129290E+02  0.40000102842E+02 0.  0.
        -12    1    3    3    0    0 -0.89378182924E+01  0.18600300395E+02 -0.30494601969E+02  0.36820870710E+02  0.00000000000E+00 0.  1.
         11    1    4    4    0    0 -0.85972291406E+01  0.30174275516E+01  0.14725898903E+02  0.17316735162E+02  0.51100000000E-03 0. -1.
        -11    1    4    4    0    0  0.17159624050E+02 -0.10783654997E+02  0.33093360473E+01  0.20535131311E+02  0.51100000000E-03 0.  1.
         12    1    4    4    0    0  0.37542338316E+00 -0.10834072950E+02  0.12459367019E+02  0.16515262817E+02  0.00000000000E+00 0. -1.
</event>
<event>
 8    1  0.2530183E-006  0.9118800E+02  0.7816164E-02  0.1184000E+00
        -11   -1    0    0    0    0  0.00000000000E+00  0.00000000000E+00  0.45593999997E+02  0.45594000000E+02  0.51100000000E-03 0.  1.
         11   -1    0    0    0    0 -0.00000000000E+00 -0.00000000000E+00 -0.45593999997E+02  0.45594000000E+02  0.51100000000E-03 0. -1.
         23    2    1    2    0    0  0.35527136788E-14 -0.17763568394E-14  0.00000000000E+00  0.91188000000E+02  0.91188000000E+02 0.  0.
    9900012    2    3    3    0    0 -0.26670130861E+02  0.14538883643E+02 -0.20811203845E+02  0.54367065422E+02  0.39999957242E+02 0.  0.
        -12    1    3    3    0    0  0.26670130861E+02 -0.14538883643E+02  0.20811203845E+02  0.36820934578E+02  0.00000000000E+00 0.  1.
         11    1    4    4    0    0 -0.24727218043E+02 -0.14259008368E+01 -0.15150326269E+02  0.29034477637E+02  0.51100000000E-03 0. -1.
        -11    1    4    4    0    0  0.86319769961E+00  0.11453329381E+02 -0.12300243920E+02  0.16829137380E+02  0.51100000000E-03 0.  1.
        -12    1    4    4    0    0 -0.28061105179E+01  0.45114550982E+01  0.66393663440E+01  0.85034504050E+01  0.00000000000E+00 0.  1.
</event>
<event>
 8    1  0.2530183E-006  0.9118800E+02  0.7816164E-02  0.1184000E+00
        -11   -1    0    0    0    0  0.00000000000E+00  0.00000000000E+00  0.45593999997E+02  0.45594000000E+02  0.51100000000E-03 0. -1.
         11   -1    0    0    0    0 -0.00000000000E+00 -0.00000000000E+00 -0.45593999997E+02  0.45594000000E+02  0.51100000000E-03 0.  1.
         23    2    1    2    0    0 -0.17763568394E-14  0.00000000000E+00  0.00000000000E+00  0.91188000000E+02  0.91188000000E+02 0.  0.
    9900012    2    3    3    0    0 -0.12556431823E+02 -0.20769827324E+02 -0.27689833406E+02  0.54367128456E+02  0.40000100941E+02 0.  0.
         12    1    3    3    0    0  0.12556431823E+02  0.20769827324E+02  0.27689833406E+02  0.36820871544E+02  0.00000000000E+00 0. -1.
         11    1    4    4    0    0 -0.91890503956E+01 -0.37521083670E+00 -0.92584858103E+01  0.13049865521E+02  0.51100000000E-03 0. -1.
        -11    1    4    4    0    0 -0.33576600956E+01 -0.21976404469E+02  0.58120574997E+00  0.22239020551E+02  0.51100000000E-03 0.  1.
        -12    1    4    4    0    0 -0.97213321878E-02  0.15817879817E+01 -0.19012553346E+02  0.19078242384E+02  0.00000000000E+00 0.  1.
</event>
<event>
 8    1  0.2530183E-006  0.9118800E+02  0.7816164E-02  0.1184000E+00
        -11   -1    0    0    0    0  0.00000000000E+00  0.00000000000E+00  0.45593999997E+02  0.45594000000E+02  0.51100000000E-03 0.  1.
         11   -1    0    0    0    0 -0.00000000000E+00 -0.00000000000E+00 -0.45593999997E+02  0.45594000000E+02  0.51100000000E-03 0. -1.
         23    2    1    2    0    0  0.35527136788E-14  0.00000000000E+00  0.35527136788E-14  0.91188000000E+02  0.91188000000E+02 0.  0.
    9900012    2    3    3    0    0 -0.26904372806E+02 -0.10065688128E+02 -0.23035099319E+02  0.54367093517E+02  0.40000021292E+02 0.  0.
        -12    1    3    3    0    0  0.26904372806E+02  0.10065688128E+02  0.23035099319E+02  0.36820906483E+02  0.00000000000E+00 0.  1.
         11    1    4    4    0    0 -0.59608930609E+01 -0.17764934687E+02 -0.17076598922E+02  0.25352226362E+02  0.51100000000E-03 0. -1.
        -11    1    4    4    0    0  0.15959423536E+00  0.48379896514E+01 -0.60121335536E+01  0.77186374649E+01  0.51100000000E-03 0.  1.
         12    1    4    4    0    0 -0.21103073980E+02  0.28612569074E+01  0.53633157058E-01  0.21296229690E+02  0.00000000000E+00 0. -1.
</event>
<event>
 8    1  0.2530183E-006  0.9118800E+02  0.7816164E-02  0.1184000E+00
        -11   -1    0    0    0    0  0.00000000000E+00  0.00000000000E+00  0.45593999997E+02  0.45594000000E+02  0.51100000000E-03 0. -1.
         11   -1    0    0    0    0 -0.00000000000E+00 -0.00000000000E+00 -0.45593999997E+02  0.45594000000E+02  0.51100000000E-03 0.  1.
         23    2    1    2    0    0  0.17763568394E-14  0.00000000000E+00  0.00000000000E+00  0.91188000000E+02  0.91188000000E+02 0.  0.
    9900012    2    3    3    0    0 -0.13087816171E+02  0.14035259823E+02  0.31424559796E+02  0.54367049323E+02  0.39999920541E+02 0.  0.
        -12    1    3    3    0    0  0.13087816171E+02 -0.14035259823E+02 -0.31424559796E+02  0.36820950677E+02  0.00000000000E+00 0.  1.
         11    1    4    4    0    0 -0.38110204761E+01  0.82864825919E+00 -0.49627143351E+01  0.63118197724E+01  0.51100000000E-03 0. -1.
        -11    1    4    4    0    0 -0.14243523682E+02  0.98965184166E+01  0.80950053890E+01  0.19140223514E+02  0.51100000000E-03 0.  1.
         12    1    4    4    0    0  0.49667279868E+01  0.33100931476E+01  0.28292268742E+02  0.28915006037E+02  0.00000000000E+00 0. -1.
</event>
<event>
 8    1  0.2530183E-006  0.9118800E+02  0.7816164E-02  0.1184000E+00
        -11   -1    0    0    0    0  0.00000000000E+00  0.00000000000E+00  0.45593999997E+02  0.45594000000E+02  0.51100000000E-03 0.  1.
         11   -1    0    0    0    0 -0.00000000000E+00 -0.00000000000E+00 -0.45593999997E+02  0.45594000000E+02  0.51100000000E-03 0. -1.
         23    2    1    2    0    0  0.00000000000E+00 -0.35527136788E-14  0.17763568394E-14  0.91188000000E+02  0.91188000000E+02 0.  0.
    9900012    2    3    3    0    0  0.32387321572E+02 -0.15577575721E+02 -0.80113299100E+01  0.54367070206E+02  0.39999968148E+02 0.  0.
        -12    1    3    3    0    0 -0.32387321572E+02  0.15577575721E+02  0.80113299100E+01  0.36820929794E+02  0.00000000000E+00 0.  1.
         11    1    4    4    0    0  0.10558287386E+02  0.86775538104E+00 -0.68361124311E+01  0.12608047643E+02  0.51100000000E-03 0. -1.
        -11    1    4    4    0    0  0.10486377662E+02  0.80532692512E+01 -0.56772186262E+01  0.14389234646E+02  0.51100000000E-03 0.  1.
        -12    1    4    4    0    0  0.11342656524E+02 -0.24498600354E+02  0.45020011473E+01  0.27369787917E+02  0.00000000000E+00 0.  1.
</event>
<event>
 8    1  0.2530183E-006  0.9118800E+02  0.7816164E-02  0.1184000E+00
        -11   -1    0    0    0    0  0.00000000000E+00  0.00000000000E+00  0.45593999997E+02  0.45594000000E+02  0.51100000000E-03 0.  1.
         11   -1    0    0    0    0 -0.00000000000E+00 -0.00000000000E+00 -0.45593999997E+02  0.45594000000E+02  0.51100000000E-03 0. -1.
         23    2    1    2    0    0 -0.35527136788E-14  0.00000000000E+00  0.00000000000E+00  0.91188000000E+02  0.91188000000E+02 0.  0.
    9900012    2    3    3    0    0  0.16639201588E+02  0.23747902242E+02 -0.22692658958E+02  0.54367045898E+02  0.39999912734E+02 0.  0.
        -12    1    3    3    0    0 -0.16639201588E+02 -0.23747902242E+02  0.22692658958E+02  0.36820954102E+02  0.00000000000E+00 0.  1.
         11    1    4    4    0    0  0.19116181429E+02  0.96514360658E+01 -0.49996078254E+01  0.21990331722E+02  0.51100000000E-03 0. -1.
        -11    1    4    4    0    0 -0.18983138193E+01  0.25090292874E+01 -0.20252871623E+02  0.20495795485E+02  0.51100000000E-03 0.  1.
        -12    1    4    4    0    0 -0.57866602159E+00  0.11587436888E+02  0.25598204902E+01  0.11880918691E+02  0.00000000000E+00 0.  1.
</event>
<event>
 8    1  0.2530183E-006  0.9118800E+02  0.7816164E-02  0.1184000E+00
        -11   -1    0    0    0    0  0.00000000000E+00  0.00000000000E+00  0.45593999997E+02  0.45594000000E+02  0.51100000000E-03 0. -1.
         11   -1    0    0    0    0 -0.00000000000E+00 -0.00000000000E+00 -0.45593999997E+02  0.45594000000E+02  0.51100000000E-03 0.  1.
         23    2    1    2    0    0  0.35527136788E-14  0.00000000000E+00  0.00000000000E+00  0.91188000000E+02  0.91188000000E+02 0.  0.
    9900012    2    3    3    0    0 -0.16549134350E+02  0.27363850076E+02  0.18251856917E+02  0.54367022017E+02  0.39999858291E+02 0.  0.
        -12    1    3    3    0    0  0.16549134350E+02 -0.27363850076E+02 -0.18251856917E+02  0.36820977983E+02  0.00000000000E+00 0.  1.
         11    1    4    4    0    0 -0.34698114855E+01 -0.51847174913E+01  0.54732770717E+01  0.82992559530E+01  0.51100000000E-03 0. -1.
        -11    1    4    4    0    0 -0.31418652910E+01  0.22686585282E+02 -0.49958275021E+01  0.23441645889E+02  0.51100000000E-03 0.  1.
         12    1    4    4    0    0 -0.99374575737E+01  0.98619822852E+01  0.17774407347E+02  0.22626120175E+02  0.00000000000E+00 0. -1.
</event>
<event>
 8    1  0.2530183E-006  0.9118800E+02  0.7816164E-02  0.1184000E+00
        -11   -1    0    0    0    0  0.00000000000E+00  0.00000000000E+00  0.45593999997E+02  0.45594000000E+02  0.51100000000E-03 0.  1.
         11   -1    0    0    0    0 -0.00000000000E+00 -0.00000000000E+00 -0.45593999997E+02  0.45594000000E+02  0.51100000000E-03 0. -1.
         23    2    1    2    0    0  0.00000000000E+00  0.00000000000E+00 -0.35527136788E-14  0.91188000000E+02  0.91188000000E+02 0.  0.
    9900012    2    3    3    0    0 -0.14642334863E+02  0.16150196544E+02 -0.29674108534E+02  0.54367088334E+02  0.40000009474E+02 0.  0.
        -12    1    3    3    0    0  0.14642334863E+02 -0.16150196544E+02  0.29674108534E+02  0.36820911666E+02  0.00000000000E+00 0.  1.
         11    1    4    4    0    0 -0.23694958870E+02  0.12128280496E+02 -0.16053908232E+02  0.31084951880E+02  0.51100000000E-03 0. -1.
        -11    1    4    4    0    0 -0.10982776274E+01  0.40142569873E+01 -0.12373872036E+02  0.13055006026E+02  0.51100000000E-03 0.  1.
        -12    1    4    4    0    0  0.10150901634E+02  0.76590605144E-02 -0.12463282661E+01  0.10227130428E+02  0.00000000000E+00 0.  1.
</event>
<event>
 8    1  0.2530183E-006  0.9118800E+02  0.7816164E-02  0.1184000E+00
        -11   -1    0    0    0    0  0.00000000000E+00  0.00000000000E+00  0.45593999997E+02  0.45594000000E+02  0.51100000000E-03 0. -1.
         11   -1    0    0    0    0 -0.00000000000E+00 -0.00000000000E+00 -0.45593999997E+02  0.45594000000E+02  0.51100000000E-03 0.  1.
         23    2    1    2    0    0  0.00000000000E+00  0.00000000000E+00  0.00000000000E+00  0.91188000000E+02  0.91188000000E+02 0.  0.
    9900012    2    3    3    0    0  0.71801101572E+01  0.31741294044E+02 -0.17225446320E+02  0.54367085694E+02  0.40000003456E+02 0.  0.
        -12    1    3    3    0    0 -0.71801101572E+01 -0.31741294044E+02  0.17225446320E+02  0.36820914306E+02  0.00000000000E+00 0.  1.
         11    1    4    4    0    0  0.44900446661E+01  0.14815293939E+02  0.78921949603E+00  0.15500848469E+02  0.51100000000E-03 0. -1.
        -11    1    4    4    0    0  0.10419051688E+02  0.61919643861E+01  0.43548236014E+01  0.12878724700E+02  0.51100000000E-03 0.  1.
         12    1    4    4    0    0 -0.77289861966E+01  0.10734035719E+02 -0.22369489417E+02  0.25987512525E+02  0.00000000000E+00 0. -1.
</event>
<event>
 8    1  0.2530183E-006  0.9118800E+02  0.7816164E-02  0.1184000E+00
        -11   -1    0    0    0    0  0.00000000000E+00  0.00000000000E+00  0.45593999997E+02  0.45594000000E+02  0.51100000000E-03 0.  1.
         11   -1    0    0    0    0 -0.00000000000E+00 -0.00000000000E+00 -0.45593999997E+02  0.45594000000E+02  0.51100000000E-03 0. -1.
         23    2    1    2    0    0  0.15543122345E-14  0.44408920985E-15  0.71054273576E-14  0.91188000000E+02  0.91188000000E+02 0.  0.
    9900012    2    3    3    0    0  0.12944566926E+01 -0.19584470954E+01 -0.36746018100E+02  0.54367068733E+02  0.39999964791E+02 0.  0.
        -12    1    3    3    0    0 -0.12944566926E+01  0.19584470954E+01  0.36746018100E+02  0.36820931267E+02  0.00000000000E+00 0.  1.
         11    1    4    4    0    0 -0.68784198939E+01  0.23293390711E+01 -0.20805421236E+02  0.22036425160E+02  0.51100000000E-03 0. -1.
        -11    1    4    4    0    0 -0.54861914136E+01 -0.71333161778E+01 -0.16024080989E+02  0.18378075735E+02  0.51100000000E-03 0.  1.
        -12    1    4    4    0    0  0.13659068000E+02  0.28455300113E+01  0.83484125997E-01  0.13952567838E+02  0.00000000000E+00 0.  1.
</event>
<event>
 8    1  0.2530183E-006  0.9118800E+02  0.7816164E-02  0.1184000E+00
        -11   -1    0    0    0    0  0.00000000000E+00  0.00000000000E+00  0.45593999997E+02  0.45594000000E+02  0.51100000000E-03 0. -1.
         11   -1    0    0    0    0 -0.00000000000E+00 -0.00000000000E+00 -0.45593999997E+02  0.45594000000E+02  0.51100000000E-03 0.  1.
         23    2    1    2    0    0  0.00000000000E+00 -0.17763568394E-14 -0.44408920985E-15  0.91188000000E+02  0.91188000000E+02 0.  0.
    9900012    2    3    3    0    0  0.33188328600E+02  0.15656457474E+02  0.30315905230E+01  0.54367077185E+02  0.39999984058E+02 0.  0.
         12    1    3    3    0    0 -0.33188328600E+02 -0.15656457474E+02 -0.30315905230E+01  0.36820922815E+02  0.00000000000E+00 0. -1.
         11    1    4    4    0    0  0.23884509917E+02  0.17583340742E+01 -0.61601119062E+01  0.24728698543E+02  0.51100000000E-03 0. -1.
        -11    1    4    4    0    0  0.11001557648E+02  0.33998155938E+01 -0.44468053277E+01  0.12343706681E+02  0.51100000000E-03 0.  1.
         12    1    4    4    0    0 -0.16977389650E+01  0.10498307806E+02  0.13638507757E+02  0.17294671960E+02  0.00000000000E+00 0. -1.
</event>
<event>
 8    1  0.2530183E-006  0.9118800E+02  0.7816164E-02  0.1184000E+00
        -11   -1    0    0    0    0  0.00000000000E+00  0.00000000000E+00  0.45593999997E+02  0.45594000000E+02  0.51100000000E-03 0. -1.
         11   -1    0    0    0    0 -0.00000000000E+00 -0.00000000000E+00 -0.45593999997E+02  0.45594000000E+02  0.51100000000E-03 0.  1.
         23    2    1    2    0    0  0.00000000000E+00  0.44408920985E-15 -0.71054273576E-14  0.91188000000E+02  0.91188000000E+02 0.  0.
    9900012    2    3    3    0    0  0.14918842279E+02 -0.21193884070E+01  0.33596352107E+02  0.54367101898E+02  0.40000040396E+02 0.  0.
        -12    1    3    3    0    0 -0.14918842279E+02  0.21193884070E+01 -0.33596352107E+02  0.36820898102E+02  0.00000000000E+00 0.  1.
         11    1    4    4    0    0 -0.88970962342E+01 -0.13208887560E+01  0.18590297121E+02  0.20651930075E+02  0.51100000000E-03 0. -1.
        -11    1    4    4    0    0 -0.40541287950E+00  0.38719224407E+01  0.65852278495E+01  0.76499260833E+01  0.51100000000E-03 0.  1.
        -12    1    4    4    0    0  0.24221351393E+02 -0.46704220917E+01  0.84208271368E+01  0.26065245740E+02  0.00000000000E+00 0.  1.
</event>
<event>
 8    1  0.2530183E-006  0.9118800E+02  0.7816164E-02  0.1184000E+00
        -11   -1    0    0    0    0  0.00000000000E+00  0.00000000000E+00  0.45593999997E+02  0.45594000000E+02  0.51100000000E-03 0. -1.
         11   -1    0    0    0    0 -0.00000000000E+00 -0.00000000000E+00 -0.45593999997E+02  0.45594000000E+02  0.51100000000E-03 0.  1.
         23    2    1    2    0    0  0.00000000000E+00 -0.17763568394E-14  0.35527136788E-14  0.91188000000E+02  0.91188000000E+02 0.  0.
    9900012    2    3    3    0    0 -0.31472241060E+02  0.98990083298E+01 -0.16348890689E+02  0.54367101722E+02  0.40000039995E+02 0.  0.
         12    1    3    3    0    0  0.31472241060E+02 -0.98990083298E+01  0.16348890689E+02  0.36820898278E+02  0.00000000000E+00 0. -1.
         11    1    4    4    0    0 -0.94224004550E+01  0.19323045248E+02 -0.58656701866E+01  0.22283801179E+02  0.51100000000E-03 0. -1.
        -11    1    4    4    0    0 -0.20547932218E+01  0.18555779868E+00 -0.96661615974E+01  0.98838902852E+01  0.51100000000E-03 0.  1.
        -12    1    4    4    0    0 -0.19995047383E+02 -0.96095947173E+01 -0.81705890492E+00  0.22199410257E+02  0.00000000000E+00 0.  1.
</event>
<event>
 8    1  0.2530183E-006  0.9118800E+02  0.7816164E-02  0.1184000E+00
        -11   -1    0    0    0    0  0.00000000000E+00  0.00000000000E+00  0.45593999997E+02  0.45594000000E+02  0.51100000000E-03 0.  1.
         11   -1    0    0    0    0 -0.00000000000E+00 -0.00000000000E+00 -0.45593999997E+02  0.45594000000E+02  0.51100000000E-03 0. -1.
         23    2    1    2    0    0 -0.71054273576E-14  0.00000000000E+00  0.00000000000E+00  0.91188000000E+02  0.91188000000E+02 0.  0.
    9900012    2    3    3    0    0 -0.31758416430E+02 -0.11718701197E+02  0.14486386698E+02  0.54367076988E+02  0.39999983610E+02 0.  0.
        -12    1    3    3    0    0  0.31758416430E+02  0.11718701197E+02 -0.14486386698E+02  0.36820923012E+02  0.00000000000E+00 0.  1.
         11    1    4    4    0    0 -0.34343153244E+02 -0.42682096513E+01  0.23760333056E+01  0.34688835710E+02  0.51100000000E-03 0. -1.
        -11    1    4    4    0    0  0.28130104942E+00 -0.55379732828E+01  0.14705434461E+02  0.15716172604E+02  0.51100000000E-03 0.  1.
         12    1    4    4    0    0  0.23034357651E+01 -0.19125182634E+01 -0.25950810687E+01  0.39620686749E+01  0.00000000000E+00 0. -1.
</event>
<event>
 8    1  0.2530183E-006  0.9118800E+02  0.7816164E-02  0.1184000E+00
        -11   -1    0    0    0    0  0.00000000000E+00  0.00000000000E+00  0.45593999997E+02  0.45594000000E+02  0.51100000000E-03 0.  1.
         11   -1    0    0    0    0 -0.00000000000E+00 -0.00000000000E+00 -0.45593999997E+02  0.45594000000E+02  0.51100000000E-03 0. -1.
         23    2    1    2    0    0  0.00000000000E+00  0.00000000000E+00  0.17763568394E-14  0.91188000000E+02  0.91188000000E+02 0.  0.
    9900012    2    3    3    0    0  0.11214398293E+02 -0.32010132543E+02 -0.14331239562E+02  0.54366868270E+02  0.39999507792E+02 0.  0.
        -12    1    3    3    0    0 -0.11214398293E+02  0.32010132543E+02  0.14331239562E+02  0.36821131730E+02  0.00000000000E+00 0.  1.
         11    1    4    4    0    0  0.78992943133E+01 -0.39052640299E+02 -0.57577116719E+01  0.40257406883E+02  0.51100000000E-03 0. -1.
        -11    1    4    4    0    0  0.10647959943E+01  0.24761499781E+01 -0.86064237179E+01  0.90186273178E+01  0.51100000000E-03 0.  1.
         12    1    4    4    0    0  0.22503079849E+01  0.45663577779E+01  0.32895828277E-01  0.50908340690E+01  0.00000000000E+00 0. -1.
</event>
<event>
 8    1  0.2530183E-006  0.9118800E+02  0.7816164E-02  0.1184000E+00
        -11   -1    0    0    0    0  0.00000000000E+00  0.00000000000E+00  0.45593999997E+02  0.45594000000E+02  0.51100000000E-03 0.  1.
         11   -1    0    0    0    0 -0.00000000000E+00 -0.00000000000E+00 -0.45593999997E+02  0.45594000000E+02  0.51100000000E-03 0. -1.
         23    2    1    2    0    0 -0.35527136788E-14  0.00000000000E+00  0.88817841970E-15  0.91188000000E+02  0.91188000000E+02 0.  0.
    9900012    2    3    3    0    0  0.31171979215E+02 -0.17906549846E+02 -0.79647906280E+01  0.54367153930E+02  0.40000159014E+02 0.  0.
        -12    1    3    3    0    0 -0.31171979215E+02  0.17906549846E+02  0.79647906280E+01  0.36820846070E+02  0.00000000000E+00 0.  1.
         11    1    4    4    0    0  0.12269684337E+02  0.27481695938E+01 -0.12613867119E+02  0.17810312569E+02  0.51100000000E-03 0. -1.
        -11    1    4    4    0    0  0.19693352966E+02 -0.85058687045E+01 -0.37352283136E+01  0.21774523744E+02  0.51100000000E-03 0.  1.
        -12    1    4    4    0    0 -0.79105808829E+00 -0.12148850735E+02  0.83843048046E+01  0.14782317617E+02  0.00000000000E+00 0.  1.
</event>
<event>
 8    1  0.2530183E-006  0.9118800E+02  0.7816164E-02  0.1184000E+00
        -11   -1    0    0    0    0  0.00000000000E+00  0.00000000000E+00  0.45593999997E+02  0.45594000000E+02  0.51100000000E-03 0. -1.
         11   -1    0    0    0    0 -0.00000000000E+00 -0.00000000000E+00 -0.45593999997E+02  0.45594000000E+02  0.51100000000E-03 0.  1.
         23    2    1    2    0    0 -0.35527136788E-14  0.00000000000E+00  0.00000000000E+00  0.91188000000E+02  0.91188000000E+02 0.  0.
    9900012    2    3    3    0    0 -0.27785790419E+02 -0.17624141784E+02 -0.16526321873E+02  0.54367084239E+02  0.40000000140E+02 0.  0.
        -12    1    3    3    0    0  0.27785790419E+02  0.17624141784E+02  0.16526321873E+02  0.36820915761E+02  0.00000000000E+00 0.  1.
         11    1    4    4    0    0 -0.15676965411E+01 -0.23665660618E+01 -0.39901834757E+01  0.48969247289E+01  0.51100000000E-03 0. -1.
        -11    1    4    4    0    0 -0.18474781896E+02 -0.10119477281E+02 -0.25779755387E+02  0.33291397908E+02  0.51100000000E-03 0.  1.
        -12    1    4    4    0    0 -0.77433119813E+01 -0.51380984411E+01  0.13243616989E+02  0.16178761603E+02  0.00000000000E+00 0.  1.
</event>
<event>
 8    1  0.2530183E-006  0.9118800E+02  0.7816164E-02  0.1184000E+00
        -11   -1    0    0    0    0  0.00000000000E+00  0.00000000000E+00  0.45593999997E+02  0.45594000000E+02  0.51100000000E-03 0.  1.
         11   -1    0    0    0    0 -0.00000000000E+00 -0.00000000000E+00 -0.45593999997E+02  0.45594000000E+02  0.51100000000E-03 0. -1.
         23    2    1    2    0    0 -0.11102230246E-14  0.88817841970E-15  0.00000000000E+00  0.91188000000E+02  0.91188000000E+02 0.  0.
    9900012    2    3    3    0    0 -0.24487714172E+00 -0.26617902944E+01 -0.36723759850E+02  0.54367087057E+02  0.40000006564E+02 0.  0.
        -12    1    3    3    0    0  0.24487714172E+00  0.26617902944E+01  0.36723759850E+02  0.36820912943E+02  0.00000000000E+00 0.  1.
         11    1    4    4    0    0  0.85732197137E+01  0.62457652601E+01 -0.32793469695E+02  0.34466234706E+02  0.51100000000E-03 0. -1.
        -11    1    4    4    0    0 -0.81863116186E+01 -0.49084405413E+01 -0.91989189889E+01  0.13256266340E+02  0.51100000000E-03 0.  1.
         12    1    4    4    0    0 -0.63178523686E+00 -0.39991150132E+01  0.52686288330E+01  0.66445860107E+01  0.00000000000E+00 0. -1.
</event>
<event>
 8    1  0.2530183E-006  0.9118800E+02  0.7816164E-02  0.1184000E+00
        -11   -1    0    0    0    0  0.00000000000E+00  0.00000000000E+00  0.45593999997E+02  0.45594000000E+02  0.51100000000E-03 0.  1.
         11   -1    0    0    0    0 -0.00000000000E+00 -0.00000000000E+00 -0.45593999997E+02  0.45594000000E+02  0.51100000000E-03 0. -1.
         23    2    1    2    0    0  0.22204460493E-15  0.00000000000E+00  0.00000000000E+00  0.91188000000E+02  0.91188000000E+02 0.  0.
    9900012    2    3    3    0    0 -0.16286803300E+01 -0.12319962611E+02 -0.34660448135E+02  0.54367071939E+02  0.39999972099E+02 0.  0.
        -12    1    3    3    0    0  0.16286803300E+01  0.12319962611E+02  0.34660448135E+02  0.36820928061E+02  0.00000000000E+00 0.  1.
         11    1    4    4    0    0 -0.89053570794E+01 -0.18243855814E+02 -0.16596754321E+02  0.26222050148E+02  0.51100000000E-03 0. -1.
        -11    1    4    4    0    0  0.60038259361E+01  0.12558239609E+02 -0.80927796211E+01  0.16101192198E+02  0.51100000000E-03 0.  1.
         12    1    4    4    0    0  0.12728508133E+01 -0.66343464054E+01 -0.99709141928E+01  0.12043829593E+02  0.00000000000E+00 0. -1.
</event>
<event>
 8    1  0.2530183E-006  0.9118800E+02  0.7816164E-02  0.1184000E+00
        -11   -1    0    0    0    0  0.00000000000E+00  0.00000000000E+00  0.45593999997E+02  0.45594000000E+02  0.51100000000E-03 0. -1.
         11   -1    0    0    0    0 -0.00000000000E+00 -0.00000000000E+00 -0.45593999997E+02  0.45594000000E+02  0.51100000000E-03 0.  1.
         23    2    1    2    0    0  0.22204460493E-15  0.17763568394E-14  0.71054273576E-14  0.91188000000E+02  0.91188000000E+02 0.  0.
    9900012    2    3    3    0    0  0.90146114061E+00 -0.95902955227E+01 -0.35538607069E+02  0.54367095709E+02  0.40000026289E+02 0.  0.
         12    1    3    3    0    0 -0.90146114061E+00  0.95902955227E+01  0.35538607069E+02  0.36820904291E+02  0.00000000000E+00 0. -1.
         11    1    4    4    0    0 -0.47867828740E+01 -0.10686197981E+02  0.19876768514E+00  0.11711004501E+02  0.51100000000E-03 0. -1.
        -11    1    4    4    0    0  0.10179117244E+02 -0.74912077481E+01 -0.26049089854E+02  0.28953198508E+02  0.51100000000E-03 0.  1.
         12    1    4    4    0    0 -0.44908732291E+01  0.85871102061E+01 -0.96882849000E+01  0.13702892700E+02  0.00000000000E+00 0. -1.
</event>
<event>
 8    1  0.2530183E-006  0.9118800E+02  0.7816164E-02  0.1184000E+00
        -11   -1    0    0    0    0  0.00000000000E+00  0.00000000000E+00  0.45593999997E+02  0.45594000000E+02  0.51100000000E-03 0.  1.
         11   -1    0    0    0    0 -0.00000000000E+00 -0.00000000000E+00 -0.45593999997E+02  0.45594000000E+02  0.51100000000E-03 0. -1.
         23    2    1    2    0    0  0.00000000000E+00  0.00000000000E+00  0.00000000000E+00  0.91188000000E+02  0.91188000000E+02 0.  0.
    9900012    2    3    3    0    0  0.93785371514E+01  0.10635762930E+02  0.33980911652E+02  0.54367098749E+02  0.40000033218E+02 0.  0.
         12    1    3    3    0    0 -0.93785371514E+01 -0.10635762930E+02 -0.33980911652E+02  0.36820901251E+02  0.00000000000E+00 0. -1.
         11    1    4    4    0    0 -0.43772730365E+01 -0.37012404532E+01  0.62909589799E+01  0.85109262290E+01  0.51100000000E-03 0. -1.
        -11    1    4    4    0    0  0.10262442183E+02 -0.18607188980E+01  0.27362412469E+02  0.29282786936E+02  0.51100000000E-03 0.  1.
        -12    1    4    4    0    0  0.34933680045E+01  0.16197722282E+02  0.32754020381E+00  0.16573385584E+02  0.00000000000E+00 0.  1.
</event>
<event>
 8    1  0.2530183E-006  0.9118800E+02  0.7816164E-02  0.1184000E+00
        -11   -1    0    0    0    0  0.00000000000E+00  0.00000000000E+00  0.45593999997E+02  0.45594000000E+02  0.51100000000E-03 0.  1.
         11   -1    0    0    0    0 -0.00000000000E+00 -0.00000000000E+00 -0.45593999997E+02  0.45594000000E+02  0.51100000000E-03 0. -1.
         23    2    1    2    0    0 -0.44408920985E-15  0.19428902931E-15  0.00000000000E+00  0.91188000000E+02  0.91188000000E+02 0.  0.
    9900012    2    3    3    0    0  0.34523341140E+01 -0.15050377925E+00  0.36658388072E+02  0.54367099980E+02  0.40000036024E+02 0.  0.
         12    1    3    3    0    0 -0.34523341140E+01  0.15050377925E+00 -0.36658388072E+02  0.36820900020E+02  0.00000000000E+00 0. -1.
         11    1    4    4    0    0  0.39935990582E+01  0.44451913670E+01 -0.58126053852E+01  0.83363625972E+01  0.51100000000E-03 0. -1.
        -11    1    4    4    0    0 -0.76078903382E+01 -0.19983097889E+01  0.33038390972E+02  0.33961868554E+02  0.51100000000E-03 0.  1.
        -12    1    4    4    0    0  0.70666253940E+01 -0.25973853573E+01  0.94326024854E+01  0.12068868829E+02  0.00000000000E+00 0.  1.
</event>
<event>
 8    1  0.2530183E-006  0.9118800E+02  0.7816164E-02  0.1184000E+00
        -11   -1    0    0    0    0  0.00000000000E+00  0.00000000000E+00  0.45593999997E+02  0.45594000000E+02  0.51100000000E-03 0.  1.
         11   -1    0    0    0    0 -0.00000000000E+00 -0.00000000000E+00 -0.45593999997E+02  0.45594000000E+02  0.51100000000E-03 0. -1.
         23    2    1    2    0    0 -0.61062266354E-15  0.00000000000E+00  0.00000000000E+00  0.91188000000E+02  0.91188000000E+02 0.  0.
    9900012    2    3    3    0    0  0.33331289334E-01  0.33125291184E+02  0.16077712338E+02  0.54367097499E+02  0.40000030368E+02 0.  0.
         12    1    3    3    0    0 -0.33331289334E-01 -0.33125291184E+02 -0.16077712338E+02  0.36820902501E+02  0.00000000000E+00 0. -1.
         11    1    4    4    0    0  0.42774550100E+01  0.55024806728E+01  0.16958252042E+02  0.18334563739E+02  0.51100000000E-03 0. -1.
        -11    1    4    4    0    0 -0.22535405847E+00  0.30457529668E+02 -0.31411543074E+01  0.30619907717E+02  0.51100000000E-03 0.  1.
        -12    1    4    4    0    0 -0.40187696622E+01 -0.28347191568E+01  0.22606146029E+01  0.54126260427E+01  0.00000000000E+00 0.  1.
</event>
<event>
 8    1  0.2530183E-006  0.9118800E+02  0.7816164E-02  0.1184000E+00
        -11   -1    0    0    0    0  0.00000000000E+00  0.00000000000E+00  0.45593999997E+02  0.45594000000E+02  0.51100000000E-03 0.  1.
         11   -1    0    0    0    0 -0.00000000000E+00 -0.00000000000E+00 -0.45593999997E+02  0.45594000000E+02  0.51100000000E-03 0. -1.
         23    2    1    2    0    0 -0.17763568394E-14  0.71054273576E-14  0.00000000000E+00  0.91188000000E+02  0.91188000000E+02 0.  0.
    9900012    2    3    3    0    0  0.12506549560E+02 -0.34153895509E+02 -0.57338743040E+01  0.54367086446E+02  0.40000005172E+02 0.  0.
        -12    1    3    3    0    0 -0.12506549560E+02  0.34153895509E+02  0.57338743040E+01  0.36820913554E+02  0.00000000000E+00 0.  1.
         11    1    4    4    0    0 -0.11874778244E+01  0.21319535949E+01 -0.49387009577E+01  0.55087291751E+01  0.51100000000E-03 0. -1.
        -11    1    4    4    0    0  0.37731688054E+01  0.30066271729E+01 -0.63273971627E+01  0.79569193100E+01  0.51100000000E-03 0.  1.
         12    1    4    4    0    0  0.99208585794E+01 -0.39292476277E+02  0.55322238164E+01  0.40901437961E+02  0.00000000000E+00 0. -1.
</event>
<event>
 8    1  0.2530183E-006  0.9118800E+02  0.7816164E-02  0.1184000E+00
        -11   -1    0    0    0    0  0.00000000000E+00  0.00000000000E+00  0.45593999997E+02  0.45594000000E+02  0.51100000000E-03 0.  1.
         11   -1    0    0    0    0 -0.00000000000E+00 -0.00000000000E+00 -0.45593999997E+02  0.45594000000E+02  0.51100000000E-03 0. -1.
         23    2    1    2    0    0 -0.88817841970E-15  0.35527136788E-14 -0.71054273576E-14  0.91188000000E+02  0.91188000000E+02 0.  0.
    9900012    2    3    3    0    0  0.49421019760E+01  0.13534988815E+02 -0.33884500076E+02  0.54367086927E+02  0.40000006267E+02 0.  0.
        -12    1    3    3    0    0 -0.49421019760E+01 -0.13534988815E+02  0.33884500076E+02  0.36820913073E+02  0.00000000000E+00 0.  1.
         11    1    4    4    0    0 -0.48287391827E+01 -0.79893465700E+00 -0.22809285641E+02  0.23328491816E+02  0.51100000000E-03 0. -1.
        -11    1    4    4    0    0  0.10383339783E+02  0.13200788939E+01  0.39176267673E+01  0.11176052661E+02  0.51100000000E-03 0.  1.
        -12    1    4    4    0    0 -0.61249862409E+00  0.13013844578E+02 -0.14992841201E+02  0.19862542450E+02  0.00000000000E+00 0.  1.
</event>
<event>
 8    1  0.2530183E-006  0.9118800E+02  0.7816164E-02  0.1184000E+00
        -11   -1    0    0    0    0  0.00000000000E+00  0.00000000000E+00  0.45593999997E+02  0.45594000000E+02  0.51100000000E-03 0.  1.
         11   -1    0    0    0    0 -0.00000000000E+00 -0.00000000000E+00 -0.45593999997E+02  0.45594000000E+02  0.51100000000E-03 0. -1.
         23    2    1    2    0    0 -0.17763568394E-14  0.00000000000E+00  0.00000000000E+00  0.91188000000E+02  0.91188000000E+02 0.  0.
    9900012    2    3    3    0    0  0.85255866908E+01  0.32325005755E+02 -0.15433362351E+02  0.54367077972E+02  0.39999985854E+02 0.  0.
        -12    1    3    3    0    0 -0.85255866908E+01 -0.32325005755E+02  0.15433362351E+02  0.36820922028E+02  0.00000000000E+00 0.  1.
         11    1    4    4    0    0  0.12824792035E+02  0.13593042804E+02 -0.15634519987E+02  0.24365638077E+02  0.51100000000E-03 0. -1.
        -11    1    4    4    0    0 -0.45668866014E+01  0.93768843190E+01 -0.11164535629E+02  0.15278392220E+02  0.51100000000E-03 0.  1.
        -12    1    4    4    0    0  0.26768125758E+00  0.93550786319E+01  0.11365693265E+02  0.14723047675E+02  0.00000000000E+00 0.  1.
</event>
<event>
 8    1  0.2530183E-006  0.9118800E+02  0.7816164E-02  0.1184000E+00
        -11   -1    0    0    0    0  0.00000000000E+00  0.00000000000E+00  0.45593999997E+02  0.45594000000E+02  0.51100000000E-03 0. -1.
         11   -1    0    0    0    0 -0.00000000000E+00 -0.00000000000E+00 -0.45593999997E+02  0.45594000000E+02  0.51100000000E-03 0.  1.
         23    2    1    2    0    0  0.44408920985E-15  0.00000000000E+00 -0.17763568394E-14  0.91188000000E+02  0.91188000000E+02 0.  0.
    9900012    2    3    3    0    0 -0.16740759384E+01  0.35573834823E+02  0.93530819101E+01  0.54367076662E+02  0.39999982867E+02 0.  0.
         12    1    3    3    0    0  0.16740759384E+01 -0.35573834823E+02 -0.93530819101E+01  0.36820923338E+02  0.00000000000E+00 0. -1.
         11    1    4    4    0    0  0.75386602451E+01  0.32324691218E+02  0.13183425829E+02  0.35714419742E+02  0.51100000000E-03 0.  1.
        -11    1    4    4    0    0  0.24568363861E+01  0.43474979991E+00 -0.59598992443E+01  0.64610720225E+01  0.51100000000E-03 0. -1.
        -12    1    4    4    0    0 -0.11669572570E+02  0.28143938046E+01  0.21295553256E+01  0.12191584898E+02  0.00000000000E+00 0.  1.
</event>
<event>
 8    1  0.2530183E-006  0.9118800E+02  0.7816164E-02  0.1184000E+00
        -11   -1    0    0    0    0  0.00000000000E+00  0.00000000000E+00  0.45593999997E+02  0.45594000000E+02  0.51100000000E-03 0. -1.
         11   -1    0    0    0    0 -0.00000000000E+00 -0.00000000000E+00 -0.45593999997E+02  0.45594000000E+02  0.51100000000E-03 0.  1.
         23    2    1    2    0    0  0.71054273576E-14  0.88817841970E-15  0.00000000000E+00  0.91188000000E+02  0.91188000000E+02 0.  0.
    9900012    2    3    3    0    0 -0.36126595743E+02 -0.61308735882E+01 -0.36139969778E+01  0.54367088753E+02  0.40000010429E+02 0.  0.
         12    1    3    3    0    0  0.36126595743E+02  0.61308735882E+01  0.36139969778E+01  0.36820911247E+02  0.00000000000E+00 0. -1.
         11    1    4    4    0    0  0.25757587762E+01 -0.24706244434E+01 -0.41407209555E+01  0.54666341295E+01  0.51100000000E-03 0. -1.
        -11    1    4    4    0    0 -0.37078178625E+02  0.72655437668E+01  0.14898986822E+01  0.37812686426E+02  0.51100000000E-03 0.  1.
         12    1    4    4    0    0 -0.16241758937E+01 -0.10925792912E+02 -0.96317470444E+00  0.11087768197E+02  0.00000000000E+00 0. -1.
</event>
<event>
 8    1  0.2530183E-006  0.9118800E+02  0.7816164E-02  0.1184000E+00
        -11   -1    0    0    0    0  0.00000000000E+00  0.00000000000E+00  0.45593999997E+02  0.45594000000E+02  0.51100000000E-03 0. -1.
         11   -1    0    0    0    0 -0.00000000000E+00 -0.00000000000E+00 -0.45593999997E+02  0.45594000000E+02  0.51100000000E-03 0.  1.
         23    2    1    2    0    0 -0.35527136788E-14 -0.35527136788E-14  0.00000000000E+00  0.91188000000E+02  0.91188000000E+02 0.  0.
    9900012    2    3    3    0    0  0.21028944248E+02 -0.30183654670E+02  0.15844113157E+01  0.54367083870E+02  0.39999999298E+02 0.  0.
        -12    1    3    3    0    0 -0.21028944248E+02  0.30183654670E+02 -0.15844113157E+01  0.36820916130E+02  0.00000000000E+00 0.  1.
         11    1    4    4    0    0 -0.26557322896E+01 -0.58453229715E+01  0.36621489700E+01  0.73913496720E+01  0.51100000000E-03 0. -1.
        -11    1    4    4    0    0 -0.49603695721E+01  0.41569750977E+01  0.48506026904E+00  0.64900687192E+01  0.51100000000E-03 0.  1.
        -12    1    4    4    0    0  0.28645046110E+02 -0.28495306797E+02 -0.25627979234E+01  0.40485665479E+02  0.00000000000E+00 0.  1.
</event>
<event>
 8    1  0.2530183E-006  0.9118800E+02  0.7816164E-02  0.1184000E+00
        -11   -1    0    0    0    0  0.00000000000E+00  0.00000000000E+00  0.45593999997E+02  0.45594000000E+02  0.51100000000E-03 0.  1.
         11   -1    0    0    0    0 -0.00000000000E+00 -0.00000000000E+00 -0.45593999997E+02  0.45594000000E+02  0.51100000000E-03 0. -1.
         23    2    1    2    0    0  0.35527136788E-14  0.35527136788E-14  0.17763568394E-14  0.91188000000E+02  0.91188000000E+02 0.  0.
    9900012    2    3    3    0    0 -0.30312706006E+02 -0.15610351831E+02  0.13900985947E+02  0.54367073341E+02  0.39999975296E+02 0.  0.
         12    1    3    3    0    0  0.30312706006E+02  0.15610351831E+02 -0.13900985947E+02  0.36820926659E+02  0.00000000000E+00 0. -1.
         11    1    4    4    0    0 -0.10362829828E+02 -0.82403475848E+01 -0.10213761575E+02  0.16721617629E+02  0.51100000000E-03 0. -1.
        -11    1    4    4    0    0  0.27161833353E+01 -0.18470437924E+01 -0.93454448647E+00  0.34150543686E+01  0.51100000000E-03 0.  1.
        -12    1    4    4    0    0 -0.22666059513E+02 -0.55229604540E+01  0.25049292008E+02  0.34230401344E+02  0.00000000000E+00 0.  1.
</event>
<event>
 8    1  0.2530183E-006  0.9118800E+02  0.7816164E-02  0.1184000E+00
        -11   -1    0    0    0    0  0.00000000000E+00  0.00000000000E+00  0.45593999997E+02  0.45594000000E+02  0.51100000000E-03 0. -1.
         11   -1    0    0    0    0 -0.00000000000E+00 -0.00000000000E+00 -0.45593999997E+02  0.45594000000E+02  0.51100000000E-03 0.  1.
         23    2    1    2    0    0  0.00000000000E+00  0.00000000000E+00 -0.35527136788E-14  0.91188000000E+02  0.91188000000E+02 0.  0.
    9900012    2    3    3    0    0 -0.10855162606E+02  0.22762996156E+02 -0.26828893872E+02  0.54367107893E+02  0.40000054063E+02 0.  0.
         12    1    3    3    0    0  0.10855162606E+02 -0.22762996156E+02  0.26828893872E+02  0.36820892107E+02  0.00000000000E+00 0. -1.
         11    1    4    4    0    0 -0.28188542504E+01  0.82327757862E+01  0.34765325699E+01  0.93707425214E+01  0.51100000000E-03 0. -1.
        -11    1    4    4    0    0  0.56888168048E+01  0.11971376519E+02 -0.19591741625E+01  0.13398315418E+02  0.51100000000E-03 0.  1.
        -12    1    4    4    0    0 -0.13725125160E+02  0.25588438508E+01 -0.28346252280E+02  0.31598049953E+02  0.00000000000E+00 0.  1.
</event>
<event>
 8    1  0.2530183E-006  0.9118800E+02  0.7816164E-02  0.1184000E+00
        -11   -1    0    0    0    0  0.00000000000E+00  0.00000000000E+00  0.45593999997E+02  0.45594000000E+02  0.51100000000E-03 0. -1.
         11   -1    0    0    0    0 -0.00000000000E+00 -0.00000000000E+00 -0.45593999997E+02  0.45594000000E+02  0.51100000000E-03 0.  1.
         23    2    1    2    0    0  0.35527136788E-14  0.17763568394E-14  0.00000000000E+00  0.91188000000E+02  0.91188000000E+02 0.  0.
    9900012    2    3    3    0    0 -0.26660452640E+02  0.12395137590E+02 -0.22166637613E+02  0.54367095694E+02  0.40000026253E+02 0.  0.
         12    1    3    3    0    0  0.26660452640E+02 -0.12395137590E+02  0.22166637613E+02  0.36820904306E+02  0.00000000000E+00 0. -1.
         11    1    4    4    0    0  0.24803669090E+01 -0.97538187528E+00  0.12075476292E+00  0.26679902135E+01  0.51100000000E-03 0. -1.
        -11    1    4    4    0    0 -0.50778277402E+01 -0.36509483397E+01  0.75192365814E+01  0.97802186768E+01  0.51100000000E-03 0.  1.
        -12    1    4    4    0    0 -0.24062991809E+02  0.17021467805E+02 -0.29806628957E+02  0.41918886803E+02  0.00000000000E+00 0.  1.
</event>
<event>
 8    1  0.2530183E-006  0.9118800E+02  0.7816164E-02  0.1184000E+00
        -11   -1    0    0    0    0  0.00000000000E+00  0.00000000000E+00  0.45593999997E+02  0.45594000000E+02  0.51100000000E-03 0. -1.
         11   -1    0    0    0    0 -0.00000000000E+00 -0.00000000000E+00 -0.45593999997E+02  0.45594000000E+02  0.51100000000E-03 0.  1.
         23    2    1    2    0    0  0.00000000000E+00 -0.17763568394E-14  0.35527136788E-14  0.91188000000E+02  0.91188000000E+02 0.  0.
    9900012    2    3    3    0    0 -0.22761444035E+02  0.55027988426E+01  0.28415061269E+02  0.54367084251E+02  0.40000000167E+02 0.  0.
        -12    1    3    3    0    0  0.22761444035E+02 -0.55027988426E+01 -0.28415061269E+02  0.36820915749E+02  0.00000000000E+00 0.  1.
         11    1    4    4    0    0 -0.11074312229E+02 -0.32190625609E+00  0.17758227593E+02  0.20930806542E+02  0.51100000000E-03 0. -1.
        -11    1    4    4    0    0 -0.66541580978E+00 -0.10054349334E+02 -0.20787608986E+01  0.10288535652E+02  0.51100000000E-03 0.  1.
         12    1    4    4    0    0 -0.11021715996E+02  0.15879054433E+02  0.12735594575E+02  0.23147742057E+02  0.00000000000E+00 0. -1.
</event>
<event>
 8    1  0.2530183E-006  0.9118800E+02  0.7816164E-02  0.1184000E+00
        -11   -1    0    0    0    0  0.00000000000E+00  0.00000000000E+00  0.45593999997E+02  0.45594000000E+02  0.51100000000E-03 0.  1.
         11   -1    0    0    0    0 -0.00000000000E+00 -0.00000000000E+00 -0.45593999997E+02  0.45594000000E+02  0.51100000000E-03 0. -1.
         23    2    1    2    0    0  0.00000000000E+00  0.35527136788E-14 -0.17763568394E-14  0.91188000000E+02  0.91188000000E+02 0.  0.
    9900012    2    3    3    0    0 -0.25474627659E+02  0.26417688210E+02 -0.29878389020E+01  0.54367108023E+02  0.40000054360E+02 0.  0.
        -12    1    3    3    0    0  0.25474627659E+02 -0.26417688210E+02  0.29878389020E+01  0.36820891977E+02  0.00000000000E+00 0.  1.
         11    1    4    4    0    0  0.33174476210E+01 -0.27752711062E+00  0.26779274048E+01  0.42724437342E+01  0.51100000000E-03 0.  1.
        -11    1    4    4    0    0  0.50373876206E+00  0.15658175613E+02  0.58715809835E+01  0.16730441709E+02  0.51100000000E-03 0. -1.
         12    1    4    4    0    0 -0.29295814042E+02  0.11037039707E+02 -0.11537347290E+02  0.33364222580E+02  0.00000000000E+00 0. -1.
</event>
<event>
 8    1  0.2530183E-006  0.9118800E+02  0.7816164E-02  0.1184000E+00
        -11   -1    0    0    0    0  0.00000000000E+00  0.00000000000E+00  0.45593999997E+02  0.45594000000E+02  0.51100000000E-03 0.  1.
         11   -1    0    0    0    0 -0.00000000000E+00 -0.00000000000E+00 -0.45593999997E+02  0.45594000000E+02  0.51100000000E-03 0. -1.
         23    2    1    2    0    0  0.00000000000E+00  0.00000000000E+00  0.44408920985E-15  0.91188000000E+02  0.91188000000E+02 0.  0.
    9900012    2    3    3    0    0  0.15835797187E+02  0.33167139578E+02  0.22248349999E+01  0.54367061512E+02  0.39999948329E+02 0.  0.
        -12    1    3    3    0    0 -0.15835797187E+02 -0.33167139578E+02 -0.22248349999E+01  0.36820938488E+02  0.00000000000E+00 0.  1.
         11    1    4    4    0    0  0.16278108447E+02  0.13068712865E+02  0.86559809902E+01  0.22598541495E+02  0.51100000000E-03 0. -1.
        -11    1    4    4    0    0  0.79946884638E+01  0.14228487595E+02  0.43323467888E+01  0.16885915191E+02  0.51100000000E-03 0.  1.
        -12    1    4    4    0    0 -0.84369997240E+01  0.58699391186E+01 -0.10763492779E+02  0.14882604826E+02  0.00000000000E+00 0.  1.
</event>
<event>
 8    1  0.2530183E-006  0.9118800E+02  0.7816164E-02  0.1184000E+00
        -11   -1    0    0    0    0  0.00000000000E+00  0.00000000000E+00  0.45593999997E+02  0.45594000000E+02  0.51100000000E-03 0.  1.
         11   -1    0    0    0    0 -0.00000000000E+00 -0.00000000000E+00 -0.45593999997E+02  0.45594000000E+02  0.51100000000E-03 0. -1.
         23    2    1    2    0    0 -0.17763568394E-14  0.33306690739E-15 -0.71054273576E-14  0.91188000000E+02  0.91188000000E+02 0.  0.
    9900012    2    3    3    0    0  0.11013614467E+02 -0.94007364623E+00  0.35122585839E+02  0.54367089119E+02  0.40000011265E+02 0.  0.
         12    1    3    3    0    0 -0.11013614467E+02  0.94007364623E+00 -0.35122585839E+02  0.36820910881E+02  0.00000000000E+00 0. -1.
         11    1    4    4    0    0 -0.25747901028E+01  0.19345715464E+01 -0.29113171206E+01  0.43414143754E+01  0.51100000000E-03 0. -1.
        -11    1    4    4    0    0  0.43668851955E+01  0.13225764496E+02  0.17030238505E+02  0.22000444464E+02  0.51100000000E-03 0.  1.
        -12    1    4    4    0    0  0.92215193741E+01 -0.16100409689E+02  0.21003664455E+02  0.28025230280E+02  0.00000000000E+00 0.  1.
</event>
<event>
 8    1  0.2530183E-006  0.9118800E+02  0.7816164E-02  0.1184000E+00
        -11   -1    0    0    0    0  0.00000000000E+00  0.00000000000E+00  0.45593999997E+02  0.45594000000E+02  0.51100000000E-03 0.  1.
         11   -1    0    0    0    0 -0.00000000000E+00 -0.00000000000E+00 -0.45593999997E+02  0.45594000000E+02  0.51100000000E-03 0. -1.
         23    2    1    2    0    0  0.00000000000E+00  0.00000000000E+00  0.00000000000E+00  0.91188000000E+02  0.91188000000E+02 0.  0.
    9900012    2    3    3    0    0  0.32711505387E+02 -0.16043377579E+02  0.53245219839E+01  0.54367040165E+02  0.39999899663E+02 0.  0.
         12    1    3    3    0    0 -0.32711505387E+02  0.16043377579E+02 -0.53245219839E+01  0.36820959835E+02  0.00000000000E+00 0. -1.
         11    1    4    4    0    0  0.39261108910E+01  0.35847419087E+01 -0.17908995715E+01  0.56099949034E+01  0.51100000000E-03 0. -1.
        -11    1    4    4    0    0  0.81202006846E+01 -0.24620064164E+02 -0.11429762663E+01  0.25949790242E+02  0.51100000000E-03 0.  1.
        -12    1    4    4    0    0  0.20665193811E+02  0.49919446764E+01  0.82583978217E+01  0.22807255019E+02  0.00000000000E+00 0.  1.
</event>
<event>
 8    1  0.2530183E-006  0.9118800E+02  0.7816164E-02  0.1184000E+00
        -11   -1    0    0    0    0  0.00000000000E+00  0.00000000000E+00  0.45593999997E+02  0.45594000000E+02  0.51100000000E-03 0.  1.
         11   -1    0    0    0    0 -0.00000000000E+00 -0.00000000000E+00 -0.45593999997E+02  0.45594000000E+02  0.51100000000E-03 0. -1.
         23    2    1    2    0    0  0.17763568394E-14  0.00000000000E+00  0.00000000000E+00  0.91188000000E+02  0.91188000000E+02 0.  0.
    9900012    2    3    3    0    0  0.87913474116E+01  0.27741072829E+02  0.22559363693E+02  0.54367084731E+02  0.40000001262E+02 0.  0.
         12    1    3    3    0    0 -0.87913474116E+01 -0.27741072829E+02 -0.22559363693E+02  0.36820915269E+02  0.00000000000E+00 0. -1.
         11    1    4    4    0    0 -0.11345766095E+02  0.22041438356E+02  0.17799047094E+02  0.30518150187E+02  0.51100000000E-03 0. -1.
        -11    1    4    4    0    0  0.14823623091E+00 -0.72660114319E+00 -0.17217477036E+01  0.18746569333E+01  0.51100000000E-03 0.  1.
        -12    1    4    4    0    0  0.19988877276E+02  0.64262356153E+01  0.64820643026E+01  0.21974277612E+02  0.00000000000E+00 0.  1.
</event>
<event>
 8    1  0.2530183E-006  0.9118800E+02  0.7816164E-02  0.1184000E+00
        -11   -1    0    0    0    0  0.00000000000E+00  0.00000000000E+00  0.45593999997E+02  0.45594000000E+02  0.51100000000E-03 0.  1.
         11   -1    0    0    0    0 -0.00000000000E+00 -0.00000000000E+00 -0.45593999997E+02  0.45594000000E+02  0.51100000000E-03 0. -1.
         23    2    1    2    0    0  0.00000000000E+00  0.00000000000E+00  0.00000000000E+00  0.91188000000E+02  0.91188000000E+02 0.  0.
    9900012    2    3    3    0    0  0.24241491941E+02 -0.56017843532E+01  0.27143120020E+02  0.54367097188E+02  0.40000029659E+02 0.  0.
         12    1    3    3    0    0 -0.24241491941E+02  0.56017843532E+01 -0.27143120020E+02  0.36820902812E+02  0.00000000000E+00 0. -1.
         11    1    4    4    0    0  0.86922753741E+01 -0.44059336355E+01 -0.50557048656E+01  0.10978526965E+02  0.51100000000E-03 0. -1.
        -11    1    4    4    0    0  0.12952084779E+02 -0.11267809412E+02  0.26368518834E+02  0.31464564431E+02  0.51100000000E-03 0.  1.
        -12    1    4    4    0    0  0.25971317884E+01  0.10071958694E+02  0.58303060516E+01  0.11924005792E+02  0.00000000000E+00 0.  1.
</event>
<event>
 8    1  0.2530183E-006  0.9118800E+02  0.7816164E-02  0.1184000E+00
        -11   -1    0    0    0    0  0.00000000000E+00  0.00000000000E+00  0.45593999997E+02  0.45594000000E+02  0.51100000000E-03 0. -1.
         11   -1    0    0    0    0 -0.00000000000E+00 -0.00000000000E+00 -0.45593999997E+02  0.45594000000E+02  0.51100000000E-03 0.  1.
         23    2    1    2    0    0  0.00000000000E+00  0.35527136788E-14 -0.35527136788E-14  0.91188000000E+02  0.91188000000E+02 0.  0.
    9900012    2    3    3    0    0 -0.15890506300E+02 -0.22588342147E+02  0.24352380133E+02  0.54367084619E+02  0.40000001005E+02 0.  0.
        -12    1    3    3    0    0  0.15890506300E+02  0.22588342147E+02 -0.24352380133E+02  0.36820915381E+02  0.00000000000E+00 0.  1.
         11    1    4    4    0    0  0.50488702214E+01 -0.16176025680E+01  0.24316840568E+01  0.58327365956E+01  0.51100000000E-03 0. -1.
        -11    1    4    4    0    0 -0.18087220335E+01 -0.16404709600E+02 -0.30132639415E+01  0.16776940493E+02  0.51100000000E-03 0.  1.
         12    1    4    4    0    0 -0.19130654488E+02 -0.45660299786E+01  0.24933960017E+02  0.31757407530E+02  0.00000000000E+00 0. -1.
</event>
<event>
 8    1  0.2530183E-006  0.9118800E+02  0.7816164E-02  0.1184000E+00
        -11   -1    0    0    0    0  0.00000000000E+00  0.00000000000E+00  0.45593999997E+02  0.45594000000E+02  0.51100000000E-03 0.  1.
         11   -1    0    0    0    0 -0.00000000000E+00 -0.00000000000E+00 -0.45593999997E+02  0.45594000000E+02  0.51100000000E-03 0. -1.
         23    2    1    2    0    0  0.00000000000E+00  0.00000000000E+00  0.17763568394E-14  0.91188000000E+02  0.91188000000E+02 0.  0.
    9900012    2    3    3    0    0  0.33365152323E+02 -0.85865191169E+01 -0.12992867210E+02  0.54367132297E+02  0.40000109696E+02 0.  0.
        -12    1    3    3    0    0 -0.33365152323E+02  0.85865191169E+01  0.12992867210E+02  0.36820867703E+02  0.00000000000E+00 0.  1.
         11    1    4    4    0    0  0.13112683230E+02 -0.14856251684E+02 -0.49811089960E+01  0.20431889846E+02  0.51100000000E-03 0. -1.
        -11    1    4    4    0    0  0.21259072161E+02  0.78086417443E+01  0.29331310234E+01  0.22836950167E+02  0.51100000000E-03 0.  1.
        -12    1    4    4    0    0 -0.10066030683E+01 -0.15389091772E+01 -0.10944889238E+02  0.11098292284E+02  0.00000000000E+00 0.  1.
</event>
<event>
 8    1  0.2530183E-006  0.9118800E+02  0.7816164E-02  0.1184000E+00
        -11   -1    0    0    0    0  0.00000000000E+00  0.00000000000E+00  0.45593999997E+02  0.45594000000E+02  0.51100000000E-03 0.  1.
         11   -1    0    0    0    0 -0.00000000000E+00 -0.00000000000E+00 -0.45593999997E+02  0.45594000000E+02  0.51100000000E-03 0. -1.
         23    2    1    2    0    0  0.00000000000E+00  0.00000000000E+00  0.00000000000E+00  0.91188000000E+02  0.91188000000E+02 0.  0.
    9900012    2    3    3    0    0  0.21102803401E+01 -0.16615662634E+02  0.32790934654E+02  0.54367096652E+02  0.40000028439E+02 0.  0.
         12    1    3    3    0    0 -0.21102803401E+01  0.16615662634E+02 -0.32790934654E+02  0.36820903348E+02  0.00000000000E+00 0. -1.
         11    1    4    4    0    0  0.77553538061E+00  0.51851013002E+01  0.86129983963E+01  0.10083177686E+02  0.51100000000E-03 0. -1.
        -11    1    4    4    0    0  0.10798031864E+01 -0.29436611244E+02  0.19478854962E+02  0.35314385841E+02  0.51100000000E-03 0.  1.
        -12    1    4    4    0    0  0.25494177308E+00  0.76358473103E+01  0.46990812956E+01  0.89695331248E+01  0.00000000000E+00 0.  1.
</event>
<event>
 8    1  0.2530183E-006  0.9118800E+02  0.7816164E-02  0.1184000E+00
        -11   -1    0    0    0    0  0.00000000000E+00  0.00000000000E+00  0.45593999997E+02  0.45594000000E+02  0.51100000000E-03 0.  1.
         11   -1    0    0    0    0 -0.00000000000E+00 -0.00000000000E+00 -0.45593999997E+02  0.45594000000E+02  0.51100000000E-03 0. -1.
         23    2    1    2    0    0  0.00000000000E+00  0.00000000000E+00  0.00000000000E+00  0.91188000000E+02  0.91188000000E+02 0.  0.
    9900012    2    3    3    0    0  0.36044172909E+02  0.74151502044E+01  0.12688170567E+01  0.54367126165E+02  0.40000095717E+02 0.  0.
         12    1    3    3    0    0 -0.36044172909E+02 -0.74151502044E+01 -0.12688170567E+01  0.36820873835E+02  0.00000000000E+00 0. -1.
         11    1    4    4    0    0  0.11574881584E+02  0.11050121869E+02  0.58743481457E+01  0.17046731164E+02  0.51100000000E-03 0. -1.
        -11    1    4    4    0    0  0.14476002578E+02  0.11611202869E+02 -0.16559442276E+00  0.18558073835E+02  0.51100000000E-03 0.  1.
        -12    1    4    4    0    0  0.99932887477E+01 -0.15246174533E+02 -0.44399366663E+01  0.18762321165E+02  0.00000000000E+00 0.  1.
</event>
<event>
 8    1  0.2530183E-006  0.9118800E+02  0.7816164E-02  0.1184000E+00
        -11   -1    0    0    0    0  0.00000000000E+00  0.00000000000E+00  0.45593999997E+02  0.45594000000E+02  0.51100000000E-03 0. -1.
         11   -1    0    0    0    0 -0.00000000000E+00 -0.00000000000E+00 -0.45593999997E+02  0.45594000000E+02  0.51100000000E-03 0.  1.
         23    2    1    2    0    0 -0.17763568394E-14  0.35527136788E-14  0.00000000000E+00  0.91188000000E+02  0.91188000000E+02 0.  0.
    9900012    2    3    3    0    0 -0.85061182524E+01 -0.16065165669E+02 -0.32020879007E+02  0.54367078120E+02  0.39999986191E+02 0.  0.
         12    1    3    3    0    0  0.85061182524E+01  0.16065165669E+02  0.32020879007E+02  0.36820921880E+02  0.00000000000E+00 0. -1.
         11    1    4    4    0    0 -0.64614393836E+01  0.96723396752E-01  0.16728223053E+00  0.64643281112E+01  0.51100000000E-03 0. -1.
        -11    1    4    4    0    0 -0.63240196011E+01 -0.19576673972E+02 -0.64079917055E+01  0.21547662186E+02  0.51100000000E-03 0.  1.
        -12    1    4    4    0    0  0.42793407324E+01  0.34147849064E+01 -0.25780169532E+02  0.26355087823E+02  0.00000000000E+00 0.  1.
</event>
<event>
 8    1  0.2530183E-006  0.9118800E+02  0.7816164E-02  0.1184000E+00
        -11   -1    0    0    0    0  0.00000000000E+00  0.00000000000E+00  0.45593999997E+02  0.45594000000E+02  0.51100000000E-03 0. -1.
         11   -1    0    0    0    0 -0.00000000000E+00 -0.00000000000E+00 -0.45593999997E+02  0.45594000000E+02  0.51100000000E-03 0.  1.
         23    2    1    2    0    0  0.00000000000E+00 -0.17763568394E-14 -0.13322676296E-14  0.91188000000E+02  0.91188000000E+02 0.  0.
    9900012    2    3    3    0    0  0.36240614926E+02 -0.55823716542E+01 -0.33516924919E+01  0.54367097159E+02  0.40000029593E+02 0.  0.
         12    1    3    3    0    0 -0.36240614926E+02  0.55823716542E+01  0.33516924919E+01  0.36820902841E+02  0.00000000000E+00 0. -1.
         11    1    4    4    0    0  0.12080648907E+02 -0.17683298959E+02 -0.40552703911E+01  0.21796475823E+02  0.51100000000E-03 0. -1.
        -11    1    4    4    0    0 -0.25362022691E+01 -0.99196666924E+00  0.79339294202E+00  0.28365106106E+01  0.51100000000E-03 0.  1.
        -12    1    4    4    0    0  0.26696168288E+02  0.13092893974E+02 -0.89815042885E-01  0.29734110725E+02  0.00000000000E+00 0.  1.
</event>
<event>
 8    1  0.2530183E-006  0.9118800E+02  0.7816164E-02  0.1184000E+00
        -11   -1    0    0    0    0  0.00000000000E+00  0.00000000000E+00  0.45593999997E+02  0.45594000000E+02  0.51100000000E-03 0.  1.
         11   -1    0    0    0    0 -0.00000000000E+00 -0.00000000000E+00 -0.45593999997E+02  0.45594000000E+02  0.51100000000E-03 0. -1.
         23    2    1    2    0    0  0.00000000000E+00  0.00000000000E+00 -0.17763568394E-14  0.91188000000E+02  0.91188000000E+02 0.  0.
    9900012    2    3    3    0    0  0.27013998646E+02 -0.20946988877E+02  0.13683828774E+02  0.54367086978E+02  0.40000006384E+02 0.  0.
         12    1    3    3    0    0 -0.27013998646E+02  0.20946988877E+02 -0.13683828774E+02  0.36820913022E+02  0.00000000000E+00 0. -1.
         11    1    4    4    0    0  0.14831400436E+02 -0.85914134945E+01 -0.11447461305E+02  0.20611336573E+02  0.51100000000E-03 0. -1.
        -11    1    4    4    0    0  0.27877784704E+01 -0.12402754884E+02  0.11138982368E+02  0.16901981126E+02  0.51100000000E-03 0.  1.
         12    1    4    4    0    0  0.93948197391E+01  0.47179501143E-01  0.13992307711E+02  0.16853769279E+02  0.00000000000E+00 0. -1.
</event>
<event>
 8    1  0.2530183E-006  0.9118800E+02  0.7816164E-02  0.1184000E+00
        -11   -1    0    0    0    0  0.00000000000E+00  0.00000000000E+00  0.45593999997E+02  0.45594000000E+02  0.51100000000E-03 0.  1.
         11   -1    0    0    0    0 -0.00000000000E+00 -0.00000000000E+00 -0.45593999997E+02  0.45594000000E+02  0.51100000000E-03 0. -1.
         23    2    1    2    0    0  0.71054273576E-14  0.00000000000E+00 -0.17763568394E-14  0.91188000000E+02  0.91188000000E+02 0.  0.
    9900012    2    3    3    0    0 -0.27536800300E+02  0.18792343209E+02  0.15631805681E+02  0.54367070044E+02  0.39999967779E+02 0.  0.
         12    1    3    3    0    0  0.27536800300E+02 -0.18792343209E+02 -0.15631805681E+02  0.36820929956E+02  0.00000000000E+00 0. -1.
         11    1    4    4    0    0  0.55739686972E+01  0.55830518383E-01  0.21190213903E+01  0.59634298854E+01  0.51100000000E-03 0. -1.
        -11    1    4    4    0    0 -0.16896045215E+02  0.12075937926E+02  0.20824647296E+02  0.29410381772E+02  0.51100000000E-03 0.  1.
        -12    1    4    4    0    0 -0.16214723782E+02  0.66605747641E+01 -0.73118630059E+01  0.18993258386E+02  0.00000000000E+00 0.  1.
</event>
<event>
 8    1  0.2530183E-006  0.9118800E+02  0.7816164E-02  0.1184000E+00
        -11   -1    0    0    0    0  0.00000000000E+00  0.00000000000E+00  0.45593999997E+02  0.45594000000E+02  0.51100000000E-03 0.  1.
         11   -1    0    0    0    0 -0.00000000000E+00 -0.00000000000E+00 -0.45593999997E+02  0.45594000000E+02  0.51100000000E-03 0. -1.
         23    2    1    2    0    0  0.00000000000E+00  0.00000000000E+00  0.00000000000E+00  0.91188000000E+02  0.91188000000E+02 0.  0.
    9900012    2    3    3    0    0  0.28714554899E+02 -0.22874364155E+02  0.28313520777E+01  0.54367098963E+02  0.40000033707E+02 0.  0.
         12    1    3    3    0    0 -0.28714554899E+02  0.22874364155E+02 -0.28313520777E+01  0.36820901037E+02  0.00000000000E+00 0. -1.
         11    1    4    4    0    0 -0.15644274378E+01  0.69453123750E+01 -0.24613148562E+01  0.75327862227E+01  0.51100000000E-03 0. -1.
        -11    1    4    4    0    0  0.21269255970E+02 -0.29795049214E+02  0.46070570231E+00  0.36610633117E+02  0.51100000000E-03 0.  1.
         12    1    4    4    0    0  0.90097263667E+01 -0.24627315964E-01  0.48319612316E+01  0.10223679624E+02  0.00000000000E+00 0. -1.
</event>
<event>
 8    1  0.2530183E-006  0.9118800E+02  0.7816164E-02  0.1184000E+00
        -11   -1    0    0    0    0  0.00000000000E+00  0.00000000000E+00  0.45593999997E+02  0.45594000000E+02  0.51100000000E-03 0.  1.
         11   -1    0    0    0    0 -0.00000000000E+00 -0.00000000000E+00 -0.45593999997E+02  0.45594000000E+02  0.51100000000E-03 0. -1.
         23    2    1    2    0    0 -0.35527136788E-14  0.17763568394E-14  0.00000000000E+00  0.91188000000E+02  0.91188000000E+02 0.  0.
    9900012    2    3    3    0    0  0.29963468848E+02  0.11876496676E+02  0.17802198301E+02  0.54367096928E+02  0.40000029066E+02 0.  0.
        -12    1    3    3    0    0 -0.29963468848E+02 -0.11876496676E+02 -0.17802198301E+02  0.36820903072E+02  0.00000000000E+00 0.  1.
         11    1    4    4    0    0  0.25301256374E+02  0.18944415580E+02  0.65908029507E+01  0.32287507485E+02  0.51100000000E-03 0. -1.
        -11    1    4    4    0    0 -0.64735268960E+01 -0.19585692854E+01  0.37207620984E+01  0.77192366833E+01  0.51100000000E-03 0.  1.
        -12    1    4    4    0    0  0.11135739370E+02 -0.51093496194E+01  0.74906332521E+01  0.14360352759E+02  0.00000000000E+00 0.  1.
</event>
<event>
 8    1  0.2530183E-006  0.9118800E+02  0.7816164E-02  0.1184000E+00
        -11   -1    0    0    0    0  0.00000000000E+00  0.00000000000E+00  0.45593999997E+02  0.45594000000E+02  0.51100000000E-03 0.  1.
         11   -1    0    0    0    0 -0.00000000000E+00 -0.00000000000E+00 -0.45593999997E+02  0.45594000000E+02  0.51100000000E-03 0. -1.
         23    2    1    2    0    0  0.00000000000E+00  0.00000000000E+00  0.00000000000E+00  0.91188000000E+02  0.91188000000E+02 0.  0.
    9900012    2    3    3    0    0 -0.28552037201E+02 -0.16847741187E+02 -0.16022328163E+02  0.54367079164E+02  0.39999988570E+02 0.  0.
        -12    1    3    3    0    0  0.28552037201E+02  0.16847741187E+02  0.16022328163E+02  0.36820920836E+02  0.00000000000E+00 0.  1.
         11    1    4    4    0    0 -0.82806274857E+01 -0.95006753371E+01 -0.65104444618E+01  0.14185115818E+02  0.51100000000E-03 0. -1.
        -11    1    4    4    0    0 -0.25564483614E+02  0.10757473721E+00  0.18109714018E+01  0.25628773136E+02  0.51100000000E-03 0.  1.
        -12    1    4    4    0    0  0.52930738990E+01 -0.74546405870E+01 -0.11322855104E+02  0.14553190210E+02  0.00000000000E+00 0.  1.
</event>
<event>
 8    1  0.2530183E-006  0.9118800E+02  0.7816164E-02  0.1184000E+00
        -11   -1    0    0    0    0  0.00000000000E+00  0.00000000000E+00  0.45593999997E+02  0.45594000000E+02  0.51100000000E-03 0.  1.
         11   -1    0    0    0    0 -0.00000000000E+00 -0.00000000000E+00 -0.45593999997E+02  0.45594000000E+02  0.51100000000E-03 0. -1.
         23    2    1    2    0    0 -0.35527136788E-14  0.44408920985E-15 -0.71054273576E-14  0.91188000000E+02  0.91188000000E+02 0.  0.
    9900012    2    3    3    0    0 -0.21847449977E+02 -0.24151571963E+01  0.29540356179E+02  0.54367126871E+02  0.40000097328E+02 0.  0.
         12    1    3    3    0    0  0.21847449977E+02  0.24151571963E+01 -0.29540356179E+02  0.36820873129E+02  0.00000000000E+00 0. -1.
         11    1    4    4    0    0 -0.26599562376E+01 -0.13477764126E+02 -0.37413802793E+01  0.14238097474E+02  0.51100000000E-03 0. -1.
        -11    1    4    4    0    0 -0.91451616973E+01  0.47391273155E+01  0.12494407808E+02  0.16192700112E+02  0.51100000000E-03 0.  1.
         12    1    4    4    0    0 -0.10042332042E+02  0.63234796138E+01  0.20787328650E+02  0.23936329286E+02  0.00000000000E+00 0. -1.
</event>
<event>
 8    1  0.2530183E-006  0.9118800E+02  0.7816164E-02  0.1184000E+00
        -11   -1    0    0    0    0  0.00000000000E+00  0.00000000000E+00  0.45593999997E+02  0.45594000000E+02  0.51100000000E-03 0. -1.
         11   -1    0    0    0    0 -0.00000000000E+00 -0.00000000000E+00 -0.45593999997E+02  0.45594000000E+02  0.51100000000E-03 0.  1.
         23    2    1    2    0    0  0.00000000000E+00  0.26645352591E-14 -0.17763568394E-14  0.91188000000E+02  0.91188000000E+02 0.  0.
    9900012    2    3    3    0    0  0.33531971527E+02  0.71768642780E+01  0.13411883310E+02  0.54367094128E+02  0.40000022683E+02 0.  0.
        -12    1    3    3    0    0 -0.33531971527E+02 -0.71768642780E+01 -0.13411883310E+02  0.36820905872E+02  0.00000000000E+00 0.  1.
         11    1    4    4    0    0  0.64860185689E+01 -0.26003303910E+01 -0.10124184528E+02  0.12301596142E+02  0.51100000000E-03 0. -1.
        -11    1    4    4    0    0 -0.24913129350E+01 -0.53911266149E+00 -0.51746708687E+00  0.26009719432E+01  0.51100000000E-03 0.  1.
         12    1    4    4    0    0  0.29537265893E+02  0.10316307331E+02  0.24053534925E+02  0.39464526042E+02  0.00000000000E+00 0. -1.
</event>
<event>
 8    1  0.2530183E-006  0.9118800E+02  0.7816164E-02  0.1184000E+00
        -11   -1    0    0    0    0  0.00000000000E+00  0.00000000000E+00  0.45593999997E+02  0.45594000000E+02  0.51100000000E-03 0.  1.
         11   -1    0    0    0    0 -0.00000000000E+00 -0.00000000000E+00 -0.45593999997E+02  0.45594000000E+02  0.51100000000E-03 0. -1.
         23    2    1    2    0    0  0.00000000000E+00  0.00000000000E+00  0.00000000000E+00  0.91188000000E+02  0.91188000000E+02 0.  0.
    9900012    2    3    3    0    0  0.19868438573E+02 -0.21717034126E+02  0.22122238970E+02  0.54367110826E+02  0.40000060749E+02 0.  0.
         12    1    3    3    0    0 -0.19868438573E+02  0.21717034126E+02 -0.22122238970E+02  0.36820889174E+02  0.00000000000E+00 0. -1.
         11    1    4    4    0    0  0.67224445927E+00 -0.25567192034E+01  0.86843645163E+01  0.90778253459E+01  0.51100000000E-03 0. -1.
        -11    1    4    4    0    0 -0.88949810058E+00 -0.22390367470E+02  0.10458491088E+02  0.24728521962E+02  0.51100000000E-03 0.  1.
         12    1    4    4    0    0  0.20085692214E+02  0.32300525476E+01  0.29793833652E+01  0.20560763518E+02  0.00000000000E+00 0. -1.
</event>
<event>
 8    1  0.2530183E-006  0.9118800E+02  0.7816164E-02  0.1184000E+00
        -11   -1    0    0    0    0  0.00000000000E+00  0.00000000000E+00  0.45593999997E+02  0.45594000000E+02  0.51100000000E-03 0.  1.
         11   -1    0    0    0    0 -0.00000000000E+00 -0.00000000000E+00 -0.45593999997E+02  0.45594000000E+02  0.51100000000E-03 0. -1.
         23    2    1    2    0    0 -0.17763568394E-14  0.00000000000E+00  0.00000000000E+00  0.91188000000E+02  0.91188000000E+02 0.  0.
    9900012    2    3    3    0    0 -0.99409895703E+01  0.23372621080E+02 -0.26658550992E+02  0.54367068035E+02  0.39999963199E+02 0.  0.
        -12    1    3    3    0    0  0.99409895703E+01 -0.23372621080E+02  0.26658550992E+02  0.36820931965E+02  0.00000000000E+00 0.  1.
         11    1    4    4    0    0 -0.15858515414E+02 -0.68582333770E+00 -0.23399324089E+01  0.16044879206E+02  0.51100000000E-03 0.  1.
        -11    1    4    4    0    0  0.39437665926E+01  0.28987457469E+01 -0.13735058326E+02  0.14581078469E+02  0.51100000000E-03 0. -1.
        -12    1    4    4    0    0  0.19737592511E+01  0.21159698671E+02 -0.10583560258E+02  0.23741110360E+02  0.00000000000E+00 0.  1.
</event>
<event>
 8    1  0.2530183E-006  0.9118800E+02  0.7816164E-02  0.1184000E+00
        -11   -1    0    0    0    0  0.00000000000E+00  0.00000000000E+00  0.45593999997E+02  0.45594000000E+02  0.51100000000E-03 0.  1.
         11   -1    0    0    0    0 -0.00000000000E+00 -0.00000000000E+00 -0.45593999997E+02  0.45594000000E+02  0.51100000000E-03 0. -1.
         23    2    1    2    0    0  0.00000000000E+00  0.00000000000E+00  0.35527136788E-14  0.91188000000E+02  0.91188000000E+02 0.  0.
    9900012    2    3    3    0    0 -0.22706144323E+02 -0.44276653571E+01  0.28646302917E+02  0.54367029327E+02  0.39999874956E+02 0.  0.
         12    1    3    3    0    0  0.22706144323E+02  0.44276653571E+01 -0.28646302917E+02  0.36820970673E+02  0.00000000000E+00 0. -1.
         11    1    4    4    0    0  0.85140145047E+00 -0.70960916333E+01  0.37688210275E+01  0.80798151648E+01  0.51100000000E-03 0. -1.
        -11    1    4    4    0    0  0.74583480678E+00  0.80746185414E+01  0.19068539211E+02  0.20721122606E+02  0.51100000000E-03 0.  1.
         12    1    4    4    0    0 -0.24303380580E+02 -0.54061922652E+01  0.58089426788E+01  0.25566091556E+02  0.00000000000E+00 0. -1.
</event>
<event>
 8    1  0.2530183E-006  0.9118800E+02  0.7816164E-02  0.1184000E+00
        -11   -1    0    0    0    0  0.00000000000E+00  0.00000000000E+00  0.45593999997E+02  0.45594000000E+02  0.51100000000E-03 0.  1.
         11   -1    0    0    0    0 -0.00000000000E+00 -0.00000000000E+00 -0.45593999997E+02  0.45594000000E+02  0.51100000000E-03 0. -1.
         23    2    1    2    0    0 -0.35527136788E-14 -0.71054273576E-14  0.00000000000E+00  0.91188000000E+02  0.91188000000E+02 0.  0.
    9900012    2    3    3    0    0  0.13477969973E+02  0.28422925809E+02 -0.19137956539E+02  0.54367085201E+02  0.40000002332E+02 0.  0.
         12    1    3    3    0    0 -0.13477969973E+02 -0.28422925809E+02  0.19137956539E+02  0.36820914799E+02  0.00000000000E+00 0. -1.
         11    1    4    4    0    0 -0.15192685116E+01  0.75574618488E+01 -0.19208847649E+02  0.20697904113E+02  0.51100000000E-03 0. -1.
        -11    1    4    4    0    0  0.10737921507E+02  0.51912688339E+01 -0.91130091850E+01  0.15009968923E+02  0.51100000000E-03 0.  1.
         12    1    4    4    0    0  0.42593169784E+01  0.15674195127E+02  0.91839002954E+01  0.18659212165E+02  0.00000000000E+00 0. -1.
</event>
<event>
 8    1  0.2530183E-006  0.9118800E+02  0.7816164E-02  0.1184000E+00
        -11   -1    0    0    0    0  0.00000000000E+00  0.00000000000E+00  0.45593999997E+02  0.45594000000E+02  0.51100000000E-03 0. -1.
         11   -1    0    0    0    0 -0.00000000000E+00 -0.00000000000E+00 -0.45593999997E+02  0.45594000000E+02  0.51100000000E-03 0.  1.
         23    2    1    2    0    0 -0.35527136788E-14 -0.35527136788E-14  0.17763568394E-14  0.91188000000E+02  0.91188000000E+02 0.  0.
    9900012    2    3    3    0    0  0.17188022641E+02  0.31557938274E+02  0.80279858627E+01  0.54367080030E+02  0.39999990544E+02 0.  0.
         12    1    3    3    0    0 -0.17188022641E+02 -0.31557938274E+02 -0.80279858627E+01  0.36820919970E+02  0.00000000000E+00 0. -1.
         11    1    4    4    0    0 -0.23014382361E+01  0.11732937049E+02 -0.11061742136E+02  0.16288663822E+02  0.51100000000E-03 0. -1.
        -11    1    4    4    0    0  0.15587576317E+02  0.14625900188E+02  0.22247226370E+02  0.30851719128E+02  0.51100000000E-03 0.  1.
        -12    1    4    4    0    0  0.39018845601E+01  0.51991010378E+01 -0.31574983711E+01  0.72266970799E+01  0.00000000000E+00 0.  1.
</event>
<event>
 8    1  0.2530183E-006  0.9118800E+02  0.7816164E-02  0.1184000E+00
        -11   -1    0    0    0    0  0.00000000000E+00  0.00000000000E+00  0.45593999997E+02  0.45594000000E+02  0.51100000000E-03 0. -1.
         11   -1    0    0    0    0 -0.00000000000E+00 -0.00000000000E+00 -0.45593999997E+02  0.45594000000E+02  0.51100000000E-03 0.  1.
         23    2    1    2    0    0  0.00000000000E+00  0.00000000000E+00  0.00000000000E+00  0.91188000000E+02  0.91188000000E+02 0.  0.
    9900012    2    3    3    0    0  0.14010488196E+02 -0.19494694954E+02  0.27918591793E+02  0.54367018501E+02  0.39999850276E+02 0.  0.
         12    1    3    3    0    0 -0.14010488196E+02  0.19494694954E+02 -0.27918591793E+02  0.36820981499E+02  0.00000000000E+00 0. -1.
         11    1    4    4    0    0 -0.93035547817E+00 -0.28828361232E+01 -0.43381214399E+01  0.52910871584E+01  0.51100000000E-03 0. -1.
        -11    1    4    4    0    0  0.15373178176E+02 -0.83733408990E+01  0.18886500935E+01  0.17607227052E+02  0.51100000000E-03 0.  1.
         12    1    4    4    0    0 -0.43233450157E+00 -0.82385179323E+01  0.30368063140E+02  0.31468704290E+02  0.00000000000E+00 0. -1.
</event>
<event>
 8    1  0.2530183E-006  0.9118800E+02  0.7816164E-02  0.1184000E+00
        -11   -1    0    0    0    0  0.00000000000E+00  0.00000000000E+00  0.45593999997E+02  0.45594000000E+02  0.51100000000E-03 0.  1.
         11   -1    0    0    0    0 -0.00000000000E+00 -0.00000000000E+00 -0.45593999997E+02  0.45594000000E+02  0.51100000000E-03 0. -1.
         23    2    1    2    0    0  0.00000000000E+00  0.00000000000E+00  0.12212453271E-14  0.91188000000E+02  0.91188000000E+02 0.  0.
    9900012    2    3    3    0    0 -0.21202951323E+02  0.30099718282E+02 -0.46943513550E+00  0.54367101657E+02  0.40000039847E+02 0.  0.
         12    1    3    3    0    0  0.21202951323E+02 -0.30099718282E+02  0.46943513550E+00  0.36820898343E+02  0.00000000000E+00 0. -1.
         11    1    4    4    0    0 -0.58220874071E+01  0.16482407209E+02 -0.13541552921E+02  0.22111990073E+02  0.51100000000E-03 0. -1.
        -11    1    4    4    0    0 -0.39434612272E+01  0.11645554785E+02  0.16102570888E+02  0.20259877150E+02  0.51100000000E-03 0.  1.
         12    1    4    4    0    0 -0.11437402689E+02  0.19717562878E+01 -0.30304531019E+01  0.11995234434E+02  0.00000000000E+00 0. -1.
</event>
<event>
 8    1  0.2530183E-006  0.9118800E+02  0.7816164E-02  0.1184000E+00
        -11   -1    0    0    0    0  0.00000000000E+00  0.00000000000E+00  0.45593999997E+02  0.45594000000E+02  0.51100000000E-03 0.  1.
         11   -1    0    0    0    0 -0.00000000000E+00 -0.00000000000E+00 -0.45593999997E+02  0.45594000000E+02  0.51100000000E-03 0. -1.
         23    2    1    2    0    0  0.00000000000E+00  0.00000000000E+00 -0.17763568394E-14  0.91188000000E+02  0.91188000000E+02 0.  0.
    9900012    2    3    3    0    0  0.31660954036E+02 -0.14301231682E+02  0.12199900558E+02  0.54367098168E+02  0.40000031894E+02 0.  0.
         12    1    3    3    0    0 -0.31660954036E+02  0.14301231682E+02 -0.12199900558E+02  0.36820901832E+02  0.00000000000E+00 0. -1.
         11    1    4    4    0    0  0.63582059039E+01  0.37657569334E+01 -0.92152833111E+01  0.11812245949E+02  0.51100000000E-03 0. -1.
        -11    1    4    4    0    0  0.12086856656E+02 -0.17686403794E+02  0.19914246300E+02  0.29248558750E+02  0.51100000000E-03 0.  1.
        -12    1    4    4    0    0  0.13215891476E+02 -0.38058482105E+00  0.15009375692E+01  0.13306293469E+02  0.00000000000E+00 0.  1.
</event>
<event>
 8    1  0.2530183E-006  0.9118800E+02  0.7816164E-02  0.1184000E+00
        -11   -1    0    0    0    0  0.00000000000E+00  0.00000000000E+00  0.45593999997E+02  0.45594000000E+02  0.51100000000E-03 0.  1.
         11   -1    0    0    0    0 -0.00000000000E+00 -0.00000000000E+00 -0.45593999997E+02  0.45594000000E+02  0.51100000000E-03 0. -1.
         23    2    1    2    0    0 -0.53290705182E-14  0.00000000000E+00  0.17763568394E-14  0.91188000000E+02  0.91188000000E+02 0.  0.
    9900012    2    3    3    0    0 -0.12483224038E+02 -0.33229103772E+02  0.97862842854E+01  0.54367142052E+02  0.40000131936E+02 0.  0.
         12    1    3    3    0    0  0.12483224038E+02  0.33229103772E+02 -0.97862842854E+01  0.36820857948E+02  0.00000000000E+00 0. -1.
         11    1    4    4    0    0  0.88088034343E+01 -0.15015731634E+02 -0.42609018259E+01  0.17922681135E+02  0.51100000000E-03 0. -1.
        -11    1    4    4    0    0 -0.33465908818E+01 -0.92693652665E+01  0.13071109225E+02  0.16369932792E+02  0.51100000000E-03 0.  1.
         12    1    4    4    0    0 -0.17945436590E+02 -0.89440068722E+01  0.97607688588E+00  0.20074528125E+02  0.00000000000E+00 0. -1.
</event>
<event>
 8    1  0.2530183E-006  0.9118800E+02  0.7816164E-02  0.1184000E+00
        -11   -1    0    0    0    0  0.00000000000E+00  0.00000000000E+00  0.45593999997E+02  0.45594000000E+02  0.51100000000E-03 0. -1.
         11   -1    0    0    0    0 -0.00000000000E+00 -0.00000000000E+00 -0.45593999997E+02  0.45594000000E+02  0.51100000000E-03 0.  1.
         23    2    1    2    0    0  0.00000000000E+00  0.00000000000E+00  0.17763568394E-14  0.91188000000E+02  0.91188000000E+02 0.  0.
    9900012    2    3    3    0    0  0.32905240942E+02 -0.81902304221E+01  0.14350795055E+02  0.54367081020E+02  0.39999992800E+02 0.  0.
         12    1    3    3    0    0 -0.32905240942E+02  0.81902304221E+01 -0.14350795055E+02  0.36820918980E+02  0.00000000000E+00 0. -1.
         11    1    4    4    0    0 -0.21202463804E+01  0.22549355713E-01  0.26437004611E+01  0.33889682171E+01  0.51100000000E-03 0. -1.
        -11    1    4    4    0    0  0.95453401000E+01  0.12080881393E+02 -0.22118403810E+01  0.15554852972E+02  0.51100000000E-03 0.  1.
         12    1    4    4    0    0  0.25480147223E+02 -0.20293661170E+02  0.13918934975E+02  0.35423259831E+02  0.00000000000E+00 0. -1.
</event>
<event>
 8    1  0.2530183E-006  0.9118800E+02  0.7816164E-02  0.1184000E+00
        -11   -1    0    0    0    0  0.00000000000E+00  0.00000000000E+00  0.45593999997E+02  0.45594000000E+02  0.51100000000E-03 0.  1.
         11   -1    0    0    0    0 -0.00000000000E+00 -0.00000000000E+00 -0.45593999997E+02  0.45594000000E+02  0.51100000000E-03 0. -1.
         23    2    1    2    0    0 -0.17763568394E-14  0.35527136788E-14  0.00000000000E+00  0.91188000000E+02  0.91188000000E+02 0.  0.
    9900012    2    3    3    0    0  0.12871810836E+02 -0.28823836178E+02 -0.18954754124E+02  0.54367085426E+02  0.40000002845E+02 0.  0.
         12    1    3    3    0    0 -0.12871810836E+02  0.28823836178E+02  0.18954754124E+02  0.36820914574E+02  0.00000000000E+00 0. -1.
         11    1    4    4    0    0 -0.57973238859E+01 -0.49153650619E+01 -0.90636329885E+01  0.11828745544E+02  0.51100000000E-03 0. -1.
        -11    1    4    4    0    0 -0.57875594305E+01 -0.12127429296E+02  0.56097699947E+00  0.13449352436E+02  0.51100000000E-03 0.  1.
         12    1    4    4    0    0  0.24456694152E+02 -0.11781041819E+02 -0.10452098135E+02  0.29088987446E+02  0.00000000000E+00 0. -1.
</event>
<event>
 8    1  0.2530183E-006  0.9118800E+02  0.7816164E-02  0.1184000E+00
        -11   -1    0    0    0    0  0.00000000000E+00  0.00000000000E+00  0.45593999997E+02  0.45594000000E+02  0.51100000000E-03 0.  1.
         11   -1    0    0    0    0 -0.00000000000E+00 -0.00000000000E+00 -0.45593999997E+02  0.45594000000E+02  0.51100000000E-03 0. -1.
         23    2    1    2    0    0 -0.35527136788E-14  0.17763568394E-14  0.00000000000E+00  0.91188000000E+02  0.91188000000E+02 0.  0.
    9900012    2    3    3    0    0  0.22788712912E+02  0.83533483235E+01  0.27688912891E+02  0.54367085271E+02  0.40000002493E+02 0.  0.
         12    1    3    3    0    0 -0.22788712912E+02 -0.83533483235E+01 -0.27688912891E+02  0.36820914729E+02  0.00000000000E+00 0. -1.
         11    1    4    4    0    0 -0.83573649171E+01 -0.73346151349E+01  0.48543414686E+01  0.12132879250E+02  0.51100000000E-03 0. -1.
        -11    1    4    4    0    0  0.12830669508E+02  0.83027341463E+01  0.13497630608E+02  0.20389887362E+02  0.51100000000E-03 0.  1.
         12    1    4    4    0    0  0.18315408321E+02  0.73852293121E+01  0.93369408145E+01  0.21844318660E+02  0.00000000000E+00 0. -1.
</event>
<event>
 8    1  0.2530183E-006  0.9118800E+02  0.7816164E-02  0.1184000E+00
        -11   -1    0    0    0    0  0.00000000000E+00  0.00000000000E+00  0.45593999997E+02  0.45594000000E+02  0.51100000000E-03 0. -1.
         11   -1    0    0    0    0 -0.00000000000E+00 -0.00000000000E+00 -0.45593999997E+02  0.45594000000E+02  0.51100000000E-03 0.  1.
         23    2    1    2    0    0 -0.26645352591E-14  0.00000000000E+00  0.00000000000E+00  0.91188000000E+02  0.91188000000E+02 0.  0.
    9900012    2    3    3    0    0  0.31078926859E+01  0.27160736740E+02  0.24666068712E+02  0.54367087968E+02  0.40000008640E+02 0.  0.
        -12    1    3    3    0    0 -0.31078926859E+01 -0.27160736740E+02 -0.24666068712E+02  0.36820912032E+02  0.00000000000E+00 0.  1.
         11    1    4    4    0    0 -0.11367150594E+02 -0.95669880351E+00  0.78163853481E+01  0.13828350060E+02  0.51100000000E-03 0. -1.
        -11    1    4    4    0    0  0.12539213051E+02  0.21531614842E+02  0.30198702298E+01  0.25099042175E+02  0.51100000000E-03 0.  1.
        -12    1    4    4    0    0  0.19358302285E+01  0.65858207019E+01  0.13829813134E+02  0.15439695733E+02  0.00000000000E+00 0.  1.
</event>
<event>
 8    1  0.2530183E-006  0.9118800E+02  0.7816164E-02  0.1184000E+00
        -11   -1    0    0    0    0  0.00000000000E+00  0.00000000000E+00  0.45593999997E+02  0.45594000000E+02  0.51100000000E-03 0.  1.
         11   -1    0    0    0    0 -0.00000000000E+00 -0.00000000000E+00 -0.45593999997E+02  0.45594000000E+02  0.51100000000E-03 0. -1.
         23    2    1    2    0    0  0.00000000000E+00  0.00000000000E+00 -0.35527136788E-14  0.91188000000E+02  0.91188000000E+02 0.  0.
    9900012    2    3    3    0    0 -0.10331502435E+02  0.28066072593E+02  0.21478795133E+02  0.54367041108E+02  0.39999901814E+02 0.  0.
         12    1    3    3    0    0  0.10331502435E+02 -0.28066072593E+02 -0.21478795133E+02  0.36820958892E+02  0.00000000000E+00 0. -1.
         11    1    4    4    0    0 -0.11941321700E+02  0.27312388568E+02  0.61765646225E+01  0.30441939557E+02  0.51100000000E-03 0. -1.
        -11    1    4    4    0    0 -0.44957021213E+00 -0.74541087380E+01  0.13227459205E+01  0.75838979084E+01  0.51100000000E-03 0.  1.
        -12    1    4    4    0    0  0.20593894774E+01  0.82077927632E+01  0.13979484590E+02  0.16341203642E+02  0.00000000000E+00 0.  1.
</event>
<event>
 8    1  0.2530183E-006  0.9118800E+02  0.7816164E-02  0.1184000E+00
        -11   -1    0    0    0    0  0.00000000000E+00  0.00000000000E+00  0.45593999997E+02  0.45594000000E+02  0.51100000000E-03 0. -1.
         11   -1    0    0    0    0 -0.00000000000E+00 -0.00000000000E+00 -0.45593999997E+02  0.45594000000E+02  0.51100000000E-03 0.  1.
         23    2    1    2    0    0  0.00000000000E+00  0.88817841970E-15 -0.71054273576E-14  0.91188000000E+02  0.91188000000E+02 0.  0.
    9900012    2    3    3    0    0 -0.10075573327E+02  0.30565058979E+01  0.35283595219E+02  0.54366925901E+02  0.39999639176E+02 0.  0.
        -12    1    3    3    0    0  0.10075573327E+02 -0.30565058979E+01 -0.35283595219E+02  0.36821074099E+02  0.00000000000E+00 0.  1.
         11    1    4    4    0    0 -0.85723860112E+01 -0.12356062952E+02  0.13557201020E+02  0.20247365097E+02  0.51100000000E-03 0. -1.
        -11    1    4    4    0    0  0.25004596640E+00  0.85402095215E+01  0.24917996808E+02  0.26342062692E+02  0.51100000000E-03 0.  1.
        -12    1    4    4    0    0 -0.17532332820E+01  0.68723593285E+01 -0.31916026090E+01  0.77774981128E+01  0.00000000000E+00 0.  1.
</event>
<event>
 8    1  0.2530183E-006  0.9118800E+02  0.7816164E-02  0.1184000E+00
        -11   -1    0    0    0    0  0.00000000000E+00  0.00000000000E+00  0.45593999997E+02  0.45594000000E+02  0.51100000000E-03 0.  1.
         11   -1    0    0    0    0 -0.00000000000E+00 -0.00000000000E+00 -0.45593999997E+02  0.45594000000E+02  0.51100000000E-03 0. -1.
         23    2    1    2    0    0  0.88817841970E-15  0.00000000000E+00  0.00000000000E+00  0.91188000000E+02  0.91188000000E+02 0.  0.
    9900012    2    3    3    0    0 -0.73962981355E+01 -0.33447335995E+02  0.13503719269E+02  0.54367082774E+02  0.39999996800E+02 0.  0.
         12    1    3    3    0    0  0.73962981355E+01  0.33447335995E+02 -0.13503719269E+02  0.36820917226E+02  0.00000000000E+00 0. -1.
         11    1    4    4    0    0  0.21829611832E+01 -0.73474338881E+01 -0.84357953744E+01  0.11397927361E+02  0.51100000000E-03 0. -1.
        -11    1    4    4    0    0 -0.13709210373E+02 -0.21857765982E+02  0.67544140878E+01  0.26670704766E+02  0.51100000000E-03 0.  1.
         12    1    4    4    0    0  0.41299510548E+01 -0.42421361249E+01  0.15185100555E+02  0.16298450647E+02  0.00000000000E+00 0. -1.
</event>
<event>
 8    1  0.2530183E-006  0.9118800E+02  0.7816164E-02  0.1184000E+00
        -11   -1    0    0    0    0  0.00000000000E+00  0.00000000000E+00  0.45593999997E+02  0.45594000000E+02  0.51100000000E-03 0. -1.
         11   -1    0    0    0    0 -0.00000000000E+00 -0.00000000000E+00 -0.45593999997E+02  0.45594000000E+02  0.51100000000E-03 0.  1.
         23    2    1    2    0    0 -0.13322676296E-14 -0.17763568394E-14 -0.71054273576E-14  0.91188000000E+02  0.91188000000E+02 0.  0.
    9900012    2    3    3    0    0  0.36655764598E+01  0.35970553112E+01  0.36461014462E+02  0.54367070717E+02  0.39999969313E+02 0.  0.
        -12    1    3    3    0    0 -0.36655764598E+01 -0.35970553112E+01 -0.36461014462E+02  0.36820929283E+02  0.00000000000E+00 0.  1.
         11    1    4    4    0    0  0.56100401622E+01  0.49341500307E+01  0.37473791853E+01  0.83583035460E+01  0.51100000000E-03 0. -1.
        -11    1    4    4    0    0 -0.11878252086E+02 -0.62161516351E+01  0.32257000352E+02  0.34932040962E+02  0.51100000000E-03 0.  1.
        -12    1    4    4    0    0  0.99337883841E+01  0.48790569156E+01  0.45663492414E+00  0.11076726209E+02  0.00000000000E+00 0.  1.
</event>
<event>
 8    1  0.2530183E-006  0.9118800E+02  0.7816164E-02  0.1184000E+00
        -11   -1    0    0    0    0  0.00000000000E+00  0.00000000000E+00  0.45593999997E+02  0.45594000000E+02  0.51100000000E-03 0. -1.
         11   -1    0    0    0    0 -0.00000000000E+00 -0.00000000000E+00 -0.45593999997E+02  0.45594000000E+02  0.51100000000E-03 0.  1.
         23    2    1    2    0    0  0.00000000000E+00  0.00000000000E+00 -0.71054273576E-14  0.91188000000E+02  0.91188000000E+02 0.  0.
    9900012    2    3    3    0    0  0.67178253352E+01  0.79340272361E+01 -0.35322809596E+02  0.54367097741E+02  0.40000030920E+02 0.  0.
         12    1    3    3    0    0 -0.67178253352E+01 -0.79340272361E+01  0.35322809596E+02  0.36820902259E+02  0.00000000000E+00 0. -1.
         11    1    4    4    0    0  0.73115989212E+01 -0.11980089385E+02 -0.23832974608E+02  0.27658501394E+02  0.51100000000E-03 0. -1.
        -11    1    4    4    0    0 -0.45167035774E+01  0.54408736380E+01  0.10652724802E+01  0.71511203926E+01  0.51100000000E-03 0.  1.
        -12    1    4    4    0    0  0.39229299915E+01  0.14473242983E+02 -0.12555107468E+02  0.19557475954E+02  0.00000000000E+00 0.  1.
</event>
<event>
 8    1  0.2530183E-006  0.9118800E+02  0.7816164E-02  0.1184000E+00
        -11   -1    0    0    0    0  0.00000000000E+00  0.00000000000E+00  0.45593999997E+02  0.45594000000E+02  0.51100000000E-03 0.  1.
         11   -1    0    0    0    0 -0.00000000000E+00 -0.00000000000E+00 -0.45593999997E+02  0.45594000000E+02  0.51100000000E-03 0. -1.
         23    2    1    2    0    0  0.17763568394E-14  0.00000000000E+00 -0.71054273576E-14  0.91188000000E+02  0.91188000000E+02 0.  0.
    9900012    2    3    3    0    0  0.83192583105E+01  0.13606398627E+02 -0.33187891030E+02  0.54367078591E+02  0.39999987263E+02 0.  0.
        -12    1    3    3    0    0 -0.83192583105E+01 -0.13606398627E+02  0.33187891030E+02  0.36820921409E+02  0.00000000000E+00 0.  1.
         11    1    4    4    0    0 -0.18529771563E+01  0.12051854869E+02 -0.26674152319E+02  0.29329015195E+02  0.51100000000E-03 0. -1.
        -11    1    4    4    0    0  0.91458353701E+01 -0.11882642543E+01  0.67665356694E+01  0.11438718537E+02  0.51100000000E-03 0.  1.
        -12    1    4    4    0    0  0.10264000967E+01  0.27428080121E+01 -0.13280274380E+02  0.13599344858E+02  0.00000000000E+00 0.  1.
</event>
<event>
 8    1  0.2530183E-006  0.9118800E+02  0.7816164E-02  0.1184000E+00
        -11   -1    0    0    0    0  0.00000000000E+00  0.00000000000E+00  0.45593999997E+02  0.45594000000E+02  0.51100000000E-03 0.  1.
         11   -1    0    0    0    0 -0.00000000000E+00 -0.00000000000E+00 -0.45593999997E+02  0.45594000000E+02  0.51100000000E-03 0. -1.
         23    2    1    2    0    0  0.00000000000E+00  0.00000000000E+00  0.00000000000E+00  0.91188000000E+02  0.91188000000E+02 0.  0.
    9900012    2    3    3    0    0  0.27816458606E+02  0.97655270013E+01 -0.22060356256E+02  0.54367079247E+02  0.39999988759E+02 0.  0.
         12    1    3    3    0    0 -0.27816458606E+02 -0.97655270013E+01  0.22060356256E+02  0.36820920753E+02  0.00000000000E+00 0. -1.
         11    1    4    4    0    0 -0.67308592010E+01  0.27512094731E+00  0.26973504304E+01  0.72564355385E+01  0.51100000000E-03 0. -1.
        -11    1    4    4    0    0  0.10410372466E+02  0.11721559582E+02 -0.11823680640E+02  0.19635942505E+02  0.51100000000E-03 0.  1.
        -12    1    4    4    0    0  0.24136945341E+02 -0.22311535284E+01 -0.12934026047E+02  0.27474701203E+02  0.00000000000E+00 0.  1.
</event>
<event>
 8    1  0.2530183E-006  0.9118800E+02  0.7816164E-02  0.1184000E+00
        -11   -1    0    0    0    0  0.00000000000E+00  0.00000000000E+00  0.45593999997E+02  0.45594000000E+02  0.51100000000E-03 0. -1.
         11   -1    0    0    0    0 -0.00000000000E+00 -0.00000000000E+00 -0.45593999997E+02  0.45594000000E+02  0.51100000000E-03 0.  1.
         23    2    1    2    0    0  0.35527136788E-14  0.00000000000E+00 -0.35527136788E-14  0.91188000000E+02  0.91188000000E+02 0.  0.
    9900012    2    3    3    0    0 -0.30792018457E+02 -0.28659575546E+01 -0.19985457561E+02  0.54367073514E+02  0.39999975689E+02 0.  0.
         12    1    3    3    0    0  0.30792018457E+02  0.28659575546E+01  0.19985457561E+02  0.36820926486E+02  0.00000000000E+00 0. -1.
         11    1    4    4    0    0 -0.39930333405E+01  0.78076105159E+01  0.52380756183E+00  0.87850709644E+01  0.51100000000E-03 0. -1.
        -11    1    4    4    0    0  0.43977234809E+01 -0.25692687572E+01 -0.10765006866E+02  0.11909092612E+02  0.51100000000E-03 0.  1.
        -12    1    4    4    0    0 -0.31196708598E+02 -0.81042993133E+01 -0.97442582574E+01  0.33672909938E+02  0.00000000000E+00 0.  1.
</event>
<event>
 8    1  0.2530183E-006  0.9118800E+02  0.7816164E-02  0.1184000E+00
        -11   -1    0    0    0    0  0.00000000000E+00  0.00000000000E+00  0.45593999997E+02  0.45594000000E+02  0.51100000000E-03 0. -1.
         11   -1    0    0    0    0 -0.00000000000E+00 -0.00000000000E+00 -0.45593999997E+02  0.45594000000E+02  0.51100000000E-03 0.  1.
         23    2    1    2    0    0  0.35527136788E-14 -0.17763568394E-14  0.00000000000E+00  0.91188000000E+02  0.91188000000E+02 0.  0.
    9900012    2    3    3    0    0 -0.28883069659E+02  0.88717971836E+01 -0.21043696875E+02  0.54367113585E+02  0.40000067040E+02 0.  0.
         12    1    3    3    0    0  0.28883069659E+02 -0.88717971836E+01  0.21043696875E+02  0.36820886415E+02  0.00000000000E+00 0. -1.
         11    1    4    4    0    0 -0.90706617590E+00  0.17697506038E+02 -0.46863735855E+00  0.17726931777E+02  0.51100000000E-03 0. -1.
        -11    1    4    4    0    0 -0.57989152380E+01 -0.12715678614E+01 -0.81692561082E+00  0.59926346859E+01  0.51100000000E-03 0.  1.
         12    1    4    4    0    0 -0.22177088245E+02 -0.75541409927E+01 -0.19758133905E+02  0.30647547122E+02  0.00000000000E+00 0. -1.
</event>
<event>
 8    1  0.2530183E-006  0.9118800E+02  0.7816164E-02  0.1184000E+00
        -11   -1    0    0    0    0  0.00000000000E+00  0.00000000000E+00  0.45593999997E+02  0.45594000000E+02  0.51100000000E-03 0.  1.
         11   -1    0    0    0    0 -0.00000000000E+00 -0.00000000000E+00 -0.45593999997E+02  0.45594000000E+02  0.51100000000E-03 0. -1.
         23    2    1    2    0    0  0.00000000000E+00  0.00000000000E+00  0.00000000000E+00  0.91188000000E+02  0.91188000000E+02 0.  0.
    9900012    2    3    3    0    0  0.12570834591E+02 -0.17657943331E+02 -0.29764900311E+02  0.54367107351E+02  0.40000052828E+02 0.  0.
        -12    1    3    3    0    0 -0.12570834591E+02  0.17657943331E+02  0.29764900311E+02  0.36820892649E+02  0.00000000000E+00 0.  1.
         11    1    4    4    0    0  0.98850812853E+01 -0.19977341214E+02 -0.16120865963E+02  0.27508022714E+02  0.51100000000E-03 0. -1.
        -11    1    4    4    0    0  0.67023257865E+01 -0.62688622125E+01  0.11900154148E+01  0.92539689505E+01  0.51100000000E-03 0.  1.
         12    1    4    4    0    0 -0.40165724807E+01  0.85882600958E+01 -0.14834049762E+02  0.17605115686E+02  0.00000000000E+00 0. -1.
</event>
<event>
 8    1  0.2530183E-006  0.9118800E+02  0.7816164E-02  0.1184000E+00
        -11   -1    0    0    0    0  0.00000000000E+00  0.00000000000E+00  0.45593999997E+02  0.45594000000E+02  0.51100000000E-03 0.  1.
         11   -1    0    0    0    0 -0.00000000000E+00 -0.00000000000E+00 -0.45593999997E+02  0.45594000000E+02  0.51100000000E-03 0. -1.
         23    2    1    2    0    0  0.00000000000E+00  0.00000000000E+00  0.35527136788E-14  0.91188000000E+02  0.91188000000E+02 0.  0.
    9900012    2    3    3    0    0  0.97570132257E+01  0.20695211769E+02  0.28849236286E+02  0.54367224186E+02  0.40000319176E+02 0.  0.
         12    1    3    3    0    0 -0.97570132257E+01 -0.20695211769E+02 -0.28849236286E+02  0.36820775814E+02  0.00000000000E+00 0. -1.
         11    1    4    4    0    0 -0.34609154368E+01  0.54921421287E+01 -0.64505152032E+01  0.91515412620E+01  0.51100000000E-03 0. -1.
        -11    1    4    4    0    0  0.11091134087E+02  0.19996297592E+02  0.26809259325E+02  0.35236366988E+02  0.51100000000E-03 0.  1.
         12    1    4    4    0    0  0.21267945760E+01 -0.47932279514E+01  0.84904921644E+01  0.99793159362E+01  0.00000000000E+00 0. -1.
</event>
<event>
 8    1  0.2530183E-006  0.9118800E+02  0.7816164E-02  0.1184000E+00
        -11   -1    0    0    0    0  0.00000000000E+00  0.00000000000E+00  0.45593999997E+02  0.45594000000E+02  0.51100000000E-03 0. -1.
         11   -1    0    0    0    0 -0.00000000000E+00 -0.00000000000E+00 -0.45593999997E+02  0.45594000000E+02  0.51100000000E-03 0.  1.
         23    2    1    2    0    0  0.00000000000E+00  0.00000000000E+00  0.00000000000E+00  0.91188000000E+02  0.91188000000E+02 0.  0.
    9900012    2    3    3    0    0 -0.57595707684E+01  0.75538493942E+01 -0.35574519700E+02  0.54367085454E+02  0.40000002909E+02 0.  0.
         12    1    3    3    0    0  0.57595707684E+01 -0.75538493942E+01  0.35574519700E+02  0.36820914546E+02  0.00000000000E+00 0. -1.
         11    1    4    4    0    0  0.44174606336E+01  0.86702187033E+01 -0.73758391497E+01  0.12210227444E+02  0.51100000000E-03 0. -1.
        -11    1    4    4    0    0 -0.14769194671E+02  0.16673652080E+01 -0.15170928488E+01  0.14940240592E+02  0.51100000000E-03 0.  1.
        -12    1    4    4    0    0  0.45921632694E+01 -0.27837345171E+01 -0.26681587702E+02  0.27216617418E+02  0.00000000000E+00 0.  1.
</event>
<event>
 8    1  0.2530183E-006  0.9118800E+02  0.7816164E-02  0.1184000E+00
        -11   -1    0    0    0    0  0.00000000000E+00  0.00000000000E+00  0.45593999997E+02  0.45594000000E+02  0.51100000000E-03 0. -1.
         11   -1    0    0    0    0 -0.00000000000E+00 -0.00000000000E+00 -0.45593999997E+02  0.45594000000E+02  0.51100000000E-03 0.  1.
         23    2    1    2    0    0  0.00000000000E+00  0.00000000000E+00  0.00000000000E+00  0.91188000000E+02  0.91188000000E+02 0.  0.
    9900012    2    3    3    0    0 -0.27576390371E+02 -0.23558631290E+02  0.63493465905E+01  0.54367073664E+02  0.39999976032E+02 0.  0.
        -12    1    3    3    0    0  0.27576390371E+02  0.23558631290E+02 -0.63493465905E+01  0.36820926336E+02  0.00000000000E+00 0.  1.
         11    1    4    4    0    0 -0.16777804381E+02 -0.24455832783E+02  0.46711828516E+01  0.30023364676E+02  0.51100000000E-03 0. -1.
        -11    1    4    4    0    0  0.42743396310E+01 -0.17696087344E+01  0.67808165579E+01  0.82085910976E+01  0.51100000000E-03 0.  1.
        -12    1    4    4    0    0 -0.15072925621E+02  0.26668102277E+01 -0.51026528190E+01  0.16135117891E+02  0.00000000000E+00 0.  1.
</event>
<event>
 8    1  0.2530183E-006  0.9118800E+02  0.7816164E-02  0.1184000E+00
        -11   -1    0    0    0    0  0.00000000000E+00  0.00000000000E+00  0.45593999997E+02  0.45594000000E+02  0.51100000000E-03 0.  1.
         11   -1    0    0    0    0 -0.00000000000E+00 -0.00000000000E+00 -0.45593999997E+02  0.45594000000E+02  0.51100000000E-03 0. -1.
         23    2    1    2    0    0  0.35527136788E-14  0.00000000000E+00  0.88817841970E-15  0.91188000000E+02  0.91188000000E+02 0.  0.
    9900012    2    3    3    0    0 -0.27904618776E+02 -0.23072368657E+02 -0.66916391640E+01  0.54367082315E+02  0.39999995754E+02 0.  0.
        -12    1    3    3    0    0  0.27904618776E+02  0.23072368657E+02  0.66916391640E+01  0.36820917685E+02  0.00000000000E+00 0.  1.
         11    1    4    4    0    0 -0.13339858891E+02 -0.96971106627E+01 -0.23029486949E+02  0.28325660801E+02  0.51100000000E-03 0. -1.
        -11    1    4    4    0    0  0.11126911702E+00 -0.11069448215E+01  0.12901264998E+01  0.17035651737E+01  0.51100000000E-03 0.  1.
        -12    1    4    4    0    0 -0.14676029002E+02 -0.12268313172E+02  0.15047721285E+02  0.24337856340E+02  0.00000000000E+00 0.  1.
</event>
<event>
 8    1  0.2530183E-006  0.9118800E+02  0.7816164E-02  0.1184000E+00
        -11   -1    0    0    0    0  0.00000000000E+00  0.00000000000E+00  0.45593999997E+02  0.45594000000E+02  0.51100000000E-03 0. -1.
         11   -1    0    0    0    0 -0.00000000000E+00 -0.00000000000E+00 -0.45593999997E+02  0.45594000000E+02  0.51100000000E-03 0.  1.
         23    2    1    2    0    0  0.00000000000E+00  0.00000000000E+00  0.35527136788E-14  0.91188000000E+02  0.91188000000E+02 0.  0.
    9900012    2    3    3    0    0 -0.16141589610E+02 -0.16129477809E+02  0.28897551690E+02  0.54367089321E+02  0.40000011726E+02 0.  0.
        -12    1    3    3    0    0  0.16141589610E+02  0.16129477809E+02 -0.28897551690E+02  0.36820910679E+02  0.00000000000E+00 0.  1.
         11    1    4    4    0    0 -0.32443738726E+01  0.20217743328E+01  0.12298346001E+02  0.12878775093E+02  0.51100000000E-03 0. -1.
        -11    1    4    4    0    0  0.69998658200E+01  0.41477550358E+01  0.34245771688E+01  0.88277812830E+01  0.51100000000E-03 0.  1.
         12    1    4    4    0    0 -0.19897081558E+02 -0.22299007178E+02  0.13174628520E+02  0.32660532945E+02  0.00000000000E+00 0. -1.
</event>
<event>
 8    1  0.2530183E-006  0.9118800E+02  0.7816164E-02  0.1184000E+00
        -11   -1    0    0    0    0  0.00000000000E+00  0.00000000000E+00  0.45593999997E+02  0.45594000000E+02  0.51100000000E-03 0.  1.
         11   -1    0    0    0    0 -0.00000000000E+00 -0.00000000000E+00 -0.45593999997E+02  0.45594000000E+02  0.51100000000E-03 0. -1.
         23    2    1    2    0    0  0.88817841970E-15  0.00000000000E+00  0.00000000000E+00  0.91188000000E+02  0.91188000000E+02 0.  0.
    9900012    2    3    3    0    0  0.34198358338E+01  0.10205447288E+02 -0.35212588026E+02  0.54367179980E+02  0.40000218399E+02 0.  0.
        -12    1    3    3    0    0 -0.34198358338E+01 -0.10205447288E+02  0.35212588026E+02  0.36820820020E+02  0.00000000000E+00 0.  1.
         11    1    4    4    0    0  0.14151938575E+02 -0.82826696913E+01 -0.17686658111E+02  0.24118413257E+02  0.51100000000E-03 0. -1.
        -11    1    4    4    0    0 -0.67323485849E+01  0.46751091734E+01 -0.86788871752E+00  0.82422323638E+01  0.51100000000E-03 0.  1.
         12    1    4    4    0    0 -0.39997541558E+01  0.13813007806E+02 -0.16658041197E+02  0.22006534359E+02  0.00000000000E+00 0. -1.
</event>
<event>
 8    1  0.2530183E-006  0.9118800E+02  0.7816164E-02  0.1184000E+00
        -11   -1    0    0    0    0  0.00000000000E+00  0.00000000000E+00  0.45593999997E+02  0.45594000000E+02  0.51100000000E-03 0.  1.
         11   -1    0    0    0    0 -0.00000000000E+00 -0.00000000000E+00 -0.45593999997E+02  0.45594000000E+02  0.51100000000E-03 0. -1.
         23    2    1    2    0    0  0.00000000000E+00  0.00000000000E+00  0.88817841970E-15  0.91188000000E+02  0.91188000000E+02 0.  0.
    9900012    2    3    3    0    0  0.16511913556E+02 -0.32572232515E+02 -0.47102489804E+01  0.54367081139E+02  0.39999993073E+02 0.  0.
        -12    1    3    3    0    0 -0.16511913556E+02  0.32572232515E+02  0.47102489804E+01  0.36820918861E+02  0.00000000000E+00 0.  1.
         11    1    4    4    0    0  0.44584795845E+01 -0.13459211336E+02 -0.84033278589E+01  0.16481636125E+02  0.51100000000E-03 0. -1.
        -11    1    4    4    0    0  0.85762092937E+01  0.70950597386E+01 -0.37274640226E+00  0.11136883706E+02  0.51100000000E-03 0.  1.
        -12    1    4    4    0    0  0.34772246775E+01 -0.26208080918E+02  0.40658252807E+01  0.26748561308E+02  0.00000000000E+00 0.  1.
</event>
<event>
 8    1  0.2530183E-006  0.9118800E+02  0.7816164E-02  0.1184000E+00
        -11   -1    0    0    0    0  0.00000000000E+00  0.00000000000E+00  0.45593999997E+02  0.45594000000E+02  0.51100000000E-03 0. -1.
         11   -1    0    0    0    0 -0.00000000000E+00 -0.00000000000E+00 -0.45593999997E+02  0.45594000000E+02  0.51100000000E-03 0.  1.
         23    2    1    2    0    0  0.00000000000E+00 -0.88817841970E-15  0.00000000000E+00  0.91188000000E+02  0.91188000000E+02 0.  0.
    9900012    2    3    3    0    0  0.10216757238E+02 -0.55846077387E+01 -0.34931496160E+02  0.54367090234E+02  0.40000013806E+02 0.  0.
         12    1    3    3    0    0 -0.10216757238E+02  0.55846077387E+01  0.34931496160E+02  0.36820909766E+02  0.00000000000E+00 0. -1.
         11    1    4    4    0    0 -0.10548315897E+01 -0.94623456524E+01 -0.37264152444E+01  0.10224227392E+02  0.51100000000E-03 0.  1.
        -11    1    4    4    0    0  0.12100208909E+02 -0.89361469250E+01 -0.26491839581E+02  0.30464525963E+02  0.51100000000E-03 0. -1.
         12    1    4    4    0    0 -0.82862008132E+00  0.12813884839E+02 -0.47132413347E+01  0.13678336879E+02  0.00000000000E+00 0. -1.
</event>
<event>
 8    1  0.2530183E-006  0.9118800E+02  0.7816164E-02  0.1184000E+00
        -11   -1    0    0    0    0  0.00000000000E+00  0.00000000000E+00  0.45593999997E+02  0.45594000000E+02  0.51100000000E-03 0.  1.
         11   -1    0    0    0    0 -0.00000000000E+00 -0.00000000000E+00 -0.45593999997E+02  0.45594000000E+02  0.51100000000E-03 0. -1.
         23    2    1    2    0    0 -0.71054273576E-14 -0.35527136788E-14  0.17763568394E-14  0.91188000000E+02  0.91188000000E+02 0.  0.
    9900012    2    3    3    0    0  0.35221018784E+02  0.83904361195E+01  0.66968314486E+01  0.54367256744E+02  0.40000393398E+02 0.  0.
        -12    1    3    3    0    0 -0.35221018784E+02 -0.83904361195E+01 -0.66968314486E+01  0.36820743256E+02  0.00000000000E+00 0.  1.
         11    1    4    4    0    0  0.16088450737E+02  0.38599795100E+01 -0.32145254039E+00  0.16548142522E+02  0.51100000000E-03 0. -1.
        -11    1    4    4    0    0  0.10989836937E+02 -0.12469147966E+02 -0.23225383710E+01  0.16782441766E+02  0.51100000000E-03 0.  1.
        -12    1    4    4    0    0  0.81427311104E+01  0.16999604576E+02  0.93408223599E+01  0.21036672456E+02  0.00000000000E+00 0.  1.
</event>
<event>
 8    1  0.2530183E-006  0.9118800E+02  0.7816164E-02  0.1184000E+00
        -11   -1    0    0    0    0  0.00000000000E+00  0.00000000000E+00  0.45593999997E+02  0.45594000000E+02  0.51100000000E-03 0.  1.
         11   -1    0    0    0    0 -0.00000000000E+00 -0.00000000000E+00 -0.45593999997E+02  0.45594000000E+02  0.51100000000E-03 0. -1.
         23    2    1    2    0    0  0.00000000000E+00  0.00000000000E+00  0.00000000000E+00  0.91188000000E+02  0.91188000000E+02 0.  0.
    9900012    2    3    3    0    0 -0.12430477277E+02 -0.65813681805E+01 -0.34028708898E+02  0.54367024975E+02  0.39999865036E+02 0.  0.
        -12    1    3    3    0    0  0.12430477277E+02  0.65813681805E+01  0.34028708898E+02  0.36820975025E+02  0.00000000000E+00 0.  1.
         11    1    4    4    0    0 -0.11419113550E+02  0.80402453085E+00 -0.10786910229E+02  0.15728955536E+02  0.51100000000E-03 0. -1.
        -11    1    4    4    0    0  0.18229453083E+01 -0.39172983033E+01  0.69131518701E+01  0.81523017997E+01  0.51100000000E-03 0.  1.
        -12    1    4    4    0    0 -0.28343090358E+01 -0.34680944081E+01 -0.30154950540E+02  0.30485767640E+02  0.00000000000E+00 0.  1.
</event>
<event>
 8    1  0.2530183E-006  0.9118800E+02  0.7816164E-02  0.1184000E+00
        -11   -1    0    0    0    0  0.00000000000E+00  0.00000000000E+00  0.45593999997E+02  0.45594000000E+02  0.51100000000E-03 0.  1.
         11   -1    0    0    0    0 -0.00000000000E+00 -0.00000000000E+00 -0.45593999997E+02  0.45594000000E+02  0.51100000000E-03 0. -1.
         23    2    1    2    0    0  0.00000000000E+00  0.35527136788E-14 -0.71054273576E-14  0.91188000000E+02  0.91188000000E+02 0.  0.
    9900012    2    3    3    0    0  0.46690827663E+01  0.90954291089E+01  0.35373049154E+02  0.54367085141E+02  0.40000002197E+02 0.  0.
         12    1    3    3    0    0 -0.46690827663E+01 -0.90954291089E+01 -0.35373049154E+02  0.36820914859E+02  0.00000000000E+00 0. -1.
         11    1    4    4    0    0  0.23988104593E+01 -0.11429253383E+02  0.78370020787E+01  0.14064164617E+02  0.51100000000E-03 0. -1.
        -11    1    4    4    0    0 -0.40085578562E+01  0.98960902996E+00  0.16490521782E+02  0.16999563848E+02  0.51100000000E-03 0.  1.
         12    1    4    4    0    0  0.62788301632E+01  0.19535073462E+02  0.11045525293E+02  0.23303356677E+02  0.00000000000E+00 0. -1.
</event>
<event>
 8    1  0.2530183E-006  0.9118800E+02  0.7816164E-02  0.1184000E+00
        -11   -1    0    0    0    0  0.00000000000E+00  0.00000000000E+00  0.45593999997E+02  0.45594000000E+02  0.51100000000E-03 0.  1.
         11   -1    0    0    0    0 -0.00000000000E+00 -0.00000000000E+00 -0.45593999997E+02  0.45594000000E+02  0.51100000000E-03 0. -1.
         23    2    1    2    0    0  0.00000000000E+00  0.17763568394E-14  0.71054273576E-14  0.91188000000E+02  0.91188000000E+02 0.  0.
    9900012    2    3    3    0    0 -0.11476860535E+02 -0.12673266372E+02 -0.32610566262E+02  0.54367095065E+02  0.40000024821E+02 0.  0.
        -12    1    3    3    0    0  0.11476860535E+02  0.12673266372E+02  0.32610566262E+02  0.36820904935E+02  0.00000000000E+00 0.  1.
         11    1    4    4    0    0 -0.14063811587E+02 -0.14013911795E+02 -0.40699637020E+02  0.45284003511E+02  0.51100000000E-03 0. -1.
        -11    1    4    4    0    0  0.23264139331E+01  0.18793511627E+01  0.42448929437E+01  0.51926177354E+01  0.51100000000E-03 0.  1.
         12    1    4    4    0    0  0.26053711945E+00 -0.53870573916E+00  0.38441778145E+01  0.38904738186E+01  0.00000000000E+00 0. -1.
</event>
<event>
 8    1  0.2530183E-006  0.9118800E+02  0.7816164E-02  0.1184000E+00
        -11   -1    0    0    0    0  0.00000000000E+00  0.00000000000E+00  0.45593999997E+02  0.45594000000E+02  0.51100000000E-03 0. -1.
         11   -1    0    0    0    0 -0.00000000000E+00 -0.00000000000E+00 -0.45593999997E+02  0.45594000000E+02  0.51100000000E-03 0.  1.
         23    2    1    2    0    0  0.00000000000E+00  0.35527136788E-14 -0.35527136788E-14  0.91188000000E+02  0.91188000000E+02 0.  0.
    9900012    2    3    3    0    0 -0.23846708379E+02 -0.20514273439E+02  0.19138400148E+02  0.54367091871E+02  0.40000017538E+02 0.  0.
        -12    1    3    3    0    0  0.23846708379E+02  0.20514273439E+02 -0.19138400148E+02  0.36820908129E+02  0.00000000000E+00 0.  1.
         11    1    4    4    0    0 -0.97450726473E+01 -0.17275132345E+02  0.25609142391E+02  0.32391739884E+02  0.51100000000E-03 0. -1.
        -11    1    4    4    0    0 -0.45429294827E+01 -0.74643371026E+01  0.14557653808E+01  0.88585433211E+01  0.51100000000E-03 0.  1.
        -12    1    4    4    0    0 -0.95587062487E+01  0.42251960088E+01 -0.79265076240E+01  0.13116808666E+02  0.00000000000E+00 0.  1.
</event>
<event>
 8    1  0.2530183E-006  0.9118800E+02  0.7816164E-02  0.1184000E+00
        -11   -1    0    0    0    0  0.00000000000E+00  0.00000000000E+00  0.45593999997E+02  0.45594000000E+02  0.51100000000E-03 0.  1.
         11   -1    0    0    0    0 -0.00000000000E+00 -0.00000000000E+00 -0.45593999997E+02  0.45594000000E+02  0.51100000000E-03 0. -1.
         23    2    1    2    0    0 -0.44408920985E-15  0.00000000000E+00  0.00000000000E+00  0.91188000000E+02  0.91188000000E+02 0.  0.
    9900012    2    3    3    0    0  0.28247552008E+01  0.48835590399E+01 -0.36386161269E+02  0.54367066786E+02  0.39999960352E+02 0.  0.
        -12    1    3    3    0    0 -0.28247552008E+01 -0.48835590399E+01  0.36386161269E+02  0.36820933214E+02  0.00000000000E+00 0.  1.
         11    1    4    4    0    0 -0.41606074672E+01 -0.32436771018E+01 -0.43490805525E+01  0.68371483493E+01  0.51100000000E-03 0. -1.
        -11    1    4    4    0    0 -0.89695937691E+01 -0.72160572283E+01 -0.49037903187E+01  0.12512883523E+02  0.51100000000E-03 0.  1.
         12    1    4    4    0    0  0.15954956437E+02  0.15343293370E+02 -0.27133290398E+02  0.35017034914E+02  0.00000000000E+00 0. -1.
</event>
<event>
 8    1  0.2530183E-006  0.9118800E+02  0.7816164E-02  0.1184000E+00
        -11   -1    0    0    0    0  0.00000000000E+00  0.00000000000E+00  0.45593999997E+02  0.45594000000E+02  0.51100000000E-03 0.  1.
         11   -1    0    0    0    0 -0.00000000000E+00 -0.00000000000E+00 -0.45593999997E+02  0.45594000000E+02  0.51100000000E-03 0. -1.
         23    2    1    2    0    0  0.00000000000E+00 -0.35527136788E-14  0.17763568394E-14  0.91188000000E+02  0.91188000000E+02 0.  0.
    9900012    2    3    3    0    0  0.16187234862E+02  0.31637539782E+02 -0.96343335317E+01  0.54367070102E+02  0.39999967913E+02 0.  0.
        -12    1    3    3    0    0 -0.16187234862E+02 -0.31637539782E+02  0.96343335317E+01  0.36820929898E+02  0.00000000000E+00 0.  1.
         11    1    4    4    0    0  0.58623183933E+00  0.14743173042E+02 -0.11311582583E+01  0.14798119420E+02  0.51100000000E-03 0. -1.
        -11    1    4    4    0    0  0.15017369585E+02  0.19130441744E+02  0.58635674600E+01  0.25017526141E+02  0.51100000000E-03 0.  1.
        -12    1    4    4    0    0  0.58363343717E+00 -0.22360750041E+01 -0.14366742733E+02  0.14551424541E+02  0.00000000000E+00 0.  1.
</event>
<event>
 8    1  0.2530183E-006  0.9118800E+02  0.7816164E-02  0.1184000E+00
        -11   -1    0    0    0    0  0.00000000000E+00  0.00000000000E+00  0.45593999997E+02  0.45594000000E+02  0.51100000000E-03 0. -1.
         11   -1    0    0    0    0 -0.00000000000E+00 -0.00000000000E+00 -0.45593999997E+02  0.45594000000E+02  0.51100000000E-03 0.  1.
         23    2    1    2    0    0 -0.17763568394E-14  0.77715611724E-15 -0.71054273576E-14  0.91188000000E+02  0.91188000000E+02 0.  0.
    9900012    2    3    3    0    0 -0.10940712013E+01 -0.59691210509E+00 -0.36799819357E+02  0.54367082024E+02  0.39999995090E+02 0.  0.
         12    1    3    3    0    0  0.10940712013E+01  0.59691210509E+00  0.36799819357E+02  0.36820917976E+02  0.00000000000E+00 0. -1.
         11    1    4    4    0    0  0.57020531359E-01  0.50016987181E+01  0.33947272146E+01  0.60451976420E+01  0.51100000000E-03 0. -1.
        -11    1    4    4    0    0 -0.99904081628E+01 -0.12122935340E+02 -0.25924451110E+02  0.30312554860E+02  0.51100000000E-03 0.  1.
         12    1    4    4    0    0  0.88393164302E+01  0.65243245166E+01 -0.14270095462E+02  0.18009329522E+02  0.00000000000E+00 0. -1.
</event>
<event>
 8    1  0.2530183E-006  0.9118800E+02  0.7816164E-02  0.1184000E+00
        -11   -1    0    0    0    0  0.00000000000E+00  0.00000000000E+00  0.45593999997E+02  0.45594000000E+02  0.51100000000E-03 0.  1.
         11   -1    0    0    0    0 -0.00000000000E+00 -0.00000000000E+00 -0.45593999997E+02  0.45594000000E+02  0.51100000000E-03 0. -1.
         23    2    1    2    0    0  0.00000000000E+00 -0.35527136788E-14  0.00000000000E+00  0.91188000000E+02  0.91188000000E+02 0.  0.
    9900012    2    3    3    0    0  0.27109792114E+02  0.23411653661E+02 -0.85283624042E+01  0.54367091254E+02  0.40000016131E+02 0.  0.
         12    1    3    3    0    0 -0.27109792114E+02 -0.23411653661E+02  0.85283624042E+01  0.36820908746E+02  0.00000000000E+00 0. -1.
         11    1    4    4    0    0 -0.42212535697E+01 -0.48776765703E+01 -0.35557407739E+01  0.73657316769E+01  0.51100000000E-03 0. -1.
        -11    1    4    4    0    0  0.55746423463E+01  0.14102039697E+01 -0.77730218274E+01  0.96687735063E+01  0.51100000000E-03 0.  1.
        -12    1    4    4    0    0  0.25756403337E+02  0.26879126262E+02  0.28004001971E+01  0.37332586071E+02  0.00000000000E+00 0.  1.
</event>
<event>
 8    1  0.2530183E-006  0.9118800E+02  0.7816164E-02  0.1184000E+00
        -11   -1    0    0    0    0  0.00000000000E+00  0.00000000000E+00  0.45593999997E+02  0.45594000000E+02  0.51100000000E-03 0. -1.
         11   -1    0    0    0    0 -0.00000000000E+00 -0.00000000000E+00 -0.45593999997E+02  0.45594000000E+02  0.51100000000E-03 0.  1.
         23    2    1    2    0    0  0.00000000000E+00 -0.35527136788E-14  0.35527136788E-14  0.91188000000E+02  0.91188000000E+02 0.  0.
    9900012    2    3    3    0    0  0.92244892039E+01  0.30117547334E+02 -0.19068883013E+02  0.54367079888E+02  0.39999990221E+02 0.  0.
         12    1    3    3    0    0 -0.92244892039E+01 -0.30117547334E+02  0.19068883013E+02  0.36820920112E+02  0.00000000000E+00 0. -1.
         11    1    4    4    0    0  0.28356148444E+01 -0.26158346931E+01  0.15594237607E+01  0.41611423207E+01  0.51100000000E-03 0. -1.
        -11    1    4    4    0    0  0.12616040322E+02  0.34837210398E+02 -0.11189540182E+02  0.38704024487E+02  0.51100000000E-03 0.  1.
         12    1    4    4    0    0 -0.62271659627E+01 -0.21038283705E+01 -0.94387665920E+01  0.11501913081E+02  0.00000000000E+00 0. -1.
</event>
<event>
 8    1  0.2530183E-006  0.9118800E+02  0.7816164E-02  0.1184000E+00
        -11   -1    0    0    0    0  0.00000000000E+00  0.00000000000E+00  0.45593999997E+02  0.45594000000E+02  0.51100000000E-03 0. -1.
         11   -1    0    0    0    0 -0.00000000000E+00 -0.00000000000E+00 -0.45593999997E+02  0.45594000000E+02  0.51100000000E-03 0.  1.
         23    2    1    2    0    0  0.00000000000E+00 -0.35527136788E-14  0.35527136788E-14  0.91188000000E+02  0.91188000000E+02 0.  0.
    9900012    2    3    3    0    0  0.24944795065E+02 -0.23169620970E+02 -0.14025190229E+02  0.54367080705E+02  0.39999992083E+02 0.  0.
         12    1    3    3    0    0 -0.24944795065E+02  0.23169620970E+02  0.14025190229E+02  0.36820919295E+02  0.00000000000E+00 0. -1.
         11    1    4    4    0    0 -0.40054869081E+01 -0.72711097343E+01  0.42082661374E+01  0.93071191184E+01  0.51100000000E-03 0. -1.
        -11    1    4    4    0    0  0.36234188305E+01 -0.13344734759E+02 -0.13854298257E+00  0.13828604566E+02  0.51100000000E-03 0.  1.
         12    1    4    4    0    0  0.25326863143E+02 -0.25537764767E+01 -0.18094913384E+02  0.31231357021E+02  0.00000000000E+00 0. -1.
</event>
<event>
 8    1  0.2530183E-006  0.9118800E+02  0.7816164E-02  0.1184000E+00
        -11   -1    0    0    0    0  0.00000000000E+00  0.00000000000E+00  0.45593999997E+02  0.45594000000E+02  0.51100000000E-03 0.  1.
         11   -1    0    0    0    0 -0.00000000000E+00 -0.00000000000E+00 -0.45593999997E+02  0.45594000000E+02  0.51100000000E-03 0. -1.
         23    2    1    2    0    0  0.00000000000E+00  0.00000000000E+00 -0.88817841970E-15  0.91188000000E+02  0.91188000000E+02 0.  0.
    9900012    2    3    3    0    0  0.35883425522E+02 -0.73710810592E+01 -0.37185050239E+01  0.54367077377E+02  0.39999984497E+02 0.  0.
         12    1    3    3    0    0 -0.35883425522E+02  0.73710810592E+01  0.37185050239E+01  0.36820922623E+02  0.00000000000E+00 0. -1.
         11    1    4    4    0    0  0.39047676379E+01 -0.59247796286E+01 -0.24206389187E+01  0.74973139849E+01  0.51100000000E-03 0. -1.
        -11    1    4    4    0    0  0.29661277701E+01  0.10844459406E+02 -0.90371444326E+01  0.14424638418E+02  0.51100000000E-03 0.  1.
        -12    1    4    4    0    0  0.29012530114E+02 -0.12290760836E+02  0.77392783274E+01  0.32445124974E+02  0.00000000000E+00 0.  1.
</event>
<event>
 8    1  0.2530183E-006  0.9118800E+02  0.7816164E-02  0.1184000E+00
        -11   -1    0    0    0    0  0.00000000000E+00  0.00000000000E+00  0.45593999997E+02  0.45594000000E+02  0.51100000000E-03 0.  1.
         11   -1    0    0    0    0 -0.00000000000E+00 -0.00000000000E+00 -0.45593999997E+02  0.45594000000E+02  0.51100000000E-03 0. -1.
         23    2    1    2    0    0  0.00000000000E+00 -0.71054273576E-14  0.44408920985E-15  0.91188000000E+02  0.91188000000E+02 0.  0.
    9900012    2    3    3    0    0 -0.57554232698E+01  0.36321842859E+02 -0.18379779275E+01  0.54367091150E+02  0.40000015895E+02 0.  0.
        -12    1    3    3    0    0  0.57554232698E+01 -0.36321842859E+02  0.18379779275E+01  0.36820908850E+02  0.00000000000E+00 0.  1.
         11    1    4    4    0    0 -0.13892671864E+02  0.27261972606E+02 -0.34246907991E+01  0.30788796489E+02  0.51100000000E-03 0. -1.
        -11    1    4    4    0    0  0.41845351976E+01  0.13229101444E+02  0.71256778889E+01  0.15597908369E+02  0.51100000000E-03 0.  1.
         12    1    4    4    0    0  0.39527133967E+01 -0.41692311913E+01 -0.55389650172E+01  0.79803862929E+01  0.00000000000E+00 0. -1.
</event>
<event>
 8    1  0.2530183E-006  0.9118800E+02  0.7816164E-02  0.1184000E+00
        -11   -1    0    0    0    0  0.00000000000E+00  0.00000000000E+00  0.45593999997E+02  0.45594000000E+02  0.51100000000E-03 0.  1.
         11   -1    0    0    0    0 -0.00000000000E+00 -0.00000000000E+00 -0.45593999997E+02  0.45594000000E+02  0.51100000000E-03 0. -1.
         23    2    1    2    0    0  0.35527136788E-14  0.00000000000E+00  0.00000000000E+00  0.91188000000E+02  0.91188000000E+02 0.  0.
    9900012    2    3    3    0    0  0.21714339785E+02  0.26754574929E+02 -0.12979230354E+02  0.54367078604E+02  0.39999987293E+02 0.  0.
        -12    1    3    3    0    0 -0.21714339785E+02 -0.26754574929E+02  0.12979230354E+02  0.36820921396E+02  0.00000000000E+00 0.  1.
         11    1    4    4    0    0  0.79627505648E+01 -0.13087746936E+01 -0.56393692540E+01  0.98448348691E+01  0.51100000000E-03 0. -1.
        -11    1    4    4    0    0  0.28041310518E+01  0.23516446977E+02 -0.17063790775E+02  0.29190056274E+02  0.51100000000E-03 0.  1.
         12    1    4    4    0    0  0.10947458168E+02  0.45469026450E+01  0.97239296754E+01  0.15332187461E+02  0.00000000000E+00 0. -1.
</event>
<event>
 8    1  0.2530183E-006  0.9118800E+02  0.7816164E-02  0.1184000E+00
        -11   -1    0    0    0    0  0.00000000000E+00  0.00000000000E+00  0.45593999997E+02  0.45594000000E+02  0.51100000000E-03 0. -1.
         11   -1    0    0    0    0 -0.00000000000E+00 -0.00000000000E+00 -0.45593999997E+02  0.45594000000E+02  0.51100000000E-03 0.  1.
         23    2    1    2    0    0  0.00000000000E+00  0.00000000000E+00  0.00000000000E+00  0.91188000000E+02  0.91188000000E+02 0.  0.
    9900012    2    3    3    0    0 -0.30227521177E+02 -0.19897098629E+02 -0.67956675041E+01  0.54367100131E+02  0.40000036368E+02 0.  0.
        -12    1    3    3    0    0  0.30227521177E+02  0.19897098629E+02  0.67956675041E+01  0.36820899869E+02  0.00000000000E+00 0.  1.
         11    1    4    4    0    0 -0.11405326183E+02 -0.14521670664E+01  0.76105313476E+01  0.13788054330E+02  0.51100000000E-03 0. -1.
        -11    1    4    4    0    0  0.52238641049E+01  0.26627724237E+01 -0.31834797107E+01  0.66718555512E+01  0.51100000000E-03 0.  1.
         12    1    4    4    0    0 -0.24046059098E+02 -0.21107703986E+02 -0.11222719141E+02  0.33907190250E+02  0.00000000000E+00 0. -1.
</event>
<event>
 8    1  0.2530183E-006  0.9118800E+02  0.7816164E-02  0.1184000E+00
        -11   -1    0    0    0    0  0.00000000000E+00  0.00000000000E+00  0.45593999997E+02  0.45594000000E+02  0.51100000000E-03 0.  1.
         11   -1    0    0    0    0 -0.00000000000E+00 -0.00000000000E+00 -0.45593999997E+02  0.45594000000E+02  0.51100000000E-03 0. -1.
         23    2    1    2    0    0  0.00000000000E+00  0.00000000000E+00  0.17763568394E-14  0.91188000000E+02  0.91188000000E+02 0.  0.
    9900012    2    3    3    0    0  0.34192622238E+02 -0.29945433615E+01  0.13329630029E+02  0.54367058375E+02  0.39999941178E+02 0.  0.
        -12    1    3    3    0    0 -0.34192622238E+02  0.29945433615E+01 -0.13329630029E+02  0.36820941625E+02  0.00000000000E+00 0.  1.
         11    1    4    4    0    0 -0.13703429162E+01 -0.83454574621E+00 -0.16379866142E+01  0.22928817501E+01  0.51100000000E-03 0. -1.
        -11    1    4    4    0    0  0.14868887321E+02  0.13468007308E+02  0.16673462962E+02  0.26085923377E+02  0.51100000000E-03 0.  1.
        -12    1    4    4    0    0  0.20694077833E+02 -0.15628004923E+02 -0.17058463184E+01  0.25988253248E+02  0.00000000000E+00 0.  1.
</event>
<event>
 8    1  0.2530183E-006  0.9118800E+02  0.7816164E-02  0.1184000E+00
        -11   -1    0    0    0    0  0.00000000000E+00  0.00000000000E+00  0.45593999997E+02  0.45594000000E+02  0.51100000000E-03 0.  1.
         11   -1    0    0    0    0 -0.00000000000E+00 -0.00000000000E+00 -0.45593999997E+02  0.45594000000E+02  0.51100000000E-03 0. -1.
         23    2    1    2    0    0  0.00000000000E+00 -0.27755575616E-15  0.00000000000E+00  0.91188000000E+02  0.91188000000E+02 0.  0.
    9900012    2    3    3    0    0 -0.26197107770E+02  0.79813616432E-01 -0.25874348677E+02  0.54367126230E+02  0.40000095866E+02 0.  0.
        -12    1    3    3    0    0  0.26197107770E+02 -0.79813616432E-01  0.25874348677E+02  0.36820873770E+02  0.00000000000E+00 0.  1.
         11    1    4    4    0    0 -0.17799256643E+02 -0.89014054578E+01 -0.15024670095E+02  0.24935702675E+02  0.51100000000E-03 0. -1.
        -11    1    4    4    0    0  0.18997968529E+01 -0.69230384479E+01  0.74620985533E+00  0.72176532781E+01  0.51100000000E-03 0.  1.
         12    1    4    4    0    0 -0.10297647980E+02  0.15904257522E+02 -0.11595888438E+02  0.22213770277E+02  0.00000000000E+00 0. -1.
</event>
<event>
 8    1  0.2530183E-006  0.9118800E+02  0.7816164E-02  0.1184000E+00
        -11   -1    0    0    0    0  0.00000000000E+00  0.00000000000E+00  0.45593999997E+02  0.45594000000E+02  0.51100000000E-03 0.  1.
         11   -1    0    0    0    0 -0.00000000000E+00 -0.00000000000E+00 -0.45593999997E+02  0.45594000000E+02  0.51100000000E-03 0. -1.
         23    2    1    2    0    0  0.00000000000E+00  0.71054273576E-14  0.00000000000E+00  0.91188000000E+02  0.91188000000E+02 0.  0.
    9900012    2    3    3    0    0  0.11590745347E+02 -0.32787913806E+02 -0.12099067874E+02  0.54367080500E+02  0.39999991615E+02 0.  0.
        -12    1    3    3    0    0 -0.11590745347E+02  0.32787913806E+02  0.12099067874E+02  0.36820919500E+02  0.00000000000E+00 0.  1.
         11    1    4    4    0    0 -0.79866415142E+01 -0.20014491458E+02 -0.16080617831E+02  0.26887777540E+02  0.51100000000E-03 0. -1.
        -11    1    4    4    0    0  0.81283563968E+01 -0.10547520893E+02  0.75176104573E+01  0.15291659228E+02  0.51100000000E-03 0.  1.
         12    1    4    4    0    0  0.11449030464E+02 -0.22259014554E+01 -0.35360605002E+01  0.12187643731E+02  0.00000000000E+00 0. -1.
</event>
<event>
 8    1  0.2530183E-006  0.9118800E+02  0.7816164E-02  0.1184000E+00
        -11   -1    0    0    0    0  0.00000000000E+00  0.00000000000E+00  0.45593999997E+02  0.45594000000E+02  0.51100000000E-03 0.  1.
         11   -1    0    0    0    0 -0.00000000000E+00 -0.00000000000E+00 -0.45593999997E+02  0.45594000000E+02  0.51100000000E-03 0. -1.
         23    2    1    2    0    0  0.00000000000E+00 -0.17763568394E-14 -0.35527136788E-14  0.91188000000E+02  0.91188000000E+02 0.  0.
    9900012    2    3    3    0    0  0.23991208493E+02 -0.12283355376E+02 -0.25086241190E+02  0.54367103741E+02  0.40000044599E+02 0.  0.
        -12    1    3    3    0    0 -0.23991208493E+02  0.12283355376E+02  0.25086241190E+02  0.36820896259E+02  0.00000000000E+00 0.  1.
         11    1    4    4    0    0  0.11705346463E+02 -0.82537592581E+01 -0.18728148037E+02  0.23577175549E+02  0.51100000000E-03 0. -1.
        -11    1    4    4    0    0  0.14135559704E+02  0.74722903350E+01 -0.96609669315E+01  0.18681098825E+02  0.51100000000E-03 0.  1.
        -12    1    4    4    0    0 -0.18496976734E+01 -0.11501886453E+02  0.33028737786E+01  0.12108829367E+02  0.00000000000E+00 0.  1.
</event>
<event>
 8    1  0.2530183E-006  0.9118800E+02  0.7816164E-02  0.1184000E+00
        -11   -1    0    0    0    0  0.00000000000E+00  0.00000000000E+00  0.45593999997E+02  0.45594000000E+02  0.51100000000E-03 0.  1.
         11   -1    0    0    0    0 -0.00000000000E+00 -0.00000000000E+00 -0.45593999997E+02  0.45594000000E+02  0.51100000000E-03 0. -1.
         23    2    1    2    0    0 -0.35527136788E-14 -0.88817841970E-15  0.35527136788E-14  0.91188000000E+02  0.91188000000E+02 0.  0.
    9900012    2    3    3    0    0  0.18576808740E+02  0.41383238132E+01  0.31520726492E+02  0.54367085487E+02  0.40000002985E+02 0.  0.
         12    1    3    3    0    0 -0.18576808740E+02 -0.41383238132E+01 -0.31520726492E+02  0.36820914513E+02  0.00000000000E+00 0. -1.
         11    1    4    4    0    0  0.51673531207E+01 -0.45111663773E+01  0.41929347836E+01  0.80394566183E+01  0.51100000000E-03 0. -1.
        -11    1    4    4    0    0  0.24546510947E+02  0.31559480106E+01  0.15653442573E+02  0.29283467558E+02  0.51100000000E-03 0.  1.
        -12    1    4    4    0    0 -0.11137055328E+02  0.54935421799E+01  0.11674349135E+02  0.17044161311E+02  0.00000000000E+00 0.  1.
</event>
<event>
 8    1  0.2530183E-006  0.9118800E+02  0.7816164E-02  0.1184000E+00
        -11   -1    0    0    0    0  0.00000000000E+00  0.00000000000E+00  0.45593999997E+02  0.45594000000E+02  0.51100000000E-03 0.  1.
         11   -1    0    0    0    0 -0.00000000000E+00 -0.00000000000E+00 -0.45593999997E+02  0.45594000000E+02  0.51100000000E-03 0. -1.
         23    2    1    2    0    0 -0.44408920985E-15 -0.35527136788E-14  0.71054273576E-14  0.91188000000E+02  0.91188000000E+02 0.  0.
    9900012    2    3    3    0    0  0.27639165527E+01 -0.17334818626E+02  0.32367353256E+02  0.54367072142E+02  0.39999972562E+02 0.  0.
         12    1    3    3    0    0 -0.27639165527E+01  0.17334818626E+02 -0.32367353256E+02  0.36820927858E+02  0.00000000000E+00 0. -1.
         11    1    4    4    0    0 -0.15921932237E+01  0.50131665506E+01 -0.34536263887E+01  0.62924123848E+01  0.51100000000E-03 0. -1.
        -11    1    4    4    0    0  0.30511113169E+01 -0.22739400941E+02  0.15454846978E+02  0.27663006539E+02  0.51100000000E-03 0.  1.
         12    1    4    4    0    0  0.13049984595E+01  0.39141576388E+00  0.20366132667E+02  0.20411653218E+02  0.00000000000E+00 0. -1.
</event>
<event>
 8    1  0.2530183E-006  0.9118800E+02  0.7816164E-02  0.1184000E+00
        -11   -1    0    0    0    0  0.00000000000E+00  0.00000000000E+00  0.45593999997E+02  0.45594000000E+02  0.51100000000E-03 0.  1.
         11   -1    0    0    0    0 -0.00000000000E+00 -0.00000000000E+00 -0.45593999997E+02  0.45594000000E+02  0.51100000000E-03 0. -1.
         23    2    1    2    0    0 -0.88817841970E-15  0.00000000000E+00  0.00000000000E+00  0.91188000000E+02  0.91188000000E+02 0.  0.
    9900012    2    3    3    0    0  0.58046443213E+01  0.24294695039E+02  0.27052712622E+02  0.54367145000E+02  0.40000138656E+02 0.  0.
         12    1    3    3    0    0 -0.58046443213E+01 -0.24294695039E+02 -0.27052712622E+02  0.36820855000E+02  0.00000000000E+00 0. -1.
         11    1    4    4    0    0  0.19372857557E+01 -0.34153262850E+01  0.21779270884E+02  0.22130390196E+02  0.51100000000E-03 0. -1.
        -11    1    4    4    0    0 -0.36017049565E+01  0.50859905006E+01  0.56451909750E+01  0.84087906010E+01  0.51100000000E-03 0.  1.
         12    1    4    4    0    0  0.74690635221E+01  0.22624030823E+02 -0.37174923648E+00  0.23827964203E+02  0.00000000000E+00 0. -1.
</event>
<event>
 8    1  0.2530183E-006  0.9118800E+02  0.7816164E-02  0.1184000E+00
        -11   -1    0    0    0    0  0.00000000000E+00  0.00000000000E+00  0.45593999997E+02  0.45594000000E+02  0.51100000000E-03 0. -1.
         11   -1    0    0    0    0 -0.00000000000E+00 -0.00000000000E+00 -0.45593999997E+02  0.45594000000E+02  0.51100000000E-03 0.  1.
         23    2    1    2    0    0  0.35527136788E-14  0.00000000000E+00 -0.17763568394E-14  0.91188000000E+02  0.91188000000E+02 0.  0.
    9900012    2    3    3    0    0  0.26769415513E+02 -0.20968369147E+02  0.14124508635E+02  0.54367138307E+02  0.40000123398E+02 0.  0.
        -12    1    3    3    0    0 -0.26769415513E+02  0.20968369147E+02 -0.14124508635E+02  0.36820861693E+02  0.00000000000E+00 0.  1.
         11    1    4    4    0    0 -0.10755516347E+01  0.10419469324E+01  0.70277566801E+01  0.71855291346E+01  0.51100000000E-03 0. -1.
        -11    1    4    4    0    0  0.44039648041E+01  0.75736846870E+01 -0.74246300737E-01  0.87613422777E+01  0.51100000000E-03 0.  1.
         12    1    4    4    0    0  0.23441002344E+02 -0.29584000767E+02  0.71709982560E+01  0.38420266895E+02  0.00000000000E+00 0. -1.
</event>
<event>
 8    1  0.2530183E-006  0.9118800E+02  0.7816164E-02  0.1184000E+00
        -11   -1    0    0    0    0  0.00000000000E+00  0.00000000000E+00  0.45593999997E+02  0.45594000000E+02  0.51100000000E-03 0.  1.
         11   -1    0    0    0    0 -0.00000000000E+00 -0.00000000000E+00 -0.45593999997E+02  0.45594000000E+02  0.51100000000E-03 0. -1.
         23    2    1    2    0    0  0.35527136788E-14  0.00000000000E+00  0.00000000000E+00  0.91188000000E+02  0.91188000000E+02 0.  0.
    9900012    2    3    3    0    0  0.28522418276E+02  0.19424624709E+02 -0.12842763055E+02  0.54367069101E+02  0.39999965629E+02 0.  0.
        -12    1    3    3    0    0 -0.28522418276E+02 -0.19424624709E+02  0.12842763055E+02  0.36820930899E+02  0.00000000000E+00 0.  1.
         11    1    4    4    0    0  0.73463997819E+01  0.10213188240E+02 -0.98366690450E+01  0.15969936191E+02  0.51100000000E-03 0. -1.
        -11    1    4    4    0    0  0.28065812086E+02  0.11851804557E+02 -0.47019737214E+01  0.30826346466E+02  0.51100000000E-03 0.  1.
        -12    1    4    4    0    0 -0.68897935920E+01 -0.26403680882E+01  0.16958797117E+01  0.75707864439E+01  0.00000000000E+00 0.  1.
</event>
<event>
 8    1  0.2530183E-006  0.9118800E+02  0.7816164E-02  0.1184000E+00
        -11   -1    0    0    0    0  0.00000000000E+00  0.00000000000E+00  0.45593999997E+02  0.45594000000E+02  0.51100000000E-03 0.  1.
         11   -1    0    0    0    0 -0.00000000000E+00 -0.00000000000E+00 -0.45593999997E+02  0.45594000000E+02  0.51100000000E-03 0. -1.
         23    2    1    2    0    0 -0.71054273576E-14  0.71054273576E-14  0.29976021665E-14  0.91188000000E+02  0.91188000000E+02 0.  0.
    9900012    2    3    3    0    0  0.27254588697E+02 -0.24743409247E+02  0.85477637622E+00  0.54367088159E+02  0.40000009075E+02 0.  0.
         12    1    3    3    0    0 -0.27254588697E+02  0.24743409247E+02 -0.85477637622E+00  0.36820911841E+02  0.00000000000E+00 0. -1.
         11    1    4    4    0    0  0.45091497375E+01  0.22129684822E+01  0.14284952056E+02  0.15142308818E+02  0.51100000000E-03 0.  1.
        -11    1    4    4    0    0  0.23880790739E+02 -0.26241806533E+02 -0.13233890683E+02  0.37868990471E+02  0.51100000000E-03 0. -1.
         12    1    4    4    0    0 -0.11353517797E+01 -0.71457119638E+00 -0.19628499586E+00  0.13557888692E+01  0.00000000000E+00 0. -1.
</event>
<event>
 8    1  0.2530183E-006  0.9118800E+02  0.7816164E-02  0.1184000E+00
        -11   -1    0    0    0    0  0.00000000000E+00  0.00000000000E+00  0.45593999997E+02  0.45594000000E+02  0.51100000000E-03 0.  1.
         11   -1    0    0    0    0 -0.00000000000E+00 -0.00000000000E+00 -0.45593999997E+02  0.45594000000E+02  0.51100000000E-03 0. -1.
         23    2    1    2    0    0  0.35527136788E-14  0.35527136788E-14 -0.88817841970E-15  0.91188000000E+02  0.91188000000E+02 0.  0.
    9900012    2    3    3    0    0 -0.21272105499E+02 -0.29758816969E+02 -0.42058690365E+01  0.54367095692E+02  0.40000026249E+02 0.  0.
         12    1    3    3    0    0  0.21272105499E+02  0.29758816969E+02  0.42058690365E+01  0.36820904308E+02  0.00000000000E+00 0. -1.
         11    1    4    4    0    0 -0.65413743749E+01 -0.98613646655E+01 -0.10163483068E+02  0.15599117928E+02  0.51100000000E-03 0. -1.
        -11    1    4    4    0    0 -0.23416550061E+02 -0.16719440173E+02  0.65187637986E+01  0.29502013121E+02  0.51100000000E-03 0.  1.
         12    1    4    4    0    0  0.86858189373E+01 -0.31780121303E+01 -0.56114976672E+00  0.92659646434E+01  0.00000000000E+00 0. -1.
</event>
<event>
 8    1  0.2530183E-006  0.9118800E+02  0.7816164E-02  0.1184000E+00
        -11   -1    0    0    0    0  0.00000000000E+00  0.00000000000E+00  0.45593999997E+02  0.45594000000E+02  0.51100000000E-03 0. -1.
         11   -1    0    0    0    0 -0.00000000000E+00 -0.00000000000E+00 -0.45593999997E+02  0.45594000000E+02  0.51100000000E-03 0.  1.
         23    2    1    2    0    0  0.17763568394E-14 -0.88817841970E-15 -0.71054273576E-14  0.91188000000E+02  0.91188000000E+02 0.  0.
    9900012    2    3    3    0    0  0.83116640353E+01  0.35724414889E+01 -0.35692133267E+02  0.54367157066E+02  0.40000166163E+02 0.  0.
         12    1    3    3    0    0 -0.83116640353E+01 -0.35724414889E+01  0.35692133267E+02  0.36820842934E+02  0.00000000000E+00 0. -1.
         11    1    4    4    0    0  0.22532675658E+01 -0.99969982156E+01 -0.17908670104E+00  0.10249354143E+02  0.51100000000E-03 0. -1.
        -11    1    4    4    0    0  0.11592834522E+02  0.11679163107E+01 -0.22351288736E+02  0.25205910997E+02  0.51100000000E-03 0.  1.
         12    1    4    4    0    0 -0.55344380528E+01  0.12401523394E+02 -0.13161757829E+02  0.18911891925E+02  0.00000000000E+00 0. -1.
</event>
<event>
 8    1  0.2530183E-006  0.9118800E+02  0.7816164E-02  0.1184000E+00
        -11   -1    0    0    0    0  0.00000000000E+00  0.00000000000E+00  0.45593999997E+02  0.45594000000E+02  0.51100000000E-03 0.  1.
         11   -1    0    0    0    0 -0.00000000000E+00 -0.00000000000E+00 -0.45593999997E+02  0.45594000000E+02  0.51100000000E-03 0. -1.
         23    2    1    2    0    0  0.35527136788E-14 -0.35527136788E-14  0.35527136788E-14  0.91188000000E+02  0.91188000000E+02 0.  0.
    9900012    2    3    3    0    0 -0.17657028179E+02  0.26910638283E+02  0.17883704407E+02  0.54367082300E+02  0.39999995720E+02 0.  0.
         12    1    3    3    0    0  0.17657028179E+02 -0.26910638283E+02 -0.17883704407E+02  0.36820917700E+02  0.00000000000E+00 0. -1.
         11    1    4    4    0    0 -0.62590776922E+01  0.48431031362E+01  0.82816909077E+00  0.79572335550E+01  0.51100000000E-03 0. -1.
        -11    1    4    4    0    0 -0.13396360276E+02  0.22297092910E+02  0.26275324624E+02  0.36973172777E+02  0.51100000000E-03 0.  1.
        -12    1    4    4    0    0  0.19984097885E+01 -0.22955776341E+00 -0.92197893073E+01  0.94366759678E+01  0.00000000000E+00 0.  1.
</event>
<event>
 8    1  0.2530183E-006  0.9118800E+02  0.7816164E-02  0.1184000E+00
        -11   -1    0    0    0    0  0.00000000000E+00  0.00000000000E+00  0.45593999997E+02  0.45594000000E+02  0.51100000000E-03 0. -1.
         11   -1    0    0    0    0 -0.00000000000E+00 -0.00000000000E+00 -0.45593999997E+02  0.45594000000E+02  0.51100000000E-03 0.  1.
         23    2    1    2    0    0  0.44408920985E-15 -0.35527136788E-14  0.00000000000E+00  0.91188000000E+02  0.91188000000E+02 0.  0.
    9900012    2    3    3    0    0  0.20715353468E+01 -0.19647838836E+02  0.31071696898E+02  0.54367093198E+02  0.40000020563E+02 0.  0.
        -12    1    3    3    0    0 -0.20715353468E+01  0.19647838836E+02 -0.31071696898E+02  0.36820906802E+02  0.00000000000E+00 0.  1.
         11    1    4    4    0    0  0.63041539135E+00 -0.45968234022E+01  0.10278315344E+02  0.11277055268E+02  0.51100000000E-03 0. -1.
        -11    1    4    4    0    0 -0.95190988101E+01 -0.18341254170E+02  0.15770207766E+01  0.20724426203E+02  0.51100000000E-03 0.  1.
         12    1    4    4    0    0  0.10960218766E+02  0.32902387361E+01  0.19216360778E+02  0.22365611726E+02  0.00000000000E+00 0. -1.
</event>
<event>
 8    1  0.2530183E-006  0.9118800E+02  0.7816164E-02  0.1184000E+00
        -11   -1    0    0    0    0  0.00000000000E+00  0.00000000000E+00  0.45593999997E+02  0.45594000000E+02  0.51100000000E-03 0. -1.
         11   -1    0    0    0    0 -0.00000000000E+00 -0.00000000000E+00 -0.45593999997E+02  0.45594000000E+02  0.51100000000E-03 0.  1.
         23    2    1    2    0    0 -0.35527136788E-14  0.35527136788E-14  0.00000000000E+00  0.91188000000E+02  0.91188000000E+02 0.  0.
    9900012    2    3    3    0    0 -0.26889007671E+02  0.15797446186E+02  0.19575524410E+02  0.54367092957E+02  0.40000020015E+02 0.  0.
        -12    1    3    3    0    0  0.26889007671E+02 -0.15797446186E+02 -0.19575524410E+02  0.36820907043E+02  0.00000000000E+00 0.  1.
         11    1    4    4    0    0 -0.13329357809E+02 -0.24352773291E+01  0.66047641896E+01  0.15073993019E+02  0.51100000000E-03 0. -1.
        -11    1    4    4    0    0 -0.76402345851E+01 -0.35468094465E+01  0.14395205470E+02  0.16678578553E+02  0.51100000000E-03 0.  1.
        -12    1    4    4    0    0 -0.59194152764E+01  0.21779532961E+02 -0.14244452494E+01  0.22614521385E+02  0.00000000000E+00 0.  1.
</event>
<event>
 8    1  0.2530183E-006  0.9118800E+02  0.7816164E-02  0.1184000E+00
        -11   -1    0    0    0    0  0.00000000000E+00  0.00000000000E+00  0.45593999997E+02  0.45594000000E+02  0.51100000000E-03 0.  1.
         11   -1    0    0    0    0 -0.00000000000E+00 -0.00000000000E+00 -0.45593999997E+02  0.45594000000E+02  0.51100000000E-03 0. -1.
         23    2    1    2    0    0  0.00000000000E+00  0.35527136788E-14  0.00000000000E+00  0.91188000000E+02  0.91188000000E+02 0.  0.
    9900012    2    3    3    0    0 -0.86124860711E+01  0.20582009338E+02  0.29291369974E+02  0.54367104035E+02  0.40000045268E+02 0.  0.
         12    1    3    3    0    0  0.86124860711E+01 -0.20582009338E+02 -0.29291369974E+02  0.36820895965E+02  0.00000000000E+00 0. -1.
         11    1    4    4    0    0 -0.10632256108E+02  0.55204565666E+00 -0.83639070155E+00  0.10679380788E+02  0.51100000000E-03 0. -1.
        -11    1    4    4    0    0  0.62589929340E+01 -0.38079316978E+01  0.85117489020E+01  0.11230547894E+02  0.51100000000E-03 0.  1.
         12    1    4    4    0    0 -0.42392228971E+01  0.23837895379E+02  0.21616011774E+02  0.32457175353E+02  0.00000000000E+00 0. -1.
</event>
<event>
 8    1  0.2530183E-006  0.9118800E+02  0.7816164E-02  0.1184000E+00
        -11   -1    0    0    0    0  0.00000000000E+00  0.00000000000E+00  0.45593999997E+02  0.45594000000E+02  0.51100000000E-03 0.  1.
         11   -1    0    0    0    0 -0.00000000000E+00 -0.00000000000E+00 -0.45593999997E+02  0.45594000000E+02  0.51100000000E-03 0. -1.
         23    2    1    2    0    0 -0.88817841970E-15  0.00000000000E+00 -0.35527136788E-14  0.91188000000E+02  0.91188000000E+02 0.  0.
    9900012    2    3    3    0    0 -0.56548797535E+01 -0.29936132103E+02 -0.20679230624E+02  0.54367078644E+02  0.39999987385E+02 0.  0.
        -12    1    3    3    0    0  0.56548797535E+01  0.29936132103E+02  0.20679230624E+02  0.36820921356E+02  0.00000000000E+00 0.  1.
         11    1    4    4    0    0  0.71213935012E+00 -0.13773273090E+02  0.14228340482E+00  0.13792405117E+02  0.51100000000E-03 0. -1.
        -11    1    4    4    0    0 -0.13279538042E+02 -0.12223656587E+01 -0.20068516313E+02  0.24095345104E+02  0.51100000000E-03 0.  1.
         12    1    4    4    0    0  0.69125189388E+01 -0.14940493353E+02 -0.75299771643E+00  0.16479328423E+02  0.00000000000E+00 0. -1.
</event>
<event>
 8    1  0.2530183E-006  0.9118800E+02  0.7816164E-02  0.1184000E+00
        -11   -1    0    0    0    0  0.00000000000E+00  0.00000000000E+00  0.45593999997E+02  0.45594000000E+02  0.51100000000E-03 0. -1.
         11   -1    0    0    0    0 -0.00000000000E+00 -0.00000000000E+00 -0.45593999997E+02  0.45594000000E+02  0.51100000000E-03 0.  1.
         23    2    1    2    0    0  0.00000000000E+00  0.00000000000E+00  0.00000000000E+00  0.91188000000E+02  0.91188000000E+02 0.  0.
    9900012    2    3    3    0    0  0.29710323519E+02  0.11858267986E+02 -0.18233426000E+02  0.54367086555E+02  0.40000005418E+02 0.  0.
         12    1    3    3    0    0 -0.29710323519E+02 -0.11858267986E+02  0.18233426000E+02  0.36820913445E+02  0.00000000000E+00 0. -1.
         11    1    4    4    0    0  0.16284573092E+02  0.13674677985E+02 -0.53518507736E+01  0.21927755146E+02  0.51100000000E-03 0. -1.
        -11    1    4    4    0    0  0.17923760572E+02  0.38124594953E+01 -0.76310264947E+00  0.18340620664E+02  0.51100000000E-03 0.  1.
         12    1    4    4    0    0 -0.44980101444E+01 -0.56288694944E+01 -0.12118472577E+02  0.14098710744E+02  0.00000000000E+00 0. -1.
</event>
<event>
 8    1  0.2530183E-006  0.9118800E+02  0.7816164E-02  0.1184000E+00
        -11   -1    0    0    0    0  0.00000000000E+00  0.00000000000E+00  0.45593999997E+02  0.45594000000E+02  0.51100000000E-03 0.  1.
         11   -1    0    0    0    0 -0.00000000000E+00 -0.00000000000E+00 -0.45593999997E+02  0.45594000000E+02  0.51100000000E-03 0. -1.
         23    2    1    2    0    0 -0.35527136788E-14  0.35527136788E-14  0.00000000000E+00  0.91188000000E+02  0.91188000000E+02 0.  0.
    9900012    2    3    3    0    0  0.26025795341E+02 -0.14211315135E+02 -0.21828337955E+02  0.54367084220E+02  0.40000000096E+02 0.  0.
         12    1    3    3    0    0 -0.26025795341E+02  0.14211315135E+02  0.21828337955E+02  0.36820915780E+02  0.00000000000E+00 0. -1.
         11    1    4    4    0    0 -0.41590430358E+00 -0.16323491020E+01  0.11432575471E+01  0.20358236811E+01  0.51100000000E-03 0. -1.
        -11    1    4    4    0    0  0.12655146997E+02 -0.22388297325E+02 -0.25989003309E+01  0.25848460028E+02  0.51100000000E-03 0.  1.
         12    1    4    4    0    0  0.13786552648E+02  0.98093312921E+01 -0.20372695172E+02  0.26482800510E+02  0.00000000000E+00 0. -1.
</event>
<event>
 8    1  0.2530183E-006  0.9118800E+02  0.7816164E-02  0.1184000E+00
        -11   -1    0    0    0    0  0.00000000000E+00  0.00000000000E+00  0.45593999997E+02  0.45594000000E+02  0.51100000000E-03 0. -1.
         11   -1    0    0    0    0 -0.00000000000E+00 -0.00000000000E+00 -0.45593999997E+02  0.45594000000E+02  0.51100000000E-03 0.  1.
         23    2    1    2    0    0  0.17763568394E-14 -0.35527136788E-14  0.35527136788E-14  0.91188000000E+02  0.91188000000E+02 0.  0.
    9900012    2    3    3    0    0  0.20197589952E+01 -0.31560566787E+02  0.18858185927E+02  0.54367082320E+02  0.39999995765E+02 0.  0.
        -12    1    3    3    0    0 -0.20197589952E+01  0.31560566787E+02 -0.18858185927E+02  0.36820917680E+02  0.00000000000E+00 0.  1.
         11    1    4    4    0    0  0.63459753417E+01 -0.39109525719E+01  0.17256707452E+01  0.76514634443E+01  0.51100000000E-03 0. -1.
        -11    1    4    4    0    0  0.11485206353E+02 -0.12211444636E+02 -0.27516048339E+01  0.16988251072E+02  0.51100000000E-03 0.  1.
        -12    1    4    4    0    0 -0.15811422700E+02 -0.15438169580E+02  0.19884120015E+02  0.29727367804E+02  0.00000000000E+00 0.  1.
</event>
<event>
 8    1  0.2530183E-006  0.9118800E+02  0.7816164E-02  0.1184000E+00
        -11   -1    0    0    0    0  0.00000000000E+00  0.00000000000E+00  0.45593999997E+02  0.45594000000E+02  0.51100000000E-03 0. -1.
         11   -1    0    0    0    0 -0.00000000000E+00 -0.00000000000E+00 -0.45593999997E+02  0.45594000000E+02  0.51100000000E-03 0.  1.
         23    2    1    2    0    0  0.00000000000E+00  0.44408920985E-15  0.71054273576E-14  0.91188000000E+02  0.91188000000E+02 0.  0.
    9900012    2    3    3    0    0 -0.13210438483E+02  0.29311861353E+01  0.34244321860E+02  0.54367066868E+02  0.39999960540E+02 0.  0.
        -12    1    3    3    0    0  0.13210438483E+02 -0.29311861353E+01 -0.34244321860E+02  0.36820933132E+02  0.00000000000E+00 0.  1.
         11    1    4    4    0    0  0.47901748436E+01 -0.40782790773E+01  0.15819315660E+02  0.17024361471E+02  0.51100000000E-03 0. -1.
        -11    1    4    4    0    0 -0.18167310875E+02  0.15142729327E+02  0.16894383045E+02  0.29064989500E+02  0.51100000000E-03 0.  1.
        -12    1    4    4    0    0  0.16669754884E+00 -0.81332641149E+01  0.15306231542E+01  0.82777158972E+01  0.00000000000E+00 0.  1.
</event>
<event>
 8    1  0.2530183E-006  0.9118800E+02  0.7816164E-02  0.1184000E+00
        -11   -1    0    0    0    0  0.00000000000E+00  0.00000000000E+00  0.45593999997E+02  0.45594000000E+02  0.51100000000E-03 0.  1.
         11   -1    0    0    0    0 -0.00000000000E+00 -0.00000000000E+00 -0.45593999997E+02  0.45594000000E+02  0.51100000000E-03 0. -1.
         23    2    1    2    0    0  0.88817841970E-15  0.71054273576E-14  0.00000000000E+00  0.91188000000E+02  0.91188000000E+02 0.  0.
    9900012    2    3    3    0    0  0.79496473094E+01 -0.34702178662E+02 -0.93990435401E+01  0.54367080461E+02  0.39999991527E+02 0.  0.
        -12    1    3    3    0    0 -0.79496473094E+01  0.34702178662E+02  0.93990435401E+01  0.36820919539E+02  0.00000000000E+00 0.  1.
         11    1    4    4    0    0 -0.10216275966E+02 -0.53599184898E+01 -0.11296139215E+02  0.16146324109E+02  0.51100000000E-03 0. -1.
        -11    1    4    4    0    0 -0.30693634899E+01 -0.31111487257E+01 -0.42961214669E+00  0.43914468555E+01  0.51100000000E-03 0.  1.
         12    1    4    4    0    0  0.21235286765E+02 -0.26231111447E+02  0.23267078211E+01  0.33829309496E+02  0.00000000000E+00 0. -1.
</event>
<event>
 8    1  0.2530183E-006  0.9118800E+02  0.7816164E-02  0.1184000E+00
        -11   -1    0    0    0    0  0.00000000000E+00  0.00000000000E+00  0.45593999997E+02  0.45594000000E+02  0.51100000000E-03 0.  1.
         11   -1    0    0    0    0 -0.00000000000E+00 -0.00000000000E+00 -0.45593999997E+02  0.45594000000E+02  0.51100000000E-03 0. -1.
         23    2    1    2    0    0  0.00000000000E+00  0.17763568394E-14  0.13322676296E-14  0.91188000000E+02  0.91188000000E+02 0.  0.
    9900012    2    3    3    0    0 -0.34936394017E+02  0.11254362741E+02 -0.29269799325E+01  0.54367088561E+02  0.40000009993E+02 0.  0.
        -12    1    3    3    0    0  0.34936394017E+02 -0.11254362741E+02  0.29269799325E+01  0.36820911439E+02  0.00000000000E+00 0.  1.
         11    1    4    4    0    0 -0.42256490606E+01 -0.27934250976E+01 -0.65271966101E+01  0.82621806811E+01  0.51100000000E-03 0. -1.
        -11    1    4    4    0    0 -0.30454713357E+02  0.12575814523E+02 -0.84073327576E+01  0.34004763209E+02  0.51100000000E-03 0.  1.
        -12    1    4    4    0    0 -0.25603160010E+00  0.14719733157E+01  0.12007549435E+02  0.12100144671E+02  0.00000000000E+00 0.  1.
</event>
<event>
 8    1  0.2530183E-006  0.9118800E+02  0.7816164E-02  0.1184000E+00
        -11   -1    0    0    0    0  0.00000000000E+00  0.00000000000E+00  0.45593999997E+02  0.45594000000E+02  0.51100000000E-03 0. -1.
         11   -1    0    0    0    0 -0.00000000000E+00 -0.00000000000E+00 -0.45593999997E+02  0.45594000000E+02  0.51100000000E-03 0.  1.
         23    2    1    2    0    0  0.35527136788E-14  0.35527136788E-14  0.00000000000E+00  0.91188000000E+02  0.91188000000E+02 0.  0.
    9900012    2    3    3    0    0  0.17896330498E+02 -0.30447738095E+02  0.10413178596E+02  0.54367113416E+02  0.40000066654E+02 0.  0.
        -12    1    3    3    0    0 -0.17896330498E+02  0.30447738095E+02 -0.10413178596E+02  0.36820886584E+02  0.00000000000E+00 0.  1.
         11    1    4    4    0    0  0.10340536557E+02 -0.11733901321E+02  0.58638661595E+01  0.16703175240E+02  0.51100000000E-03 0. -1.
        -11    1    4    4    0    0  0.15453919195E+02  0.12609686647E+01 -0.80801786919E+00  0.15526318095E+02  0.51100000000E-03 0.  1.
        -12    1    4    4    0    0 -0.78981252544E+01 -0.19974805439E+02  0.53573303057E+01  0.22137620081E+02  0.00000000000E+00 0.  1.
</event>
<event>
 8    1  0.2530183E-006  0.9118800E+02  0.7816164E-02  0.1184000E+00
        -11   -1    0    0    0    0  0.00000000000E+00  0.00000000000E+00  0.45593999997E+02  0.45594000000E+02  0.51100000000E-03 0. -1.
         11   -1    0    0    0    0 -0.00000000000E+00 -0.00000000000E+00 -0.45593999997E+02  0.45594000000E+02  0.51100000000E-03 0.  1.
         23    2    1    2    0    0  0.17763568394E-14  0.00000000000E+00  0.00000000000E+00  0.91188000000E+02  0.91188000000E+02 0.  0.
    9900012    2    3    3    0    0  0.80563130943E+01  0.24259179188E+02  0.26502203516E+02  0.54367099050E+02  0.40000033904E+02 0.  0.
        -12    1    3    3    0    0 -0.80563130943E+01 -0.24259179188E+02 -0.26502203516E+02  0.36820900950E+02  0.00000000000E+00 0.  1.
         11    1    4    4    0    0  0.17113612161E+02  0.16175737259E+02  0.31047602398E+01  0.23752257440E+02  0.51100000000E-03 0. -1.
        -11    1    4    4    0    0 -0.11259836530E+02  0.68104990620E+01  0.88776072577E+01  0.15873837817E+02  0.51100000000E-03 0.  1.
        -12    1    4    4    0    0  0.22025374630E+01  0.12729428663E+01  0.14519836019E+02  0.14741003793E+02  0.00000000000E+00 0.  1.
</event>
<event>
 8    1  0.2530183E-006  0.9118800E+02  0.7816164E-02  0.1184000E+00
        -11   -1    0    0    0    0  0.00000000000E+00  0.00000000000E+00  0.45593999997E+02  0.45594000000E+02  0.51100000000E-03 0.  1.
         11   -1    0    0    0    0 -0.00000000000E+00 -0.00000000000E+00 -0.45593999997E+02  0.45594000000E+02  0.51100000000E-03 0. -1.
         23    2    1    2    0    0  0.00000000000E+00 -0.35527136788E-14  0.00000000000E+00  0.91188000000E+02  0.91188000000E+02 0.  0.
    9900012    2    3    3    0    0  0.20946539053E+02  0.22831427548E+02  0.19893406352E+02  0.54367092916E+02  0.40000019921E+02 0.  0.
         12    1    3    3    0    0 -0.20946539053E+02 -0.22831427548E+02 -0.19893406352E+02  0.36820907084E+02  0.00000000000E+00 0. -1.
         11    1    4    4    0    0 -0.13386047390E+01  0.23204538178E+02  0.58049543429E+01  0.23957043847E+02  0.51100000000E-03 0.  1.
        -11    1    4    4    0    0  0.13575406447E+02 -0.59420133828E+01  0.13514958073E+02  0.20056252771E+02  0.51100000000E-03 0. -1.
         12    1    4    4    0    0  0.87097373447E+01  0.55689027529E+01  0.57349393569E+00  0.10353796298E+02  0.00000000000E+00 0. -1.
</event>
<event>
 8    1  0.2530183E-006  0.9118800E+02  0.7816164E-02  0.1184000E+00
        -11   -1    0    0    0    0  0.00000000000E+00  0.00000000000E+00  0.45593999997E+02  0.45594000000E+02  0.51100000000E-03 0. -1.
         11   -1    0    0    0    0 -0.00000000000E+00 -0.00000000000E+00 -0.45593999997E+02  0.45594000000E+02  0.51100000000E-03 0.  1.
         23    2    1    2    0    0  0.00000000000E+00  0.88817841970E-15 -0.17763568394E-14  0.91188000000E+02  0.91188000000E+02 0.  0.
    9900012    2    3    3    0    0 -0.33572003276E+02  0.58576476760E+01  0.13942550349E+02  0.54366998513E+02  0.39999804710E+02 0.  0.
        -12    1    3    3    0    0  0.33572003276E+02 -0.58576476760E+01 -0.13942550349E+02  0.36821001487E+02  0.00000000000E+00 0.  1.
         11    1    4    4    0    0 -0.11219767503E+02  0.10510337528E+02  0.11860414819E+02  0.19416998164E+02  0.51100000000E-03 0. -1.
        -11    1    4    4    0    0 -0.19976829136E+02  0.41482893873E+01  0.10139533266E+02  0.22783593709E+02  0.51100000000E-03 0.  1.
        -12    1    4    4    0    0 -0.23754066374E+01 -0.88009792389E+01 -0.80573977364E+01  0.12166406640E+02  0.00000000000E+00 0.  1.
</event>
<event>
 8    1  0.2530183E-006  0.9118800E+02  0.7816164E-02  0.1184000E+00
        -11   -1    0    0    0    0  0.00000000000E+00  0.00000000000E+00  0.45593999997E+02  0.45594000000E+02  0.51100000000E-03 0. -1.
         11   -1    0    0    0    0 -0.00000000000E+00 -0.00000000000E+00 -0.45593999997E+02  0.45594000000E+02  0.51100000000E-03 0.  1.
         23    2    1    2    0    0  0.00000000000E+00  0.00000000000E+00  0.00000000000E+00  0.91188000000E+02  0.91188000000E+02 0.  0.
    9900012    2    3    3    0    0 -0.15223348026E+02  0.12273423016E+02 -0.31199238790E+02  0.54367085580E+02  0.40000003197E+02 0.  0.
         12    1    3    3    0    0  0.15223348026E+02 -0.12273423016E+02  0.31199238790E+02  0.36820914420E+02  0.00000000000E+00 0. -1.
         11    1    4    4    0    0 -0.15098798726E+02  0.14226516358E+02 -0.25543861921E+02  0.32906783081E+02  0.51100000000E-03 0. -1.
        -11    1    4    4    0    0 -0.78324973736E+01 -0.26915970776E+01 -0.96751537949E+01  0.12735827855E+02  0.51100000000E-03 0.  1.
         12    1    4    4    0    0  0.77079480735E+01  0.73850373533E+00  0.40197769263E+01  0.87244746436E+01  0.00000000000E+00 0. -1.
</event>
<event>
 8    1  0.2530183E-006  0.9118800E+02  0.7816164E-02  0.1184000E+00
        -11   -1    0    0    0    0  0.00000000000E+00  0.00000000000E+00  0.45593999997E+02  0.45594000000E+02  0.51100000000E-03 0. -1.
         11   -1    0    0    0    0 -0.00000000000E+00 -0.00000000000E+00 -0.45593999997E+02  0.45594000000E+02  0.51100000000E-03 0.  1.
         23    2    1    2    0    0  0.35527136788E-14  0.17763568394E-14  0.35527136788E-14  0.91188000000E+02  0.91188000000E+02 0.  0.
    9900012    2    3    3    0    0 -0.21251273236E+02 -0.32219715670E+01 -0.29896180417E+02  0.54367091287E+02  0.40000016206E+02 0.  0.
         12    1    3    3    0    0  0.21251273236E+02  0.32219715670E+01  0.29896180417E+02  0.36820908713E+02  0.00000000000E+00 0. -1.
         11    1    4    4    0    0 -0.13410551180E+02  0.96673773376E+01 -0.34857450783E+01  0.16895309602E+02  0.51100000000E-03 0. -1.
        -11    1    4    4    0    0 -0.94802320812E+00  0.44253634207E+01 -0.14889100313E+02  0.15561744690E+02  0.51100000000E-03 0.  1.
         12    1    4    4    0    0 -0.68926988472E+01 -0.17314712325E+02 -0.11521335026E+02  0.21910036994E+02  0.00000000000E+00 0. -1.
</event>
<event>
 8    1  0.2530183E-006  0.9118800E+02  0.7816164E-02  0.1184000E+00
        -11   -1    0    0    0    0  0.00000000000E+00  0.00000000000E+00  0.45593999997E+02  0.45594000000E+02  0.51100000000E-03 0. -1.
         11   -1    0    0    0    0 -0.00000000000E+00 -0.00000000000E+00 -0.45593999997E+02  0.45594000000E+02  0.51100000000E-03 0.  1.
         23    2    1    2    0    0  0.00000000000E+00 -0.17763568394E-14 -0.17763568394E-14  0.91188000000E+02  0.91188000000E+02 0.  0.
    9900012    2    3    3    0    0 -0.33412977520E+02 -0.52079339874E+01 -0.14568088353E+02  0.54367097765E+02  0.40000030974E+02 0.  0.
        -12    1    3    3    0    0  0.33412977520E+02  0.52079339874E+01  0.14568088353E+02  0.36820902235E+02  0.00000000000E+00 0.  1.
         11    1    4    4    0    0  0.45521626152E+01  0.49030653903E+00  0.23397436637E+01  0.51416909330E+01  0.51100000000E-03 0. -1.
        -11    1    4    4    0    0 -0.73948207894E+01  0.24531898793E+01  0.62739126446E+01  0.10003174257E+02  0.51100000000E-03 0.  1.
        -12    1    4    4    0    0 -0.30570319345E+02 -0.81514304057E+01 -0.23181744662E+02  0.39222232574E+02  0.00000000000E+00 0.  1.
</event>
<event>
 8    1  0.2530183E-006  0.9118800E+02  0.7816164E-02  0.1184000E+00
        -11   -1    0    0    0    0  0.00000000000E+00  0.00000000000E+00  0.45593999997E+02  0.45594000000E+02  0.51100000000E-03 0.  1.
         11   -1    0    0    0    0 -0.00000000000E+00 -0.00000000000E+00 -0.45593999997E+02  0.45594000000E+02  0.51100000000E-03 0. -1.
         23    2    1    2    0    0  0.11102230246E-14  0.00000000000E+00  0.17763568394E-14  0.91188000000E+02  0.91188000000E+02 0.  0.
    9900012    2    3    3    0    0  0.13275177806E+01  0.35104767869E+02  0.11030535134E+02  0.54367085618E+02  0.40000003284E+02 0.  0.
         12    1    3    3    0    0 -0.13275177806E+01 -0.35104767869E+02 -0.11030535134E+02  0.36820914382E+02  0.00000000000E+00 0. -1.
         11    1    4    4    0    0  0.11663858602E+02  0.16158783116E+02 -0.54109662120E+01  0.20650191885E+02  0.51100000000E-03 0. -1.
        -11    1    4    4    0    0 -0.10057108054E+02  0.16942567436E+02  0.27698752450E+01  0.19896437441E+02  0.51100000000E-03 0.  1.
        -12    1    4    4    0    0 -0.27923276741E+00  0.20034173170E+01  0.13671626101E+02  0.13820456292E+02  0.00000000000E+00 0.  1.
</event>
<event>
 8    1  0.2530183E-006  0.9118800E+02  0.7816164E-02  0.1184000E+00
        -11   -1    0    0    0    0  0.00000000000E+00  0.00000000000E+00  0.45593999997E+02  0.45594000000E+02  0.51100000000E-03 0.  1.
         11   -1    0    0    0    0 -0.00000000000E+00 -0.00000000000E+00 -0.45593999997E+02  0.45594000000E+02  0.51100000000E-03 0. -1.
         23    2    1    2    0    0  0.44408920985E-15  0.00000000000E+00 -0.35527136788E-14  0.91188000000E+02  0.91188000000E+02 0.  0.
    9900012    2    3    3    0    0  0.24329190808E+01 -0.25957858368E+02 -0.26000974267E+02  0.54367079736E+02  0.39999989874E+02 0.  0.
        -12    1    3    3    0    0 -0.24329190808E+01  0.25957858368E+02  0.26000974267E+02  0.36820920264E+02  0.00000000000E+00 0.  1.
         11    1    4    4    0    0  0.15345619345E+02 -0.12396438090E+02 -0.89942529650E+01  0.21680781745E+02  0.51100000000E-03 0. -1.
        -11    1    4    4    0    0  0.37825383918E+01 -0.68009392265E+01  0.18841359909E+00  0.77843349743E+01  0.51100000000E-03 0.  1.
         12    1    4    4    0    0 -0.16695238656E+02 -0.67604810516E+01 -0.17195134901E+02  0.24901963017E+02  0.00000000000E+00 0. -1.
</event>
<event>
 8    1  0.2530183E-006  0.9118800E+02  0.7816164E-02  0.1184000E+00
        -11   -1    0    0    0    0  0.00000000000E+00  0.00000000000E+00  0.45593999997E+02  0.45594000000E+02  0.51100000000E-03 0. -1.
         11   -1    0    0    0    0 -0.00000000000E+00 -0.00000000000E+00 -0.45593999997E+02  0.45594000000E+02  0.51100000000E-03 0.  1.
         23    2    1    2    0    0  0.00000000000E+00  0.35527136788E-14  0.17763568394E-14  0.91188000000E+02  0.91188000000E+02 0.  0.
    9900012    2    3    3    0    0 -0.21610199799E+02  0.26073681866E+02  0.14454879233E+02  0.54367066347E+02  0.39999959352E+02 0.  0.
        -12    1    3    3    0    0  0.21610199799E+02 -0.26073681866E+02 -0.14454879233E+02  0.36820933653E+02  0.00000000000E+00 0.  1.
         11    1    4    4    0    0 -0.16312957437E+01  0.13140535590E+02  0.10150993732E+02  0.16684647895E+02  0.51100000000E-03 0. -1.
        -11    1    4    4    0    0 -0.40675241748E+01 -0.61644527479E+01  0.97539373218E+01  0.12234562687E+02  0.51100000000E-03 0.  1.
         12    1    4    4    0    0 -0.15911379881E+02  0.19097599024E+02 -0.54500518211E+01  0.25447855765E+02  0.00000000000E+00 0. -1.
</event>
<event>
 8    1  0.2530183E-006  0.9118800E+02  0.7816164E-02  0.1184000E+00
        -11   -1    0    0    0    0  0.00000000000E+00  0.00000000000E+00  0.45593999997E+02  0.45594000000E+02  0.51100000000E-03 0.  1.
         11   -1    0    0    0    0 -0.00000000000E+00 -0.00000000000E+00 -0.45593999997E+02  0.45594000000E+02  0.51100000000E-03 0. -1.
         23    2    1    2    0    0  0.00000000000E+00  0.00000000000E+00  0.00000000000E+00  0.91188000000E+02  0.91188000000E+02 0.  0.
    9900012    2    3    3    0    0  0.63333351012E+01 -0.23712797414E+02  0.27447593692E+02  0.54367105196E+02  0.40000047915E+02 0.  0.
         12    1    3    3    0    0 -0.63333351012E+01  0.23712797414E+02 -0.27447593692E+02  0.36820894804E+02  0.00000000000E+00 0. -1.
         11    1    4    4    0    0  0.97085391185E+01 -0.15941108516E+01  0.98328610133E+01  0.13909783506E+02  0.51100000000E-03 0. -1.
        -11    1    4    4    0    0  0.10621941768E+02 -0.14818344993E+02  0.21504454152E+01  0.18358469735E+02  0.51100000000E-03 0.  1.
        -12    1    4    4    0    0 -0.13997145785E+02 -0.73003415693E+01  0.15464287263E+02  0.22098851955E+02  0.00000000000E+00 0.  1.
</event>
<event>
 8    1  0.2530183E-006  0.9118800E+02  0.7816164E-02  0.1184000E+00
        -11   -1    0    0    0    0  0.00000000000E+00  0.00000000000E+00  0.45593999997E+02  0.45594000000E+02  0.51100000000E-03 0. -1.
         11   -1    0    0    0    0 -0.00000000000E+00 -0.00000000000E+00 -0.45593999997E+02  0.45594000000E+02  0.51100000000E-03 0.  1.
         23    2    1    2    0    0 -0.35527136788E-14  0.00000000000E+00  0.00000000000E+00  0.91188000000E+02  0.91188000000E+02 0.  0.
    9900012    2    3    3    0    0 -0.22478966871E+02 -0.26872576340E+02  0.11328685887E+02  0.54367103288E+02  0.40000043566E+02 0.  0.
        -12    1    3    3    0    0  0.22478966871E+02  0.26872576340E+02 -0.11328685887E+02  0.36820896712E+02  0.00000000000E+00 0.  1.
         11    1    4    4    0    0 -0.12191174622E+02 -0.13703782861E+02  0.81841863452E+01  0.20084802956E+02  0.51100000000E-03 0. -1.
        -11    1    4    4    0    0 -0.50922895690E+00 -0.27984434389E+01  0.15292200132E+02  0.15554484400E+02  0.51100000000E-03 0.  1.
        -12    1    4    4    0    0 -0.97785632918E+01 -0.10370350040E+02 -0.12147700589E+02  0.18727815933E+02  0.00000000000E+00 0.  1.
</event>
<event>
 8    1  0.2530183E-006  0.9118800E+02  0.7816164E-02  0.1184000E+00
        -11   -1    0    0    0    0  0.00000000000E+00  0.00000000000E+00  0.45593999997E+02  0.45594000000E+02  0.51100000000E-03 0. -1.
         11   -1    0    0    0    0 -0.00000000000E+00 -0.00000000000E+00 -0.45593999997E+02  0.45594000000E+02  0.51100000000E-03 0.  1.
         23    2    1    2    0    0  0.77715611724E-15 -0.71054273576E-14  0.17763568394E-14  0.91188000000E+02  0.91188000000E+02 0.  0.
    9900012    2    3    3    0    0  0.67465739352E+00  0.35982914337E+02  0.77816640708E+01  0.54367087702E+02  0.40000008034E+02 0.  0.
        -12    1    3    3    0    0 -0.67465739352E+00 -0.35982914337E+02 -0.77816640708E+01  0.36820912298E+02  0.00000000000E+00 0.  1.
         11    1    4    4    0    0 -0.22364382667E+01  0.16239064211E+02  0.15046339860E+02  0.22250869781E+02  0.51100000000E-03 0. -1.
        -11    1    4    4    0    0 -0.68323232996E+01  0.19129017846E+02 -0.64880557865E+00  0.20322915991E+02  0.51100000000E-03 0.  1.
        -12    1    4    4    0    0  0.97434189598E+01  0.61483227946E+00 -0.66158702109E+01  0.11793301930E+02  0.00000000000E+00 0.  1.
</event>
<event>
 8    1  0.2530183E-006  0.9118800E+02  0.7816164E-02  0.1184000E+00
        -11   -1    0    0    0    0  0.00000000000E+00  0.00000000000E+00  0.45593999997E+02  0.45594000000E+02  0.51100000000E-03 0. -1.
         11   -1    0    0    0    0 -0.00000000000E+00 -0.00000000000E+00 -0.45593999997E+02  0.45594000000E+02  0.51100000000E-03 0.  1.
         23    2    1    2    0    0  0.00000000000E+00  0.00000000000E+00  0.00000000000E+00  0.91188000000E+02  0.91188000000E+02 0.  0.
    9900012    2    3    3    0    0 -0.20611131316E+02 -0.21439576719E+02  0.21709595139E+02  0.54367072457E+02  0.39999973280E+02 0.  0.
        -12    1    3    3    0    0  0.20611131316E+02  0.21439576719E+02 -0.21709595139E+02  0.36820927543E+02  0.00000000000E+00 0.  1.
         11    1    4    4    0    0 -0.11369997552E+02 -0.14423766849E+02  0.30851694253E+02  0.35904720205E+02  0.51100000000E-03 0. -1.
        -11    1    4    4    0    0 -0.82518541035E+01 -0.24696383005E+01 -0.47638397844E+00  0.86266535480E+01  0.51100000000E-03 0.  1.
         12    1    4    4    0    0 -0.98927966053E+00 -0.45461715696E+01 -0.86657151357E+01  0.98356987042E+01  0.00000000000E+00 0. -1.
</event>
<event>
 8    1  0.2530183E-006  0.9118800E+02  0.7816164E-02  0.1184000E+00
        -11   -1    0    0    0    0  0.00000000000E+00  0.00000000000E+00  0.45593999997E+02  0.45594000000E+02  0.51100000000E-03 0. -1.
         11   -1    0    0    0    0 -0.00000000000E+00 -0.00000000000E+00 -0.45593999997E+02  0.45594000000E+02  0.51100000000E-03 0.  1.
         23    2    1    2    0    0  0.00000000000E+00 -0.88817841970E-15  0.13322676296E-14  0.91188000000E+02  0.91188000000E+02 0.  0.
    9900012    2    3    3    0    0  0.36634603844E+02  0.59958358846E+00  0.36505023387E+01  0.54367083843E+02  0.39999999237E+02 0.  0.
         12    1    3    3    0    0 -0.36634603844E+02 -0.59958358846E+00 -0.36505023387E+01  0.36820916157E+02  0.00000000000E+00 0. -1.
         11    1    4    4    0    0 -0.61361765453E+01 -0.15171720428E+01 -0.22585052944E+01  0.67123259776E+01  0.51100000000E-03 0. -1.
        -11    1    4    4    0    0  0.26070616660E+01  0.46142410416E+01 -0.34702595140E+01  0.63348790261E+01  0.51100000000E-03 0.  1.
        -12    1    4    4    0    0  0.40163718724E+02 -0.24974854103E+01  0.93792671471E+01  0.41319878839E+02  0.00000000000E+00 0.  1.
</event>
<event>
 8    1  0.2530183E-006  0.9118800E+02  0.7816164E-02  0.1184000E+00
        -11   -1    0    0    0    0  0.00000000000E+00  0.00000000000E+00  0.45593999997E+02  0.45594000000E+02  0.51100000000E-03 0.  1.
         11   -1    0    0    0    0 -0.00000000000E+00 -0.00000000000E+00 -0.45593999997E+02  0.45594000000E+02  0.51100000000E-03 0. -1.
         23    2    1    2    0    0  0.00000000000E+00  0.17763568394E-14  0.00000000000E+00  0.91188000000E+02  0.91188000000E+02 0.  0.
    9900012    2    3    3    0    0 -0.26373261811E+02 -0.15082715132E+02  0.20802456722E+02  0.54367089637E+02  0.40000012445E+02 0.  0.
         12    1    3    3    0    0  0.26373261811E+02  0.15082715132E+02 -0.20802456722E+02  0.36820910363E+02  0.00000000000E+00 0. -1.
         11    1    4    4    0    0 -0.87465604725E+01 -0.12457978368E+02 -0.76562081875E+01  0.17038810674E+02  0.51100000000E-03 0. -1.
        -11    1    4    4    0    0 -0.89669342132E+01 -0.93618959800E+01  0.17899732402E+02  0.22100937217E+02  0.51100000000E-03 0.  1.
         12    1    4    4    0    0 -0.86597671253E+01  0.67371592159E+01  0.10558932507E+02  0.15227341746E+02  0.00000000000E+00 0. -1.
</event>
<event>
 8    1  0.2530183E-006  0.9118800E+02  0.7816164E-02  0.1184000E+00
        -11   -1    0    0    0    0  0.00000000000E+00  0.00000000000E+00  0.45593999997E+02  0.45594000000E+02  0.51100000000E-03 0. -1.
         11   -1    0    0    0    0 -0.00000000000E+00 -0.00000000000E+00 -0.45593999997E+02  0.45594000000E+02  0.51100000000E-03 0.  1.
         23    2    1    2    0    0  0.00000000000E+00 -0.35527136788E-14  0.17763568394E-14  0.91188000000E+02  0.91188000000E+02 0.  0.
    9900012    2    3    3    0    0 -0.19693518677E+02  0.30691070285E+02 -0.50994125618E+01  0.54367075492E+02  0.39999980199E+02 0.  0.
         12    1    3    3    0    0  0.19693518677E+02 -0.30691070285E+02  0.50994125618E+01  0.36820924508E+02  0.00000000000E+00 0. -1.
         11    1    4    4    0    0 -0.11775160815E+02  0.42884929116E+01  0.10864846784E+02  0.16585851790E+02  0.51100000000E-03 0. -1.
        -11    1    4    4    0    0 -0.85950809961E+01  0.20311537870E+02 -0.15399157367E+01  0.22108942280E+02  0.51100000000E-03 0.  1.
         12    1    4    4    0    0  0.67672313453E+00  0.60910395034E+01 -0.14424343609E+02  0.15672281423E+02  0.00000000000E+00 0. -1.
</event>
<event>
 8    1  0.2530183E-006  0.9118800E+02  0.7816164E-02  0.1184000E+00
        -11   -1    0    0    0    0  0.00000000000E+00  0.00000000000E+00  0.45593999997E+02  0.45594000000E+02  0.51100000000E-03 0.  1.
         11   -1    0    0    0    0 -0.00000000000E+00 -0.00000000000E+00 -0.45593999997E+02  0.45594000000E+02  0.51100000000E-03 0. -1.
         23    2    1    2    0    0  0.17763568394E-14  0.17763568394E-14  0.00000000000E+00  0.91188000000E+02  0.91188000000E+02 0.  0.
    9900012    2    3    3    0    0  0.14743445201E+01  0.15688624279E+02 -0.33278737321E+02  0.54367068708E+02  0.39999964734E+02 0.  0.
        -12    1    3    3    0    0 -0.14743445201E+01 -0.15688624279E+02  0.33278737321E+02  0.36820931292E+02  0.00000000000E+00 0.  1.
         11    1    4    4    0    0  0.53573978583E+01  0.79495329650E+01 -0.21931912091E+01  0.98339653301E+01  0.51100000000E-03 0. -1.
        -11    1    4    4    0    0  0.12222271053E+02 -0.43079151757E+00 -0.59974220809E+01  0.13621254087E+02  0.51100000000E-03 0.  1.
        -12    1    4    4    0    0 -0.16105324391E+02  0.81698828319E+01 -0.25088124031E+02  0.30911849291E+02  0.00000000000E+00 0.  1.
</event>
<event>
 8    1  0.2530183E-006  0.9118800E+02  0.7816164E-02  0.1184000E+00
        -11   -1    0    0    0    0  0.00000000000E+00  0.00000000000E+00  0.45593999997E+02  0.45594000000E+02  0.51100000000E-03 0.  1.
         11   -1    0    0    0    0 -0.00000000000E+00 -0.00000000000E+00 -0.45593999997E+02  0.45594000000E+02  0.51100000000E-03 0. -1.
         23    2    1    2    0    0  0.00000000000E+00 -0.35527136788E-14 -0.71054273576E-14  0.91188000000E+02  0.91188000000E+02 0.  0.
    9900012    2    3    3    0    0  0.17943144148E+02  0.18705480728E+02  0.26152009088E+02  0.54367095468E+02  0.40000025739E+02 0.  0.
         12    1    3    3    0    0 -0.17943144148E+02 -0.18705480728E+02 -0.26152009088E+02  0.36820904532E+02  0.00000000000E+00 0. -1.
         11    1    4    4    0    0  0.67363154998E+01 -0.34553018334E+01  0.12921732612E+01  0.76802844525E+01  0.51100000000E-03 0. -1.
        -11    1    4    4    0    0  0.16499475906E+02  0.17487186861E+02  0.36315465331E+01  0.24315068167E+02  0.51100000000E-03 0.  1.
        -12    1    4    4    0    0 -0.52926472576E+01  0.46735957006E+01  0.21228289294E+02  0.22371742849E+02  0.00000000000E+00 0.  1.
</event>
<event>
 8    1  0.2530183E-006  0.9118800E+02  0.7816164E-02  0.1184000E+00
        -11   -1    0    0    0    0  0.00000000000E+00  0.00000000000E+00  0.45593999997E+02  0.45594000000E+02  0.51100000000E-03 0.  1.
         11   -1    0    0    0    0 -0.00000000000E+00 -0.00000000000E+00 -0.45593999997E+02  0.45594000000E+02  0.51100000000E-03 0. -1.
         23    2    1    2    0    0  0.35527136788E-14  0.35527136788E-14  0.35527136788E-14  0.91188000000E+02  0.91188000000E+02 0.  0.
    9900012    2    3    3    0    0 -0.23375589891E+02 -0.19032926122E+02 -0.21144947058E+02  0.54367092005E+02  0.40000017843E+02 0.  0.
        -12    1    3    3    0    0  0.23375589891E+02  0.19032926122E+02  0.21144947058E+02  0.36820907995E+02  0.00000000000E+00 0.  1.
         11    1    4    4    0    0 -0.19819489160E+01  0.67692271762E+01 -0.22993316461E+01  0.74187252509E+01  0.51100000000E-03 0. -1.
        -11    1    4    4    0    0  0.46187325023E+01 -0.21256231960E+01  0.26423362934E+01  0.57300004579E+01  0.51100000000E-03 0.  1.
        -12    1    4    4    0    0 -0.26012373477E+02 -0.23676530102E+02 -0.21487951706E+02  0.41218366296E+02  0.00000000000E+00 0.  1.
</event>
<event>
 8    1  0.2530183E-006  0.9118800E+02  0.7816164E-02  0.1184000E+00
        -11   -1    0    0    0    0  0.00000000000E+00  0.00000000000E+00  0.45593999997E+02  0.45594000000E+02  0.51100000000E-03 0.  1.
         11   -1    0    0    0    0 -0.00000000000E+00 -0.00000000000E+00 -0.45593999997E+02  0.45594000000E+02  0.51100000000E-03 0. -1.
         23    2    1    2    0    0  0.17763568394E-14  0.00000000000E+00  0.35527136788E-14  0.91188000000E+02  0.91188000000E+02 0.  0.
    9900012    2    3    3    0    0  0.15629061520E+02  0.21607847635E+02  0.25389215456E+02  0.54367096903E+02  0.40000029009E+02 0.  0.
         12    1    3    3    0    0 -0.15629061520E+02 -0.21607847635E+02 -0.25389215456E+02  0.36820903097E+02  0.00000000000E+00 0. -1.
         11    1    4    4    0    0 -0.11677485943E+02  0.23849323857E+01  0.63834184302E+01  0.13520340660E+02  0.51100000000E-03 0. -1.
        -11    1    4    4    0    0  0.15776706175E+02  0.18573121697E+02  0.10661914051E+02  0.26599656366E+02  0.51100000000E-03 0.  1.
         12    1    4    4    0    0  0.11529841289E+02  0.64979355241E+00  0.83438829743E+01  0.14247099876E+02  0.00000000000E+00 0. -1.
</event>
<event>
 8    1  0.2530183E-006  0.9118800E+02  0.7816164E-02  0.1184000E+00
        -11   -1    0    0    0    0  0.00000000000E+00  0.00000000000E+00  0.45593999997E+02  0.45594000000E+02  0.51100000000E-03 0.  1.
         11   -1    0    0    0    0 -0.00000000000E+00 -0.00000000000E+00 -0.45593999997E+02  0.45594000000E+02  0.51100000000E-03 0. -1.
         23    2    1    2    0    0  0.44408920985E-15  0.00000000000E+00  0.00000000000E+00  0.91188000000E+02  0.91188000000E+02 0.  0.
    9900012    2    3    3    0    0  0.17422461814E+01 -0.24900006077E+02  0.27069068591E+02  0.54367079333E+02  0.39999988956E+02 0.  0.
         12    1    3    3    0    0 -0.17422461814E+01  0.24900006077E+02 -0.27069068591E+02  0.36820920667E+02  0.00000000000E+00 0. -1.
         11    1    4    4    0    0 -0.41711240909E+01  0.16494071510E+01 -0.64362571951E+01  0.78450128792E+01  0.51100000000E-03 0. -1.
        -11    1    4    4    0    0  0.75261158381E+01 -0.23732220216E+02  0.34997153324E+02  0.42949521965E+02  0.51100000000E-03 0.  1.
        -12    1    4    4    0    0 -0.16127455659E+01 -0.28171930117E+01 -0.14918275377E+01  0.35725444893E+01  0.00000000000E+00 0.  1.
</event>
<event>
 8    1  0.2530183E-006  0.9118800E+02  0.7816164E-02  0.1184000E+00
        -11   -1    0    0    0    0  0.00000000000E+00  0.00000000000E+00  0.45593999997E+02  0.45594000000E+02  0.51100000000E-03 0.  1.
         11   -1    0    0    0    0 -0.00000000000E+00 -0.00000000000E+00 -0.45593999997E+02  0.45594000000E+02  0.51100000000E-03 0. -1.
         23    2    1    2    0    0 -0.22204460493E-15  0.35527136788E-14  0.00000000000E+00  0.91188000000E+02  0.91188000000E+02 0.  0.
    9900012    2    3    3    0    0 -0.79551718888E+00 -0.18371178042E+02  0.31900724678E+02  0.54366956218E+02  0.39999708289E+02 0.  0.
         12    1    3    3    0    0  0.79551718888E+00  0.18371178042E+02 -0.31900724678E+02  0.36821043782E+02  0.00000000000E+00 0. -1.
         11    1    4    4    0    0 -0.23898462789E+01  0.43444861775E+01  0.16016230296E+02  0.16766202866E+02  0.51100000000E-03 0. -1.
        -11    1    4    4    0    0  0.95441241534E+01 -0.24162900434E+02  0.11552152253E+02  0.28432169899E+02  0.51100000000E-03 0.  1.
        -12    1    4    4    0    0 -0.79497950634E+01  0.14472362143E+01  0.43323421292E+01  0.91685834530E+01  0.00000000000E+00 0.  1.
</event>
<event>
 8    1  0.2530183E-006  0.9118800E+02  0.7816164E-02  0.1184000E+00
        -11   -1    0    0    0    0  0.00000000000E+00  0.00000000000E+00  0.45593999997E+02  0.45594000000E+02  0.51100000000E-03 0. -1.
         11   -1    0    0    0    0 -0.00000000000E+00 -0.00000000000E+00 -0.45593999997E+02  0.45594000000E+02  0.51100000000E-03 0.  1.
         23    2    1    2    0    0 -0.35527136788E-14  0.00000000000E+00  0.00000000000E+00  0.91188000000E+02  0.91188000000E+02 0.  0.
    9900012    2    3    3    0    0 -0.16010073547E+02 -0.18005529028E+02 -0.27843438742E+02  0.54367100886E+02  0.40000038091E+02 0.  0.
         12    1    3    3    0    0  0.16010073547E+02  0.18005529028E+02  0.27843438742E+02  0.36820899114E+02  0.00000000000E+00 0. -1.
         11    1    4    4    0    0 -0.36340899512E+01  0.28070680885E+01 -0.77876999491E+00  0.46575448460E+01  0.51100000000E-03 0. -1.
        -11    1    4    4    0    0 -0.24181870291E+02 -0.14667379837E+02 -0.16742776176E+02  0.32866631048E+02  0.51100000000E-03 0.  1.
        -12    1    4    4    0    0  0.11805886695E+02 -0.61452172791E+01 -0.10321892571E+02  0.16842924993E+02  0.00000000000E+00 0.  1.
</event>
<event>
 8    1  0.2530183E-006  0.9118800E+02  0.7816164E-02  0.1184000E+00
        -11   -1    0    0    0    0  0.00000000000E+00  0.00000000000E+00  0.45593999997E+02  0.45594000000E+02  0.51100000000E-03 0.  1.
         11   -1    0    0    0    0 -0.00000000000E+00 -0.00000000000E+00 -0.45593999997E+02  0.45594000000E+02  0.51100000000E-03 0. -1.
         23    2    1    2    0    0  0.00000000000E+00 -0.17763568394E-14  0.00000000000E+00  0.91188000000E+02  0.91188000000E+02 0.  0.
    9900012    2    3    3    0    0 -0.32466577633E+02 -0.14758158239E+02  0.91595923473E+01  0.54367081628E+02  0.39999994187E+02 0.  0.
        -12    1    3    3    0    0  0.32466577633E+02  0.14758158239E+02 -0.91595923473E+01  0.36820918372E+02  0.00000000000E+00 0.  1.
         11    1    4    4    0    0 -0.25246573900E+02 -0.77404892154E+01  0.22754408897E+01  0.26504382628E+02  0.51100000000E-03 0. -1.
        -11    1    4    4    0    0 -0.97294522448E+01 -0.12369911534E+02  0.12199993871E+02  0.19912729674E+02  0.51100000000E-03 0.  1.
         12    1    4    4    0    0  0.25094485114E+01  0.53522425107E+01 -0.53158424138E+01  0.79499693266E+01  0.00000000000E+00 0. -1.
</event>
<event>
 8    1  0.2530183E-006  0.9118800E+02  0.7816164E-02  0.1184000E+00
        -11   -1    0    0    0    0  0.00000000000E+00  0.00000000000E+00  0.45593999997E+02  0.45594000000E+02  0.51100000000E-03 0. -1.
         11   -1    0    0    0    0 -0.00000000000E+00 -0.00000000000E+00 -0.45593999997E+02  0.45594000000E+02  0.51100000000E-03 0.  1.
         23    2    1    2    0    0  0.35527136788E-14  0.88817841970E-15  0.35527136788E-14  0.91188000000E+02  0.91188000000E+02 0.  0.
    9900012    2    3    3    0    0  0.20887103851E+02  0.39376728550E+01 -0.30066673951E+02  0.54367064959E+02  0.39999956187E+02 0.  0.
         12    1    3    3    0    0 -0.20887103851E+02 -0.39376728550E+01  0.30066673951E+02  0.36820935041E+02  0.00000000000E+00 0. -1.
         11    1    4    4    0    0 -0.15570768263E+01 -0.74051957682E+01 -0.69077369909E+01  0.10245889088E+02  0.51100000000E-03 0. -1.
        -11    1    4    4    0    0 -0.59618277287E+01  0.27715229865E+01 -0.92587438033E+01  0.11355574253E+02  0.51100000000E-03 0.  1.
         12    1    4    4    0    0  0.28406008406E+02  0.85713456367E+01 -0.13900193157E+02  0.32765601618E+02  0.00000000000E+00 0. -1.
</event>
<event>
 8    1  0.2530183E-006  0.9118800E+02  0.7816164E-02  0.1184000E+00
        -11   -1    0    0    0    0  0.00000000000E+00  0.00000000000E+00  0.45593999997E+02  0.45594000000E+02  0.51100000000E-03 0.  1.
         11   -1    0    0    0    0 -0.00000000000E+00 -0.00000000000E+00 -0.45593999997E+02  0.45594000000E+02  0.51100000000E-03 0. -1.
         23    2    1    2    0    0 -0.35527136788E-14  0.17763568394E-14  0.00000000000E+00  0.91188000000E+02  0.91188000000E+02 0.  0.
    9900012    2    3    3    0    0  0.25684230809E+02 -0.21810160412E+01  0.26293397839E+02  0.54367091359E+02  0.40000016370E+02 0.  0.
         12    1    3    3    0    0 -0.25684230809E+02  0.21810160412E+01 -0.26293397839E+02  0.36820908641E+02  0.00000000000E+00 0. -1.
         11    1    4    4    0    0  0.18521847288E+00 -0.23481786213E+01 -0.55993693013E+01  0.60746346025E+01  0.51100000000E-03 0. -1.
        -11    1    4    4    0    0  0.44822272231E+01  0.10913460098E+02  0.59343570819E+01  0.13206459269E+02  0.51100000000E-03 0.  1.
        -12    1    4    4    0    0  0.21016785113E+02 -0.10746297518E+02  0.25958410059E+02  0.35085997487E+02  0.00000000000E+00 0.  1.
</event>
<event>
 8    1  0.2530183E-006  0.9118800E+02  0.7816164E-02  0.1184000E+00
        -11   -1    0    0    0    0  0.00000000000E+00  0.00000000000E+00  0.45593999997E+02  0.45594000000E+02  0.51100000000E-03 0. -1.
         11   -1    0    0    0    0 -0.00000000000E+00 -0.00000000000E+00 -0.45593999997E+02  0.45594000000E+02  0.51100000000E-03 0.  1.
         23    2    1    2    0    0  0.00000000000E+00  0.00000000000E+00 -0.35527136788E-14  0.91188000000E+02  0.91188000000E+02 0.  0.
    9900012    2    3    3    0    0  0.28242916940E+01  0.24264587181E+02 -0.27550538893E+02  0.54367095504E+02  0.40000025820E+02 0.  0.
        -12    1    3    3    0    0 -0.28242916940E+01 -0.24264587181E+02  0.27550538893E+02  0.36820904496E+02  0.00000000000E+00 0.  1.
         11    1    4    4    0    0  0.10596224422E+02  0.19847120848E+02 -0.25633817908E+02  0.34106902509E+02  0.51100000000E-03 0.  1.
        -11    1    4    4    0    0  0.10113645916E+01  0.56876755160E+00  0.70420436738E+01  0.71369975641E+01  0.51100000000E-03 0. -1.
        -12    1    4    4    0    0 -0.87832973194E+01  0.38486987808E+01 -0.89587646582E+01  0.13123195430E+02  0.00000000000E+00 0.  1.
</event>
<event>
 8    1  0.2530183E-006  0.9118800E+02  0.7816164E-02  0.1184000E+00
        -11   -1    0    0    0    0  0.00000000000E+00  0.00000000000E+00  0.45593999997E+02  0.45594000000E+02  0.51100000000E-03 0.  1.
         11   -1    0    0    0    0 -0.00000000000E+00 -0.00000000000E+00 -0.45593999997E+02  0.45594000000E+02  0.51100000000E-03 0. -1.
         23    2    1    2    0    0  0.35527136788E-14  0.17763568394E-14  0.00000000000E+00  0.91188000000E+02  0.91188000000E+02 0.  0.
    9900012    2    3    3    0    0  0.25686171189E+02  0.12113185282E+02  0.23436502458E+02  0.54367105178E+02  0.40000047874E+02 0.  0.
         12    1    3    3    0    0 -0.25686171189E+02 -0.12113185282E+02 -0.23436502458E+02  0.36820894822E+02  0.00000000000E+00 0. -1.
         11    1    4    4    0    0 -0.30308162422E+01  0.97077506636E+00 -0.15221340294E+01  0.35277675076E+01  0.51100000000E-03 0. -1.
        -11    1    4    4    0    0  0.31350249155E+02 -0.13735560665E+01  0.15999861626E+02  0.35223860530E+02  0.51100000000E-03 0.  1.
        -12    1    4    4    0    0 -0.26332617241E+01  0.12515966282E+02  0.89587748615E+01  0.15615477140E+02  0.00000000000E+00 0.  1.
</event>
<event>
 8    1  0.2530183E-006  0.9118800E+02  0.7816164E-02  0.1184000E+00
        -11   -1    0    0    0    0  0.00000000000E+00  0.00000000000E+00  0.45593999997E+02  0.45594000000E+02  0.51100000000E-03 0. -1.
         11   -1    0    0    0    0 -0.00000000000E+00 -0.00000000000E+00 -0.45593999997E+02  0.45594000000E+02  0.51100000000E-03 0.  1.
         23    2    1    2    0    0  0.00000000000E+00  0.00000000000E+00 -0.35527136788E-14  0.91188000000E+02  0.91188000000E+02 0.  0.
    9900012    2    3    3    0    0 -0.87657683739E+01  0.21133229675E+02  0.28850101553E+02  0.54367075904E+02  0.39999981139E+02 0.  0.
        -12    1    3    3    0    0  0.87657683739E+01 -0.21133229675E+02 -0.28850101553E+02  0.36820924096E+02  0.00000000000E+00 0.  1.
         11    1    4    4    0    0 -0.11121064781E+02  0.89074566421E+01  0.33222502146E+01  0.14630728364E+02  0.51100000000E-03 0. -1.
        -11    1    4    4    0    0  0.18370296763E+01 -0.85887816885E+01  0.12134589166E+02  0.14979656318E+02  0.51100000000E-03 0.  1.
         12    1    4    4    0    0  0.51826673117E+00  0.20814554721E+02  0.13393262172E+02  0.24756691222E+02  0.00000000000E+00 0. -1.
</event>
<event>
 8    1  0.2530183E-006  0.9118800E+02  0.7816164E-02  0.1184000E+00
        -11   -1    0    0    0    0  0.00000000000E+00  0.00000000000E+00  0.45593999997E+02  0.45594000000E+02  0.51100000000E-03 0. -1.
         11   -1    0    0    0    0 -0.00000000000E+00 -0.00000000000E+00 -0.45593999997E+02  0.45594000000E+02  0.51100000000E-03 0.  1.
         23    2    1    2    0    0  0.17763568394E-14  0.17763568394E-14  0.00000000000E+00  0.91188000000E+02  0.91188000000E+02 0.  0.
    9900012    2    3    3    0    0 -0.72818820282E+01  0.14276475767E+02 -0.33150208745E+02  0.54367083308E+02  0.39999998016E+02 0.  0.
         12    1    3    3    0    0  0.72818820282E+01 -0.14276475767E+02  0.33150208745E+02  0.36820916692E+02  0.00000000000E+00 0. -1.
         11    1    4    4    0    0 -0.80758809637E+01  0.28002905926E+00 -0.74022554615E+01  0.10958633847E+02  0.51100000000E-03 0. -1.
        -11    1    4    4    0    0 -0.14434023861E+02  0.39219085568E+00 -0.91558891185E+01  0.17097519244E+02  0.51100000000E-03 0.  1.
         12    1    4    4    0    0  0.15228022797E+02  0.13604255853E+02 -0.16592064165E+02  0.26310930217E+02  0.00000000000E+00 0. -1.
</event>
<event>
 8    1  0.2530183E-006  0.9118800E+02  0.7816164E-02  0.1184000E+00
        -11   -1    0    0    0    0  0.00000000000E+00  0.00000000000E+00  0.45593999997E+02  0.45594000000E+02  0.51100000000E-03 0. -1.
         11   -1    0    0    0    0 -0.00000000000E+00 -0.00000000000E+00 -0.45593999997E+02  0.45594000000E+02  0.51100000000E-03 0.  1.
         23    2    1    2    0    0  0.55511151231E-15 -0.71054273576E-14  0.00000000000E+00  0.91188000000E+02  0.91188000000E+02 0.  0.
    9900012    2    3    3    0    0 -0.52480018969E+00 -0.36723254753E+02 -0.26281380332E+01  0.54367082515E+02  0.39999996210E+02 0.  0.
        -12    1    3    3    0    0  0.52480018969E+00  0.36723254753E+02  0.26281380332E+01  0.36820917485E+02  0.00000000000E+00 0.  1.
         11    1    4    4    0    0  0.10789110478E+02 -0.19629229758E+02 -0.25668219361E+01  0.22545512656E+02  0.51100000000E-03 0. -1.
        -11    1    4    4    0    0  0.66841549251E+01 -0.14138442903E+01 -0.35470576389E+01  0.76979543318E+01  0.51100000000E-03 0.  1.
        -12    1    4    4    0    0 -0.17998065593E+02 -0.15680180704E+02  0.34857415417E+01  0.24123615527E+02  0.00000000000E+00 0.  1.
</event>
<event>
 8    1  0.2530183E-006  0.9118800E+02  0.7816164E-02  0.1184000E+00
        -11   -1    0    0    0    0  0.00000000000E+00  0.00000000000E+00  0.45593999997E+02  0.45594000000E+02  0.51100000000E-03 0.  1.
         11   -1    0    0    0    0 -0.00000000000E+00 -0.00000000000E+00 -0.45593999997E+02  0.45594000000E+02  0.51100000000E-03 0. -1.
         23    2    1    2    0    0 -0.88817841970E-15  0.00000000000E+00  0.00000000000E+00  0.91188000000E+02  0.91188000000E+02 0.  0.
    9900012    2    3    3    0    0 -0.54755777470E+01 -0.49735889469E+01  0.36070231757E+02  0.54367079891E+02  0.39999990227E+02 0.  0.
         12    1    3    3    0    0  0.54755777470E+01  0.49735889469E+01 -0.36070231757E+02  0.36820920109E+02  0.00000000000E+00 0. -1.
         11    1    4    4    0    0 -0.63531776319E-01 -0.10260927209E+01  0.20418675116E+02  0.20444539523E+02  0.51100000000E-03 0. -1.
        -11    1    4    4    0    0 -0.18522075146E+01  0.85237519567E+01  0.18669489412E+02  0.20606670164E+02  0.51100000000E-03 0.  1.
         12    1    4    4    0    0 -0.35598384561E+01 -0.12471248183E+02 -0.30179327708E+01  0.13315870203E+02  0.00000000000E+00 0. -1.
</event>
<event>
 8    1  0.2530183E-006  0.9118800E+02  0.7816164E-02  0.1184000E+00
        -11   -1    0    0    0    0  0.00000000000E+00  0.00000000000E+00  0.45593999997E+02  0.45594000000E+02  0.51100000000E-03 0. -1.
         11   -1    0    0    0    0 -0.00000000000E+00 -0.00000000000E+00 -0.45593999997E+02  0.45594000000E+02  0.51100000000E-03 0.  1.
         23    2    1    2    0    0  0.17763568394E-14  0.35527136788E-14 -0.71054273576E-14  0.91188000000E+02  0.91188000000E+02 0.  0.
    9900012    2    3    3    0    0 -0.77133978541E+01 -0.30985801240E+02  0.18334730257E+02  0.54367099433E+02  0.40000034777E+02 0.  0.
         12    1    3    3    0    0  0.77133978541E+01  0.30985801240E+02 -0.18334730257E+02  0.36820900567E+02  0.00000000000E+00 0. -1.
         11    1    4    4    0    0  0.36397360393E+01 -0.81378672997E+00  0.50773853173E+01  0.62999816825E+01  0.51100000000E-03 0. -1.
        -11    1    4    4    0    0 -0.19018569016E+02 -0.27564372345E+02  0.18656807505E+02  0.38335063020E+02  0.51100000000E-03 0.  1.
         12    1    4    4    0    0  0.76654351228E+01 -0.26076421648E+01 -0.53994625651E+01  0.97320547303E+01  0.00000000000E+00 0. -1.
</event>
<event>
 8    1  0.2530183E-006  0.9118800E+02  0.7816164E-02  0.1184000E+00
        -11   -1    0    0    0    0  0.00000000000E+00  0.00000000000E+00  0.45593999997E+02  0.45594000000E+02  0.51100000000E-03 0.  1.
         11   -1    0    0    0    0 -0.00000000000E+00 -0.00000000000E+00 -0.45593999997E+02  0.45594000000E+02  0.51100000000E-03 0. -1.
         23    2    1    2    0    0  0.35527136788E-14 -0.71054273576E-14 -0.17763568394E-14  0.91188000000E+02  0.91188000000E+02 0.  0.
    9900012    2    3    3    0    0  0.22282814342E+02 -0.26207499502E+02 -0.13130987324E+02  0.54367086469E+02  0.40000005224E+02 0.  0.
        -12    1    3    3    0    0 -0.22282814342E+02  0.26207499502E+02  0.13130987324E+02  0.36820913531E+02  0.00000000000E+00 0.  1.
         11    1    4    4    0    0  0.15800103978E+02 -0.49186985926E-01  0.12517139546E+01  0.15849684324E+02  0.51100000000E-03 0. -1.
        -11    1    4    4    0    0  0.97168723799E+01 -0.20185827240E+02 -0.19746267626E+02  0.29863025896E+02  0.51100000000E-03 0.  1.
         12    1    4    4    0    0 -0.32341620157E+01 -0.59724852756E+01  0.53635663473E+01  0.86543762498E+01  0.00000000000E+00 0. -1.
</event>
<event>
 8    1  0.2530183E-006  0.9118800E+02  0.7816164E-02  0.1184000E+00
        -11   -1    0    0    0    0  0.00000000000E+00  0.00000000000E+00  0.45593999997E+02  0.45594000000E+02  0.51100000000E-03 0. -1.
         11   -1    0    0    0    0 -0.00000000000E+00 -0.00000000000E+00 -0.45593999997E+02  0.45594000000E+02  0.51100000000E-03 0.  1.
         23    2    1    2    0    0  0.00000000000E+00  0.71054273576E-14  0.17763568394E-14  0.91188000000E+02  0.91188000000E+02 0.  0.
    9900012    2    3    3    0    0  0.13450653720E+02 -0.33120515624E+02  0.88261947681E+01  0.54366941422E+02  0.39999674558E+02 0.  0.
        -12    1    3    3    0    0 -0.13450653720E+02  0.33120515624E+02 -0.88261947681E+01  0.36821058578E+02  0.00000000000E+00 0.  1.
         11    1    4    4    0    0  0.15236428336E+02 -0.35478407060E+01 -0.10470013427E+02  0.18824375250E+02  0.51100000000E-03 0. -1.
        -11    1    4    4    0    0 -0.41421442783E-02 -0.93684303494E+01  0.80426212285E+01  0.12347115487E+02  0.51100000000E-03 0.  1.
         12    1    4    4    0    0 -0.17816324715E+01 -0.20204244569E+02  0.11253586967E+02  0.23195450685E+02  0.00000000000E+00 0. -1.
</event>
<event>
 8    1  0.2530183E-006  0.9118800E+02  0.7816164E-02  0.1184000E+00
        -11   -1    0    0    0    0  0.00000000000E+00  0.00000000000E+00  0.45593999997E+02  0.45594000000E+02  0.51100000000E-03 0. -1.
         11   -1    0    0    0    0 -0.00000000000E+00 -0.00000000000E+00 -0.45593999997E+02  0.45594000000E+02  0.51100000000E-03 0.  1.
         23    2    1    2    0    0  0.00000000000E+00  0.00000000000E+00  0.35527136788E-14  0.91188000000E+02  0.91188000000E+02 0.  0.
    9900012    2    3    3    0    0 -0.88110082628E+01 -0.16233136192E+02  0.31853281607E+02  0.54367080317E+02  0.39999991198E+02 0.  0.
        -12    1    3    3    0    0  0.88110082628E+01  0.16233136192E+02 -0.31853281607E+02  0.36820919683E+02  0.00000000000E+00 0.  1.
         11    1    4    4    0    0  0.14731943223E+01 -0.72518152218E+01  0.19210086400E+02  0.20586076491E+02  0.51100000000E-03 0. -1.
        -11    1    4    4    0    0  0.73012521390E+01 -0.33011084549E+01 -0.39599548297E+01  0.89379439662E+01  0.51100000000E-03 0.  1.
         12    1    4    4    0    0 -0.17585454724E+02 -0.56802125148E+01  0.16603150036E+02  0.24843059860E+02  0.00000000000E+00 0. -1.
</event>
<event>
 8    1  0.2530183E-006  0.9118800E+02  0.7816164E-02  0.1184000E+00
        -11   -1    0    0    0    0  0.00000000000E+00  0.00000000000E+00  0.45593999997E+02  0.45594000000E+02  0.51100000000E-03 0.  1.
         11   -1    0    0    0    0 -0.00000000000E+00 -0.00000000000E+00 -0.45593999997E+02  0.45594000000E+02  0.51100000000E-03 0. -1.
         23    2    1    2    0    0  0.00000000000E+00  0.00000000000E+00  0.00000000000E+00  0.91188000000E+02  0.91188000000E+02 0.  0.
    9900012    2    3    3    0    0 -0.30621957996E+02  0.85787661143E+01 -0.18560239420E+02  0.54367054509E+02  0.39999932364E+02 0.  0.
        -12    1    3    3    0    0  0.30621957996E+02 -0.85787661143E+01  0.18560239420E+02  0.36820945491E+02  0.00000000000E+00 0.  1.
         11    1    4    4    0    0 -0.18777250866E+02  0.85263856523E+01 -0.61025270827E+01  0.21506399965E+02  0.51100000000E-03 0. -1.
        -11    1    4    4    0    0 -0.16946127857E+02  0.52476295034E+01  0.77506927770E+00  0.17756959126E+02  0.51100000000E-03 0.  1.
         12    1    4    4    0    0  0.51014207270E+01 -0.51952490414E+01 -0.13232781615E+02  0.15103695418E+02  0.00000000000E+00 0. -1.
</event>
<event>
 8    1  0.2530183E-006  0.9118800E+02  0.7816164E-02  0.1184000E+00
        -11   -1    0    0    0    0  0.00000000000E+00  0.00000000000E+00  0.45593999997E+02  0.45594000000E+02  0.51100000000E-03 0.  1.
         11   -1    0    0    0    0 -0.00000000000E+00 -0.00000000000E+00 -0.45593999997E+02  0.45594000000E+02  0.51100000000E-03 0. -1.
         23    2    1    2    0    0  0.00000000000E+00 -0.88817841970E-15  0.00000000000E+00  0.91188000000E+02  0.91188000000E+02 0.  0.
    9900012    2    3    3    0    0  0.32068949576E+02 -0.79897347966E+01 -0.16233488091E+02  0.54367088487E+02  0.40000009825E+02 0.  0.
        -12    1    3    3    0    0 -0.32068949576E+02  0.79897347966E+01  0.16233488091E+02  0.36820911513E+02  0.00000000000E+00 0.  1.
         11    1    4    4    0    0  0.25126588742E+02 -0.11231075638E+02 -0.41710278902E+01  0.27836666391E+02  0.51100000000E-03 0. -1.
        -11    1    4    4    0    0 -0.21271433565E+01 -0.76505515476E+01 -0.90507809856E+01  0.12040444948E+02  0.51100000000E-03 0.  1.
        -12    1    4    4    0    0  0.90695041897E+01  0.10891892389E+02 -0.30116792157E+01  0.14489977149E+02  0.00000000000E+00 0.  1.
</event>
<event>
 8    1  0.2530183E-006  0.9118800E+02  0.7816164E-02  0.1184000E+00
        -11   -1    0    0    0    0  0.00000000000E+00  0.00000000000E+00  0.45593999997E+02  0.45594000000E+02  0.51100000000E-03 0.  1.
         11   -1    0    0    0    0 -0.00000000000E+00 -0.00000000000E+00 -0.45593999997E+02  0.45594000000E+02  0.51100000000E-03 0. -1.
         23    2    1    2    0    0  0.88817841970E-15  0.00000000000E+00  0.00000000000E+00  0.91188000000E+02  0.91188000000E+02 0.  0.
    9900012    2    3    3    0    0  0.52961549559E+01 -0.35516842214E+02  0.81415392150E+01  0.54367082046E+02  0.39999995141E+02 0.  0.
        -12    1    3    3    0    0 -0.52961549559E+01  0.35516842214E+02 -0.81415392150E+01  0.36820917954E+02  0.00000000000E+00 0.  1.
         11    1    4    4    0    0 -0.13621910975E+02 -0.16460501408E+02  0.33570501200E+01  0.21628091709E+02  0.51100000000E-03 0. -1.
        -11    1    4    4    0    0 -0.16351711555E+01 -0.68975926896E+00  0.48611957121E+01  0.51750146444E+01  0.51100000000E-03 0.  1.
         12    1    4    4    0    0  0.20553237086E+02 -0.18366581537E+02 -0.76706617093E-01  0.27563975693E+02  0.00000000000E+00 0. -1.
</event>
<event>
 8    1  0.2530183E-006  0.9118800E+02  0.7816164E-02  0.1184000E+00
        -11   -1    0    0    0    0  0.00000000000E+00  0.00000000000E+00  0.45593999997E+02  0.45594000000E+02  0.51100000000E-03 0.  1.
         11   -1    0    0    0    0 -0.00000000000E+00 -0.00000000000E+00 -0.45593999997E+02  0.45594000000E+02  0.51100000000E-03 0. -1.
         23    2    1    2    0    0  0.00000000000E+00  0.00000000000E+00  0.35527136788E-14  0.91188000000E+02  0.91188000000E+02 0.  0.
    9900012    2    3    3    0    0  0.22534949644E+02 -0.12491727278E+02 -0.26304228942E+02  0.54367086566E+02  0.40000005445E+02 0.  0.
        -12    1    3    3    0    0 -0.22534949644E+02  0.12491727278E+02  0.26304228942E+02  0.36820913434E+02  0.00000000000E+00 0.  1.
         11    1    4    4    0    0  0.45741626759E+01 -0.15940848574E+02 -0.21229775214E+02  0.26939505811E+02  0.51100000000E-03 0. -1.
        -11    1    4    4    0    0  0.13722916535E+02 -0.68341657029E+01 -0.32576062463E+00  0.15333961632E+02  0.51100000000E-03 0.  1.
        -12    1    4    4    0    0  0.42378704331E+01  0.10283286999E+02 -0.47486931039E+01  0.12093619124E+02  0.00000000000E+00 0.  1.
</event>
<event>
 8    1  0.2530183E-006  0.9118800E+02  0.7816164E-02  0.1184000E+00
        -11   -1    0    0    0    0  0.00000000000E+00  0.00000000000E+00  0.45593999997E+02  0.45594000000E+02  0.51100000000E-03 0.  1.
         11   -1    0    0    0    0 -0.00000000000E+00 -0.00000000000E+00 -0.45593999997E+02  0.45594000000E+02  0.51100000000E-03 0. -1.
         23    2    1    2    0    0  0.00000000000E+00 -0.35527136788E-14  0.71054273576E-14  0.91188000000E+02  0.91188000000E+02 0.  0.
    9900012    2    3    3    0    0  0.17224746290E+02 -0.13022419816E+02  0.29824592349E+02  0.54367060150E+02  0.39999945224E+02 0.  0.
         12    1    3    3    0    0 -0.17224746290E+02  0.13022419816E+02 -0.29824592349E+02  0.36820939850E+02  0.00000000000E+00 0. -1.
         11    1    4    4    0    0  0.21307391426E+01  0.74451193681E+01 -0.94392850412E+00  0.78013366150E+01  0.51100000000E-03 0. -1.
        -11    1    4    4    0    0  0.95174205288E+00 -0.15680427406E+00 -0.38731078336E+01  0.39914114129E+01  0.51100000000E-03 0.  1.
        -12    1    4    4    0    0  0.14142265095E+02 -0.20310734910E+02  0.34641628687E+02  0.42574312122E+02  0.00000000000E+00 0.  1.
</event>
<event>
 8    1  0.2530183E-006  0.9118800E+02  0.7816164E-02  0.1184000E+00
        -11   -1    0    0    0    0  0.00000000000E+00  0.00000000000E+00  0.45593999997E+02  0.45594000000E+02  0.51100000000E-03 0. -1.
         11   -1    0    0    0    0 -0.00000000000E+00 -0.00000000000E+00 -0.45593999997E+02  0.45594000000E+02  0.51100000000E-03 0.  1.
         23    2    1    2    0    0  0.17763568394E-14 -0.11102230246E-14  0.71054273576E-14  0.91188000000E+02  0.91188000000E+02 0.  0.
    9900012    2    3    3    0    0 -0.14269782483E+02  0.18553227701E+01 -0.33892641231E+02  0.54367081430E+02  0.39999993736E+02 0.  0.
         12    1    3    3    0    0  0.14269782483E+02 -0.18553227701E+01  0.33892641231E+02  0.36820918570E+02  0.00000000000E+00 0. -1.
         11    1    4    4    0    0 -0.23037761286E+01 -0.61498142077E+01 -0.42068201868E+01  0.77990342726E+01  0.51100000000E-03 0. -1.
        -11    1    4    4    0    0 -0.56331361262E+01 -0.12786598813E+02 -0.13871663588E+02  0.19688889831E+02  0.51100000000E-03 0.  1.
         12    1    4    4    0    0 -0.63328702283E+01  0.20791735791E+02 -0.15814157456E+02  0.26879157326E+02  0.00000000000E+00 0. -1.
</event>
<event>
 8    1  0.2530183E-006  0.9118800E+02  0.7816164E-02  0.1184000E+00
        -11   -1    0    0    0    0  0.00000000000E+00  0.00000000000E+00  0.45593999997E+02  0.45594000000E+02  0.51100000000E-03 0. -1.
         11   -1    0    0    0    0 -0.00000000000E+00 -0.00000000000E+00 -0.45593999997E+02  0.45594000000E+02  0.51100000000E-03 0.  1.
         23    2    1    2    0    0  0.26645352591E-14  0.00000000000E+00  0.00000000000E+00  0.91188000000E+02  0.91188000000E+02 0.  0.
    9900012    2    3    3    0    0 -0.78869773348E+01 -0.25523969945E+02  0.25339737110E+02  0.54367085698E+02  0.40000003465E+02 0.  0.
        -12    1    3    3    0    0  0.78869773348E+01  0.25523969945E+02 -0.25339737110E+02  0.36820914302E+02  0.00000000000E+00 0.  1.
         11    1    4    4    0    0 -0.13025201102E+02  0.57013258741E+01  0.10463327350E+02  0.17653390608E+02  0.51100000000E-03 0. -1.
        -11    1    4    4    0    0  0.24621186924E+01 -0.28839216505E+02  0.99209146528E+01  0.30597172825E+02  0.51100000000E-03 0.  1.
        -12    1    4    4    0    0  0.26761050745E+01 -0.23860793151E+01  0.49554951066E+01  0.61165222651E+01  0.00000000000E+00 0.  1.
</event>
<event>
 8    1  0.2530183E-006  0.9118800E+02  0.7816164E-02  0.1184000E+00
        -11   -1    0    0    0    0  0.00000000000E+00  0.00000000000E+00  0.45593999997E+02  0.45594000000E+02  0.51100000000E-03 0. -1.
         11   -1    0    0    0    0 -0.00000000000E+00 -0.00000000000E+00 -0.45593999997E+02  0.45594000000E+02  0.51100000000E-03 0.  1.
         23    2    1    2    0    0  0.17763568394E-14 -0.35527136788E-14  0.00000000000E+00  0.91188000000E+02  0.91188000000E+02 0.  0.
    9900012    2    3    3    0    0  0.93597407078E+01  0.31469721290E+02 -0.16668291376E+02  0.54367081467E+02  0.39999993821E+02 0.  0.
         12    1    3    3    0    0 -0.93597407078E+01 -0.31469721290E+02  0.16668291376E+02  0.36820918533E+02  0.00000000000E+00 0. -1.
         11    1    4    4    0    0 -0.67544711817E+01  0.60970244967E+01  0.17595508114E+01  0.92678264969E+01  0.51100000000E-03 0. -1.
        -11    1    4    4    0    0 -0.99638715449E+00  0.23574932206E+02 -0.13579023636E+02  0.27224255711E+02  0.51100000000E-03 0.  1.
        -12    1    4    4    0    0  0.17110599044E+02  0.17977645875E+01 -0.48488185516E+01  0.17874999259E+02  0.00000000000E+00 0.  1.
</event>
<event>
 8    1  0.2530183E-006  0.9118800E+02  0.7816164E-02  0.1184000E+00
        -11   -1    0    0    0    0  0.00000000000E+00  0.00000000000E+00  0.45593999997E+02  0.45594000000E+02  0.51100000000E-03 0.  1.
         11   -1    0    0    0    0 -0.00000000000E+00 -0.00000000000E+00 -0.45593999997E+02  0.45594000000E+02  0.51100000000E-03 0. -1.
         23    2    1    2    0    0 -0.17763568394E-14  0.88817841970E-15  0.00000000000E+00  0.91188000000E+02  0.91188000000E+02 0.  0.
    9900012    2    3    3    0    0 -0.12612401365E+02 -0.55089729995E+01  0.34151999941E+02  0.54367074541E+02  0.39999978031E+02 0.  0.
         12    1    3    3    0    0  0.12612401365E+02  0.55089729995E+01 -0.34151999941E+02  0.36820925459E+02  0.00000000000E+00 0. -1.
         11    1    4    4    0    0 -0.77393293867E+01 -0.92793776364E+01 -0.16429254434E+01  0.12194395145E+02  0.51100000000E-03 0. -1.
        -11    1    4    4    0    0  0.78938772157E+01  0.48801016445E+01  0.17893858910E+02  0.20157352914E+02  0.51100000000E-03 0.  1.
        -12    1    4    4    0    0 -0.12766949194E+02 -0.11096970076E+01  0.17901066475E+02  0.22015326482E+02  0.00000000000E+00 0.  1.
</event>
<event>
 8    1  0.2530183E-006  0.9118800E+02  0.7816164E-02  0.1184000E+00
        -11   -1    0    0    0    0  0.00000000000E+00  0.00000000000E+00  0.45593999997E+02  0.45594000000E+02  0.51100000000E-03 0.  1.
         11   -1    0    0    0    0 -0.00000000000E+00 -0.00000000000E+00 -0.45593999997E+02  0.45594000000E+02  0.51100000000E-03 0. -1.
         23    2    1    2    0    0  0.88817841970E-15  0.00000000000E+00  0.00000000000E+00  0.91188000000E+02  0.91188000000E+02 0.  0.
    9900012    2    3    3    0    0 -0.72561918157E+01 -0.27667628896E+02 -0.23186855693E+02  0.54367078157E+02  0.39999986275E+02 0.  0.
        -12    1    3    3    0    0  0.72561918157E+01  0.27667628896E+02  0.23186855693E+02  0.36820921843E+02  0.00000000000E+00 0.  1.
         11    1    4    4    0    0 -0.12269178882E+02 -0.17870225019E+02  0.90837821768E+00  0.21695687219E+02  0.51100000000E-03 0. -1.
        -11    1    4    4    0    0  0.58477366225E+01 -0.11315007953E+01  0.10621683116E+01  0.60501668935E+01  0.51100000000E-03 0.  1.
        -12    1    4    4    0    0 -0.83474955658E+00 -0.86659030822E+01 -0.25157402223E+02  0.26621224045E+02  0.00000000000E+00 0.  1.
</event>
<event>
 8    1  0.2530183E-006  0.9118800E+02  0.7816164E-02  0.1184000E+00
        -11   -1    0    0    0    0  0.00000000000E+00  0.00000000000E+00  0.45593999997E+02  0.45594000000E+02  0.51100000000E-03 0.  1.
         11   -1    0    0    0    0 -0.00000000000E+00 -0.00000000000E+00 -0.45593999997E+02  0.45594000000E+02  0.51100000000E-03 0. -1.
         23    2    1    2    0    0  0.00000000000E+00 -0.88817841970E-15  0.00000000000E+00  0.91188000000E+02  0.91188000000E+02 0.  0.
    9900012    2    3    3    0    0  0.25216628957E+02  0.40393264329E+01 -0.26525188136E+02  0.54367080136E+02  0.39999990786E+02 0.  0.
        -12    1    3    3    0    0 -0.25216628957E+02 -0.40393264329E+01  0.26525188136E+02  0.36820919864E+02  0.00000000000E+00 0.  1.
         11    1    4    4    0    0  0.85204512914E+01  0.10993701953E+02 -0.10820538654E+02  0.17622248150E+02  0.51100000000E-03 0. -1.
        -11    1    4    4    0    0  0.47217591737E+01 -0.31543736570E+01 -0.21980097396E+02  0.22701756863E+02  0.51100000000E-03 0.  1.
        -12    1    4    4    0    0  0.11974418492E+02 -0.38000018628E+01  0.62754479144E+01  0.14043075123E+02  0.00000000000E+00 0.  1.
</event>
<event>
 8    1  0.2530183E-006  0.9118800E+02  0.7816164E-02  0.1184000E+00
        -11   -1    0    0    0    0  0.00000000000E+00  0.00000000000E+00  0.45593999997E+02  0.45594000000E+02  0.51100000000E-03 0.  1.
         11   -1    0    0    0    0 -0.00000000000E+00 -0.00000000000E+00 -0.45593999997E+02  0.45594000000E+02  0.51100000000E-03 0. -1.
         23    2    1    2    0    0 -0.17763568394E-14  0.00000000000E+00 -0.35527136788E-14  0.91188000000E+02  0.91188000000E+02 0.  0.
    9900012    2    3    3    0    0  0.60850736505E+01 -0.26605306357E+02  0.24716583966E+02  0.54367082431E+02  0.39999996018E+02 0.  0.
         12    1    3    3    0    0 -0.60850736505E+01  0.26605306357E+02 -0.24716583966E+02  0.36820917569E+02  0.00000000000E+00 0. -1.
         11    1    4    4    0    0  0.12002185040E+02 -0.28615329287E+02  0.51132892225E+01  0.31448930711E+02  0.51100000000E-03 0.  1.
        -11    1    4    4    0    0 -0.51869258505E+01 -0.20446847049E+01  0.42190715522E+01  0.69918166698E+01  0.51100000000E-03 0. -1.
        -12    1    4    4    0    0 -0.73018553858E+00  0.40547076354E+01  0.15384223191E+02  0.15926335050E+02  0.00000000000E+00 0.  1.
</event>
<event>
 8    1  0.2530183E-006  0.9118800E+02  0.7816164E-02  0.1184000E+00
        -11   -1    0    0    0    0  0.00000000000E+00  0.00000000000E+00  0.45593999997E+02  0.45594000000E+02  0.51100000000E-03 0. -1.
         11   -1    0    0    0    0 -0.00000000000E+00 -0.00000000000E+00 -0.45593999997E+02  0.45594000000E+02  0.51100000000E-03 0.  1.
         23    2    1    2    0    0 -0.17763568394E-14  0.00000000000E+00  0.00000000000E+00  0.91188000000E+02  0.91188000000E+02 0.  0.
    9900012    2    3    3    0    0  0.15203246322E+02 -0.32567679402E+02  0.79992810835E+01  0.54367069292E+02  0.39999966066E+02 0.  0.
        -12    1    3    3    0    0 -0.15203246322E+02  0.32567679402E+02 -0.79992810835E+01  0.36820930708E+02  0.00000000000E+00 0.  1.
         11    1    4    4    0    0  0.13063645155E+02  0.11472919553E+01  0.53796914355E+01  0.14174490600E+02  0.51100000000E-03 0. -1.
        -11    1    4    4    0    0 -0.80078597699E+01 -0.63918022027E+01 -0.26271441221E+01  0.10577468506E+02  0.51100000000E-03 0.  1.
        -12    1    4    4    0    0  0.10147460936E+02 -0.27323169154E+02  0.52467337701E+01  0.29615110186E+02  0.00000000000E+00 0.  1.
</event>
<event>
 8    1  0.2530183E-006  0.9118800E+02  0.7816164E-02  0.1184000E+00
        -11   -1    0    0    0    0  0.00000000000E+00  0.00000000000E+00  0.45593999997E+02  0.45594000000E+02  0.51100000000E-03 0.  1.
         11   -1    0    0    0    0 -0.00000000000E+00 -0.00000000000E+00 -0.45593999997E+02  0.45594000000E+02  0.51100000000E-03 0. -1.
         23    2    1    2    0    0  0.35527136788E-14  0.00000000000E+00  0.00000000000E+00  0.91188000000E+02  0.91188000000E+02 0.  0.
    9900012    2    3    3    0    0  0.23492436475E+02  0.21136556461E+02  0.18897832901E+02  0.54367127130E+02  0.40000097917E+02 0.  0.
         12    1    3    3    0    0 -0.23492436475E+02 -0.21136556461E+02 -0.18897832901E+02  0.36820872870E+02  0.00000000000E+00 0. -1.
         11    1    4    4    0    0 -0.17754712515E+01 -0.16561572343E+01  0.20613547686E+01  0.31850178481E+01  0.51100000000E-03 0. -1.
        -11    1    4    4    0    0 -0.36594937395E+01  0.38549329579E+01  0.15714247856E+02  0.16588851331E+02  0.51100000000E-03 0.  1.
        -12    1    4    4    0    0  0.28927401467E+02  0.18937780737E+02  0.11222302765E+01  0.34593257951E+02  0.00000000000E+00 0.  1.
</event>
<event>
 8    1  0.2530183E-006  0.9118800E+02  0.7816164E-02  0.1184000E+00
        -11   -1    0    0    0    0  0.00000000000E+00  0.00000000000E+00  0.45593999997E+02  0.45594000000E+02  0.51100000000E-03 0. -1.
         11   -1    0    0    0    0 -0.00000000000E+00 -0.00000000000E+00 -0.45593999997E+02  0.45594000000E+02  0.51100000000E-03 0.  1.
         23    2    1    2    0    0 -0.44408920985E-15  0.00000000000E+00  0.00000000000E+00  0.91188000000E+02  0.91188000000E+02 0.  0.
    9900012    2    3    3    0    0  0.11359968021E+01 -0.31886702613E+02  0.18377359086E+02  0.54367087202E+02  0.40000006895E+02 0.  0.
        -12    1    3    3    0    0 -0.11359968021E+01  0.31886702613E+02 -0.18377359086E+02  0.36820912798E+02  0.00000000000E+00 0.  1.
         11    1    4    4    0    0  0.72232964173E+01 -0.32960965489E+02  0.19427076231E+02  0.38936005808E+02  0.51100000000E-03 0. -1.
        -11    1    4    4    0    0  0.12483691573E+01 -0.52470719499E+01  0.11172278324E+01  0.55080294018E+01  0.51100000000E-03 0.  1.
         12    1    4    4    0    0 -0.73356687726E+01  0.63213348255E+01 -0.21669449782E+01  0.99230519930E+01  0.00000000000E+00 0. -1.
</event>
<event>
 8    1  0.2530183E-006  0.9118800E+02  0.7816164E-02  0.1184000E+00
        -11   -1    0    0    0    0  0.00000000000E+00  0.00000000000E+00  0.45593999997E+02  0.45594000000E+02  0.51100000000E-03 0. -1.
         11   -1    0    0    0    0 -0.00000000000E+00 -0.00000000000E+00 -0.45593999997E+02  0.45594000000E+02  0.51100000000E-03 0.  1.
         23    2    1    2    0    0  0.00000000000E+00 -0.88817841970E-15  0.00000000000E+00  0.91188000000E+02  0.91188000000E+02 0.  0.
    9900012    2    3    3    0    0  0.33080742134E+02  0.55150448011E+01  0.15199622819E+02  0.54367085384E+02  0.40000002750E+02 0.  0.
        -12    1    3    3    0    0 -0.33080742134E+02 -0.55150448011E+01 -0.15199622819E+02  0.36820914616E+02  0.00000000000E+00 0.  1.
         11    1    4    4    0    0 -0.11639392620E+01 -0.18621121780E+01  0.23202688359E+01  0.31946618133E+01  0.51100000000E-03 0.  1.
        -11    1    4    4    0    0 -0.35893051600E+01 -0.79141740845E+01  0.16136714516E+01  0.88386197331E+01  0.51100000000E-03 0. -1.
         12    1    4    4    0    0  0.37833986556E+02  0.15291331064E+02  0.11265682532E+02  0.42333803838E+02  0.00000000000E+00 0. -1.
</event>
<event>
 8    1  0.2530183E-006  0.9118800E+02  0.7816164E-02  0.1184000E+00
        -11   -1    0    0    0    0  0.00000000000E+00  0.00000000000E+00  0.45593999997E+02  0.45594000000E+02  0.51100000000E-03 0.  1.
         11   -1    0    0    0    0 -0.00000000000E+00 -0.00000000000E+00 -0.45593999997E+02  0.45594000000E+02  0.51100000000E-03 0. -1.
         23    2    1    2    0    0  0.71054273576E-14 -0.44408920985E-15 -0.17763568394E-14  0.91188000000E+02  0.91188000000E+02 0.  0.
    9900012    2    3    3    0    0 -0.35193424385E+02 -0.38888039323E+01  0.10103381767E+02  0.54367105944E+02  0.40000049619E+02 0.  0.
         12    1    3    3    0    0  0.35193424385E+02  0.38888039323E+01 -0.10103381767E+02  0.36820894056E+02  0.00000000000E+00 0. -1.
         11    1    4    4    0    0 -0.11812334512E+02 -0.14373404990E+02  0.14961327641E+01  0.18664523330E+02  0.51100000000E-03 0. -1.
        -11    1    4    4    0    0 -0.13452838395E+02 -0.59524461553E+01  0.73861065505E+01  0.16461015958E+02  0.51100000000E-03 0.  1.
        -12    1    4    4    0    0 -0.99282514784E+01  0.16437047213E+02  0.12211424520E+01  0.19241566656E+02  0.00000000000E+00 0.  1.
</event>
<event>
 8    1  0.2530183E-006  0.9118800E+02  0.7816164E-02  0.1184000E+00
        -11   -1    0    0    0    0  0.00000000000E+00  0.00000000000E+00  0.45593999997E+02  0.45594000000E+02  0.51100000000E-03 0.  1.
         11   -1    0    0    0    0 -0.00000000000E+00 -0.00000000000E+00 -0.45593999997E+02  0.45594000000E+02  0.51100000000E-03 0. -1.
         23    2    1    2    0    0  0.00000000000E+00  0.00000000000E+00  0.00000000000E+00  0.91188000000E+02  0.91188000000E+02 0.  0.
    9900012    2    3    3    0    0 -0.27923276603E+01 -0.34718029335E+02  0.11943242961E+02  0.54367086009E+02  0.40000004176E+02 0.  0.
         12    1    3    3    0    0  0.27923276603E+01  0.34718029335E+02 -0.11943242961E+02  0.36820913991E+02  0.00000000000E+00 0. -1.
         11    1    4    4    0    0 -0.11826670115E+02 -0.65033577524E+01 -0.17818382260E+01  0.13613916989E+02  0.51100000000E-03 0. -1.
        -11    1    4    4    0    0  0.17189574772E+02 -0.16861906367E+02  0.61406215304E+01  0.24849800809E+02  0.51100000000E-03 0.  1.
        -12    1    4    4    0    0 -0.81552323175E+01 -0.11352765215E+02  0.75844596568E+01  0.15903368212E+02  0.00000000000E+00 0.  1.
</event>
<event>
 8    1  0.2530183E-006  0.9118800E+02  0.7816164E-02  0.1184000E+00
        -11   -1    0    0    0    0  0.00000000000E+00  0.00000000000E+00  0.45593999997E+02  0.45594000000E+02  0.51100000000E-03 0.  1.
         11   -1    0    0    0    0 -0.00000000000E+00 -0.00000000000E+00 -0.45593999997E+02  0.45594000000E+02  0.51100000000E-03 0. -1.
         23    2    1    2    0    0  0.00000000000E+00  0.22204460493E-15 -0.35527136788E-14  0.91188000000E+02  0.91188000000E+02 0.  0.
    9900012    2    3    3    0    0  0.29790189520E+02  0.14731692104E+01 -0.21590579304E+02  0.54367099226E+02  0.40000034305E+02 0.  0.
        -12    1    3    3    0    0 -0.29790189520E+02 -0.14731692104E+01  0.21590579304E+02  0.36820900774E+02  0.00000000000E+00 0.  1.
         11    1    4    4    0    0  0.21473107288E+02  0.17351120235E+02 -0.61799695876E+01  0.28290417713E+02  0.51100000000E-03 0. -1.
        -11    1    4    4    0    0 -0.14708242719E+01 -0.88229293314E+01 -0.59270745118E+01  0.10730219875E+02  0.51100000000E-03 0.  1.
        -12    1    4    4    0    0  0.97879065032E+01 -0.70550216936E+01 -0.94835352049E+01  0.15346461638E+02  0.00000000000E+00 0.  1.
</event>
<event>
 8    1  0.2530183E-006  0.9118800E+02  0.7816164E-02  0.1184000E+00
        -11   -1    0    0    0    0  0.00000000000E+00  0.00000000000E+00  0.45593999997E+02  0.45594000000E+02  0.51100000000E-03 0.  1.
         11   -1    0    0    0    0 -0.00000000000E+00 -0.00000000000E+00 -0.45593999997E+02  0.45594000000E+02  0.51100000000E-03 0. -1.
         23    2    1    2    0    0  0.00000000000E+00  0.35527136788E-14  0.00000000000E+00  0.91188000000E+02  0.91188000000E+02 0.  0.
    9900012    2    3    3    0    0  0.21635505067E+02 -0.17309914283E+02 -0.24249763268E+02  0.54367092481E+02  0.40000018929E+02 0.  0.
        -12    1    3    3    0    0 -0.21635505067E+02  0.17309914283E+02  0.24249763268E+02  0.36820907519E+02  0.00000000000E+00 0.  1.
         11    1    4    4    0    0  0.57957151205E+01 -0.45896393142E+01 -0.13185449940E+02  0.15116586690E+02  0.51100000000E-03 0. -1.
        -11    1    4    4    0    0  0.42245956440E+01  0.38981482449E+01  0.90301738710E+01  0.10704522806E+02  0.51100000000E-03 0.  1.
        -12    1    4    4    0    0  0.11615194302E+02 -0.16618423213E+02 -0.20094487200E+02  0.28545982985E+02  0.00000000000E+00 0.  1.
</event>
<event>
 8    1  0.2530183E-006  0.9118800E+02  0.7816164E-02  0.1184000E+00
        -11   -1    0    0    0    0  0.00000000000E+00  0.00000000000E+00  0.45593999997E+02  0.45594000000E+02  0.51100000000E-03 0. -1.
         11   -1    0    0    0    0 -0.00000000000E+00 -0.00000000000E+00 -0.45593999997E+02  0.45594000000E+02  0.51100000000E-03 0.  1.
         23    2    1    2    0    0 -0.17763568394E-14  0.00000000000E+00  0.35527136788E-14  0.91188000000E+02  0.91188000000E+02 0.  0.
    9900012    2    3    3    0    0 -0.15257226387E+02  0.19237274329E+02  0.27439492893E+02  0.54367062330E+02  0.39999950194E+02 0.  0.
        -12    1    3    3    0    0  0.15257226387E+02 -0.19237274329E+02 -0.27439492893E+02  0.36820937670E+02  0.00000000000E+00 0.  1.
         11    1    4    4    0    0 -0.13138564390E+02  0.22010640056E+00  0.14371335218E+02  0.19473202029E+02  0.51100000000E-03 0. -1.
        -11    1    4    4    0    0 -0.50549656343E+01  0.24871034851E+02  0.79927447701E+01  0.26608363748E+02  0.51100000000E-03 0.  1.
        -12    1    4    4    0    0  0.29363036371E+01 -0.58538669218E+01  0.50754129054E+01  0.82854965541E+01  0.00000000000E+00 0.  1.
</event>
<event>
 8    1  0.2530183E-006  0.9118800E+02  0.7816164E-02  0.1184000E+00
        -11   -1    0    0    0    0  0.00000000000E+00  0.00000000000E+00  0.45593999997E+02  0.45594000000E+02  0.51100000000E-03 0.  1.
         11   -1    0    0    0    0 -0.00000000000E+00 -0.00000000000E+00 -0.45593999997E+02  0.45594000000E+02  0.51100000000E-03 0. -1.
         23    2    1    2    0    0  0.00000000000E+00  0.00000000000E+00  0.00000000000E+00  0.91188000000E+02  0.91188000000E+02 0.  0.
    9900012    2    3    3    0    0  0.13582862190E+02  0.79203485775E+01 -0.33294952292E+02  0.54367083187E+02  0.39999997741E+02 0.  0.
        -12    1    3    3    0    0 -0.13582862190E+02 -0.79203485775E+01  0.33294952292E+02  0.36820916813E+02  0.00000000000E+00 0.  1.
         11    1    4    4    0    0  0.11267933245E+02  0.40451690894E+01 -0.22498754041E+01  0.12181611230E+02  0.51100000000E-03 0. -1.
        -11    1    4    4    0    0  0.10839446456E+01  0.11367954005E+02 -0.13079113068E+01  0.11494170109E+02  0.51100000000E-03 0.  1.
         12    1    4    4    0    0  0.12309842998E+01 -0.74927745166E+01 -0.29737165581E+02  0.30691301847E+02  0.00000000000E+00 0. -1.
</event>
<event>
 8    1  0.2530183E-006  0.9118800E+02  0.7816164E-02  0.1184000E+00
        -11   -1    0    0    0    0  0.00000000000E+00  0.00000000000E+00  0.45593999997E+02  0.45594000000E+02  0.51100000000E-03 0.  1.
         11   -1    0    0    0    0 -0.00000000000E+00 -0.00000000000E+00 -0.45593999997E+02  0.45594000000E+02  0.51100000000E-03 0. -1.
         23    2    1    2    0    0  0.71054273576E-14 -0.26645352591E-14  0.35527136788E-14  0.91188000000E+02  0.91188000000E+02 0.  0.
    9900012    2    3    3    0    0  0.31023070669E+02 -0.69474328027E+01  0.18576364707E+02  0.54367094770E+02  0.40000024146E+02 0.  0.
        -12    1    3    3    0    0 -0.31023070669E+02  0.69474328027E+01 -0.18576364707E+02  0.36820905230E+02  0.00000000000E+00 0.  1.
         11    1    4    4    0    0  0.45111262724E+01 -0.16545736124E+02  0.41182714954E+01  0.17637227801E+02  0.51100000000E-03 0. -1.
        -11    1    4    4    0    0 -0.24690989698E+00  0.24957423492E+00 -0.32757396332E+01  0.32944987785E+01  0.51100000000E-03 0.  1.
        -12    1    4    4    0    0  0.26758854293E+02  0.93487290868E+01  0.17733832845E+02  0.33435368190E+02  0.00000000000E+00 0.  1.
</event>
<event>
 8    1  0.2530183E-006  0.9118800E+02  0.7816164E-02  0.1184000E+00
        -11   -1    0    0    0    0  0.00000000000E+00  0.00000000000E+00  0.45593999997E+02  0.45594000000E+02  0.51100000000E-03 0.  1.
         11   -1    0    0    0    0 -0.00000000000E+00 -0.00000000000E+00 -0.45593999997E+02  0.45594000000E+02  0.51100000000E-03 0. -1.
         23    2    1    2    0    0 -0.17763568394E-14  0.35527136788E-14  0.00000000000E+00  0.91188000000E+02  0.91188000000E+02 0.  0.
    9900012    2    3    3    0    0  0.65877070195E+01 -0.27875166936E+02 -0.23137796725E+02  0.54367075883E+02  0.39999981091E+02 0.  0.
        -12    1    3    3    0    0 -0.65877070195E+01  0.27875166936E+02  0.23137796725E+02  0.36820924117E+02  0.00000000000E+00 0.  1.
         11    1    4    4    0    0 -0.44321479212E+00 -0.19143249650E+02 -0.16452584251E+02  0.25245751629E+02  0.51100000000E-03 0. -1.
        -11    1    4    4    0    0 -0.53179701795E+01 -0.12473953687E+02 -0.86280831002E+01  0.16072465450E+02  0.51100000000E-03 0.  1.
        -12    1    4    4    0    0  0.12348891991E+02  0.37420363999E+01  0.19428706257E+01  0.13048858804E+02  0.00000000000E+00 0.  1.
</event>
<event>
 8    1  0.2530183E-006  0.9118800E+02  0.7816164E-02  0.1184000E+00
        -11   -1    0    0    0    0  0.00000000000E+00  0.00000000000E+00  0.45593999997E+02  0.45594000000E+02  0.51100000000E-03 0. -1.
         11   -1    0    0    0    0 -0.00000000000E+00 -0.00000000000E+00 -0.45593999997E+02  0.45594000000E+02  0.51100000000E-03 0.  1.
         23    2    1    2    0    0  0.35527136788E-14  0.00000000000E+00  0.00000000000E+00  0.91188000000E+02  0.91188000000E+02 0.  0.
    9900012    2    3    3    0    0  0.17684457308E+02 -0.14064342162E+02  0.29072901529E+02  0.54367090804E+02  0.40000015106E+02 0.  0.
        -12    1    3    3    0    0 -0.17684457308E+02  0.14064342162E+02 -0.29072901529E+02  0.36820909196E+02  0.00000000000E+00 0.  1.
         11    1    4    4    0    0  0.31533279288E+00 -0.18480967663E+00 -0.88559889522E+01  0.88635280768E+01  0.51100000000E-03 0.  1.
        -11    1    4    4    0    0  0.18707997512E+02 -0.11135621610E+02  0.30513159203E+02  0.37483918210E+02  0.51100000000E-03 0. -1.
         12    1    4    4    0    0 -0.13388729973E+01 -0.27439108749E+01  0.74157312784E+01  0.80196445174E+01  0.00000000000E+00 0. -1.
</event>
<event>
 8    1  0.2530183E-006  0.9118800E+02  0.7816164E-02  0.1184000E+00
        -11   -1    0    0    0    0  0.00000000000E+00  0.00000000000E+00  0.45593999997E+02  0.45594000000E+02  0.51100000000E-03 0.  1.
         11   -1    0    0    0    0 -0.00000000000E+00 -0.00000000000E+00 -0.45593999997E+02  0.45594000000E+02  0.51100000000E-03 0. -1.
         23    2    1    2    0    0  0.00000000000E+00  0.00000000000E+00  0.00000000000E+00  0.91188000000E+02  0.91188000000E+02 0.  0.
    9900012    2    3    3    0    0  0.22573407868E+02  0.98779959824E+01  0.27361371035E+02  0.54367106850E+02  0.40000051686E+02 0.  0.
         12    1    3    3    0    0 -0.22573407868E+02 -0.98779959824E+01 -0.27361371035E+02  0.36820893150E+02  0.00000000000E+00 0. -1.
         11    1    4    4    0    0  0.21397567740E+01 -0.91043033615E+01  0.52895513693E+01  0.10744591788E+02  0.51100000000E-03 0. -1.
        -11    1    4    4    0    0  0.19270681052E+02  0.13060788307E+01  0.15365099597E+02  0.24680990175E+02  0.51100000000E-03 0.  1.
         12    1    4    4    0    0  0.11629700418E+01  0.17676220513E+02  0.67067200692E+01  0.18941524887E+02  0.00000000000E+00 0. -1.
</event>
<event>
 8    1  0.2530183E-006  0.9118800E+02  0.7816164E-02  0.1184000E+00
        -11   -1    0    0    0    0  0.00000000000E+00  0.00000000000E+00  0.45593999997E+02  0.45594000000E+02  0.51100000000E-03 0. -1.
         11   -1    0    0    0    0 -0.00000000000E+00 -0.00000000000E+00 -0.45593999997E+02  0.45594000000E+02  0.51100000000E-03 0.  1.
         23    2    1    2    0    0  0.00000000000E+00  0.00000000000E+00  0.17763568394E-14  0.91188000000E+02  0.91188000000E+02 0.  0.
    9900012    2    3    3    0    0  0.32382169581E+02 -0.13661375602E+02  0.10979153245E+02  0.54367083443E+02  0.39999998325E+02 0.  0.
        -12    1    3    3    0    0 -0.32382169581E+02  0.13661375602E+02 -0.10979153245E+02  0.36820916557E+02  0.00000000000E+00 0.  1.
         11    1    4    4    0    0  0.18157315090E+02 -0.15659469590E+02  0.90747714001E+01  0.25637054343E+02  0.51100000000E-03 0. -1.
        -11    1    4    4    0    0  0.14875482771E+02  0.10987717842E+02  0.50720853686E+01  0.19176443396E+02  0.51100000000E-03 0.  1.
        -12    1    4    4    0    0 -0.65062828092E+00 -0.89896238545E+01 -0.31677035234E+01  0.95535857047E+01  0.00000000000E+00 0.  1.
</event>
<event>
 8    1  0.2530183E-006  0.9118800E+02  0.7816164E-02  0.1184000E+00
        -11   -1    0    0    0    0  0.00000000000E+00  0.00000000000E+00  0.45593999997E+02  0.45594000000E+02  0.51100000000E-03 0. -1.
         11   -1    0    0    0    0 -0.00000000000E+00 -0.00000000000E+00 -0.45593999997E+02  0.45594000000E+02  0.51100000000E-03 0.  1.
         23    2    1    2    0    0  0.35527136788E-14 -0.17763568394E-14 -0.35527136788E-14  0.91188000000E+02  0.91188000000E+02 0.  0.
    9900012    2    3    3    0    0 -0.21811997104E+02 -0.14980280041E+02  0.25604849238E+02  0.54367077792E+02  0.39999985443E+02 0.  0.
        -12    1    3    3    0    0  0.21811997104E+02  0.14980280041E+02 -0.25604849238E+02  0.36820922208E+02  0.00000000000E+00 0.  1.
         11    1    4    4    0    0 -0.19056695583E+02 -0.16843599276E+01  0.16108998699E+02  0.25009889129E+02  0.51100000000E-03 0. -1.
        -11    1    4    4    0    0  0.28475964309E+01  0.28283221294E+01  0.11490322621E+02  0.12171102074E+02  0.51100000000E-03 0.  1.
         12    1    4    4    0    0 -0.56028979513E+01 -0.16124242242E+02 -0.19944720822E+01  0.17186086589E+02  0.00000000000E+00 0. -1.
</event>
<event>
 8    1  0.2530183E-006  0.9118800E+02  0.7816164E-02  0.1184000E+00
        -11   -1    0    0    0    0  0.00000000000E+00  0.00000000000E+00  0.45593999997E+02  0.45594000000E+02  0.51100000000E-03 0. -1.
         11   -1    0    0    0    0 -0.00000000000E+00 -0.00000000000E+00 -0.45593999997E+02  0.45594000000E+02  0.51100000000E-03 0.  1.
         23    2    1    2    0    0 -0.35527136788E-14  0.35527136788E-14  0.00000000000E+00  0.91188000000E+02  0.91188000000E+02 0.  0.
    9900012    2    3    3    0    0  0.57709346899E+01 -0.26667317182E+02  0.24725103438E+02  0.54367078869E+02  0.39999987898E+02 0.  0.
        -12    1    3    3    0    0 -0.57709346899E+01  0.26667317182E+02 -0.24725103438E+02  0.36820921131E+02  0.00000000000E+00 0.  1.
         11    1    4    4    0    0 -0.79637632140E+01 -0.22578664778E+02  0.24860200646E+02  0.34514449208E+02  0.51100000000E-03 0. -1.
        -11    1    4    4    0    0  0.14971162552E+02 -0.37690690666E+00  0.24337388215E+01  0.15172371334E+02  0.51100000000E-03 0.  1.
        -12    1    4    4    0    0 -0.12364646484E+01 -0.37117454973E+01 -0.25688360295E+01  0.46802583273E+01  0.00000000000E+00 0.  1.
</event>
<event>
 8    1  0.2530183E-006  0.9118800E+02  0.7816164E-02  0.1184000E+00
        -11   -1    0    0    0    0  0.00000000000E+00  0.00000000000E+00  0.45593999997E+02  0.45594000000E+02  0.51100000000E-03 0. -1.
         11   -1    0    0    0    0 -0.00000000000E+00 -0.00000000000E+00 -0.45593999997E+02  0.45594000000E+02  0.51100000000E-03 0.  1.
         23    2    1    2    0    0 -0.44408920985E-15 -0.13322676296E-14 -0.71054273576E-14  0.91188000000E+02  0.91188000000E+02 0.  0.
    9900012    2    3    3    0    0  0.31967305398E+01 -0.26630989523E+01  0.36585099751E+02  0.54367072446E+02  0.39999973255E+02 0.  0.
        -12    1    3    3    0    0 -0.31967305398E+01  0.26630989523E+01 -0.36585099751E+02  0.36820927554E+02  0.00000000000E+00 0.  1.
         11    1    4    4    0    0  0.25470593264E+01 -0.10426815343E+02  0.94224749013E+01  0.14282472578E+02  0.51100000000E-03 0. -1.
        -11    1    4    4    0    0  0.68755402693E+01 -0.86614045165E+01  0.15341890495E+02  0.18912075149E+02  0.51100000000E-03 0.  1.
        -12    1    4    4    0    0 -0.62258690559E+01  0.16425120907E+02  0.11820734354E+02  0.21172524719E+02  0.00000000000E+00 0.  1.
</event>
<event>
 8    1  0.2530183E-006  0.9118800E+02  0.7816164E-02  0.1184000E+00
        -11   -1    0    0    0    0  0.00000000000E+00  0.00000000000E+00  0.45593999997E+02  0.45594000000E+02  0.51100000000E-03 0. -1.
         11   -1    0    0    0    0 -0.00000000000E+00 -0.00000000000E+00 -0.45593999997E+02  0.45594000000E+02  0.51100000000E-03 0.  1.
         23    2    1    2    0    0  0.00000000000E+00  0.00000000000E+00  0.00000000000E+00  0.91188000000E+02  0.91188000000E+02 0.  0.
    9900012    2    3    3    0    0  0.16732181603E+02  0.27279427051E+02  0.18211297588E+02  0.54367022266E+02  0.39999858860E+02 0.  0.
        -12    1    3    3    0    0 -0.16732181603E+02 -0.27279427051E+02 -0.18211297588E+02  0.36820977734E+02  0.00000000000E+00 0.  1.
         11    1    4    4    0    0  0.13454507589E+02  0.14692883486E+02  0.18172515369E+02  0.26965624686E+02  0.51100000000E-03 0. -1.
        -11    1    4    4    0    0 -0.97424214600E+01  0.82935439995E+01  0.34943208537E+01  0.13263028556E+02  0.51100000000E-03 0.  1.
         12    1    4    4    0    0  0.13020095474E+02  0.42929995660E+01 -0.34555386349E+01  0.14138369024E+02  0.00000000000E+00 0. -1.
</event>
<event>
 8    1  0.2530183E-006  0.9118800E+02  0.7816164E-02  0.1184000E+00
        -11   -1    0    0    0    0  0.00000000000E+00  0.00000000000E+00  0.45593999997E+02  0.45594000000E+02  0.51100000000E-03 0.  1.
         11   -1    0    0    0    0 -0.00000000000E+00 -0.00000000000E+00 -0.45593999997E+02  0.45594000000E+02  0.51100000000E-03 0. -1.
         23    2    1    2    0    0  0.00000000000E+00  0.00000000000E+00  0.00000000000E+00  0.91188000000E+02  0.91188000000E+02 0.  0.
    9900012    2    3    3    0    0 -0.20654156124E+02 -0.15836144770E+02  0.26046179894E+02  0.54367066641E+02  0.39999960021E+02 0.  0.
         12    1    3    3    0    0  0.20654156124E+02  0.15836144770E+02 -0.26046179894E+02  0.36820933359E+02  0.00000000000E+00 0. -1.
         11    1    4    4    0    0  0.36643187326E+01 -0.29584038545E+01 -0.30991722476E+01  0.56377525684E+01  0.51100000000E-03 0. -1.
        -11    1    4    4    0    0 -0.25612183106E+01 -0.16126097476E+02  0.17122215517E+02  0.23659694071E+02  0.51100000000E-03 0.  1.
         12    1    4    4    0    0 -0.21757256546E+02  0.32483565602E+01  0.12023136624E+02  0.25069620002E+02  0.00000000000E+00 0. -1.
</event>
<event>
 8    1  0.2530183E-006  0.9118800E+02  0.7816164E-02  0.1184000E+00
        -11   -1    0    0    0    0  0.00000000000E+00  0.00000000000E+00  0.45593999997E+02  0.45594000000E+02  0.51100000000E-03 0. -1.
         11   -1    0    0    0    0 -0.00000000000E+00 -0.00000000000E+00 -0.45593999997E+02  0.45594000000E+02  0.51100000000E-03 0.  1.
         23    2    1    2    0    0  0.00000000000E+00  0.17763568394E-14  0.00000000000E+00  0.91188000000E+02  0.91188000000E+02 0.  0.
    9900012    2    3    3    0    0  0.24026287787E+02  0.15964479032E+02 -0.22883436446E+02  0.54367098882E+02  0.40000033521E+02 0.  0.
         12    1    3    3    0    0 -0.24026287787E+02 -0.15964479032E+02  0.22883436446E+02  0.36820901118E+02  0.00000000000E+00 0. -1.
         11    1    4    4    0    0  0.14740865188E+02  0.10696369004E+02 -0.22073582383E+02  0.28617275479E+02  0.51100000000E-03 0. -1.
        -11    1    4    4    0    0  0.11008571151E+02  0.10810762622E+02 -0.72776337860E+01  0.17059460162E+02  0.51100000000E-03 0.  1.
         12    1    4    4    0    0 -0.17231485521E+01 -0.55426525934E+01  0.64677797230E+01  0.86903632403E+01  0.00000000000E+00 0. -1.
</event>
<event>
 8    1  0.2530183E-006  0.9118800E+02  0.7816164E-02  0.1184000E+00
        -11   -1    0    0    0    0  0.00000000000E+00  0.00000000000E+00  0.45593999997E+02  0.45594000000E+02  0.51100000000E-03 0. -1.
         11   -1    0    0    0    0 -0.00000000000E+00 -0.00000000000E+00 -0.45593999997E+02  0.45594000000E+02  0.51100000000E-03 0.  1.
         23    2    1    2    0    0 -0.35527136788E-14 -0.44408920985E-15  0.00000000000E+00  0.91188000000E+02  0.91188000000E+02 0.  0.
    9900012    2    3    3    0    0 -0.18580551819E+02 -0.15596406463E+01  0.31751049915E+02  0.54366830062E+02  0.39999420689E+02 0.  0.
        -12    1    3    3    0    0  0.18580551819E+02  0.15596406463E+01 -0.31751049915E+02  0.36821169938E+02  0.00000000000E+00 0.  1.
         11    1    4    4    0    0 -0.33594373050E+01  0.10880058178E+02  0.64591417551E+01  0.13091294719E+02  0.51100000000E-03 0. -1.
        -11    1    4    4    0    0 -0.16734234455E+02  0.19134482479E+01  0.76973972080E+01  0.18518796155E+02  0.51100000000E-03 0.  1.
         12    1    4    4    0    0  0.15131199406E+01 -0.14353147072E+02  0.17594510952E+02  0.22756739188E+02  0.00000000000E+00 0. -1.
</event>
<event>
 8    1  0.2530183E-006  0.9118800E+02  0.7816164E-02  0.1184000E+00
        -11   -1    0    0    0    0  0.00000000000E+00  0.00000000000E+00  0.45593999997E+02  0.45594000000E+02  0.51100000000E-03 0. -1.
         11   -1    0    0    0    0 -0.00000000000E+00 -0.00000000000E+00 -0.45593999997E+02  0.45594000000E+02  0.51100000000E-03 0.  1.
         23    2    1    2    0    0  0.00000000000E+00  0.00000000000E+00 -0.35527136788E-14  0.91188000000E+02  0.91188000000E+02 0.  0.
    9900012    2    3    3    0    0  0.10373346319E+02  0.26995920999E+02  0.22790181443E+02  0.54367103289E+02  0.40000043567E+02 0.  0.
        -12    1    3    3    0    0 -0.10373346319E+02 -0.26995920999E+02 -0.22790181443E+02  0.36820896711E+02  0.00000000000E+00 0.  1.
         11    1    4    4    0    0 -0.21880659542E+01  0.15865736401E+02  0.21018726716E+02  0.26425292755E+02  0.51100000000E-03 0. -1.
        -11    1    4    4    0    0 -0.12071383503E+01  0.53470282934E+01 -0.82874414234E+01  0.99362759712E+01  0.51100000000E-03 0.  1.
        -12    1    4    4    0    0  0.13768550624E+02  0.57831563046E+01  0.10058896150E+02  0.18005534562E+02  0.00000000000E+00 0.  1.
</event>
<event>
 8    1  0.2530183E-006  0.9118800E+02  0.7816164E-02  0.1184000E+00
        -11   -1    0    0    0    0  0.00000000000E+00  0.00000000000E+00  0.45593999997E+02  0.45594000000E+02  0.51100000000E-03 0. -1.
         11   -1    0    0    0    0 -0.00000000000E+00 -0.00000000000E+00 -0.45593999997E+02  0.45594000000E+02  0.51100000000E-03 0.  1.
         23    2    1    2    0    0  0.66613381478E-15  0.00000000000E+00  0.00000000000E+00  0.91188000000E+02  0.91188000000E+02 0.  0.
    9900012    2    3    3    0    0 -0.16573019914E+01  0.16723580763E+02  0.32762097872E+02  0.54367083928E+02  0.39999999431E+02 0.  0.
        -12    1    3    3    0    0  0.16573019914E+01 -0.16723580763E+02 -0.32762097872E+02  0.36820916072E+02  0.00000000000E+00 0.  1.
         11    1    4    4    0    0 -0.23462766419E+01  0.52603318757E+01  0.27301913481E+02  0.27902877728E+02  0.51100000000E-03 0. -1.
        -11    1    4    4    0    0 -0.84523482083E+01  0.12184394808E+02  0.81329319476E+01  0.16912901862E+02  0.51100000000E-03 0.  1.
        -12    1    4    4    0    0  0.91413228589E+01 -0.72114592159E+00 -0.26727475566E+01  0.95513043377E+01  0.00000000000E+00 0.  1.
</event>
<event>
 8    1  0.2530183E-006  0.9118800E+02  0.7816164E-02  0.1184000E+00
        -11   -1    0    0    0    0  0.00000000000E+00  0.00000000000E+00  0.45593999997E+02  0.45594000000E+02  0.51100000000E-03 0. -1.
         11   -1    0    0    0    0 -0.00000000000E+00 -0.00000000000E+00 -0.45593999997E+02  0.45594000000E+02  0.51100000000E-03 0.  1.
         23    2    1    2    0    0  0.22204460493E-14  0.13322676296E-14  0.00000000000E+00  0.91188000000E+02  0.91188000000E+02 0.  0.
    9900012    2    3    3    0    0  0.26747540485E+01  0.28981836103E+01  0.36609110372E+02  0.54367071988E+02  0.39999972211E+02 0.  0.
        -12    1    3    3    0    0 -0.26747540485E+01 -0.28981836103E+01 -0.36609110372E+02  0.36820928012E+02  0.00000000000E+00 0.  1.
         11    1    4    4    0    0 -0.64390231753E+01 -0.11337851737E+02  0.13662998678E+02  0.18886117509E+02  0.51100000000E-03 0. -1.
        -11    1    4    4    0    0  0.61958343544E+01 -0.46820581433E+01  0.83962907960E+01  0.11437120756E+02  0.51100000000E-03 0.  1.
         12    1    4    4    0    0  0.29179428694E+01  0.18918093490E+02  0.14549820898E+02  0.24043833722E+02  0.00000000000E+00 0. -1.
</event>
<event>
 8    1  0.2530183E-006  0.9118800E+02  0.7816164E-02  0.1184000E+00
        -11   -1    0    0    0    0  0.00000000000E+00  0.00000000000E+00  0.45593999997E+02  0.45594000000E+02  0.51100000000E-03 0.  1.
         11   -1    0    0    0    0 -0.00000000000E+00 -0.00000000000E+00 -0.45593999997E+02  0.45594000000E+02  0.51100000000E-03 0. -1.
         23    2    1    2    0    0  0.00000000000E+00  0.17763568394E-14  0.71054273576E-14  0.91188000000E+02  0.91188000000E+02 0.  0.
    9900012    2    3    3    0    0  0.48038888519E+01 -0.11097625710E+02  0.34778528032E+02  0.54367073117E+02  0.39999974784E+02 0.  0.
         12    1    3    3    0    0 -0.48038888519E+01  0.11097625710E+02 -0.34778528032E+02  0.36820926883E+02  0.00000000000E+00 0. -1.
         11    1    4    4    0    0  0.59427047852E+01 -0.21055088222E+02  0.47079233514E+01  0.22378494649E+02  0.51100000000E-03 0. -1.
        -11    1    4    4    0    0 -0.13267913421E+01  0.92176822861E+01  0.22106553946E+02  0.23988033884E+02  0.51100000000E-03 0.  1.
         12    1    4    4    0    0  0.18797540878E+00  0.73978022624E+00  0.79640507339E+01  0.80005445833E+01  0.00000000000E+00 0. -1.
</event>
<event>
 8    1  0.2530183E-006  0.9118800E+02  0.7816164E-02  0.1184000E+00
        -11   -1    0    0    0    0  0.00000000000E+00  0.00000000000E+00  0.45593999997E+02  0.45594000000E+02  0.51100000000E-03 0. -1.
         11   -1    0    0    0    0 -0.00000000000E+00 -0.00000000000E+00 -0.45593999997E+02  0.45594000000E+02  0.51100000000E-03 0.  1.
         23    2    1    2    0    0 -0.35527136788E-14 -0.17763568394E-14  0.00000000000E+00  0.91188000000E+02  0.91188000000E+02 0.  0.
    9900012    2    3    3    0    0  0.19769513546E+02  0.84983341193E+01 -0.29878502485E+02  0.54367078510E+02  0.39999987079E+02 0.  0.
         12    1    3    3    0    0 -0.19769513546E+02 -0.84983341193E+01  0.29878502485E+02  0.36820921490E+02  0.00000000000E+00 0. -1.
         11    1    4    4    0    0  0.18416856107E+01  0.68190441333E+01 -0.59766998106E+01  0.92526812151E+01  0.51100000000E-03 0. -1.
        -11    1    4    4    0    0  0.17118570610E+02  0.14442107504E+02 -0.61318160823E+01  0.23221091654E+02  0.51100000000E-03 0.  1.
         12    1    4    4    0    0  0.80925732572E+00 -0.12762817518E+02 -0.17769986592E+02  0.21893305641E+02  0.00000000000E+00 0. -1.
</event>
<event>
 8    1  0.2530183E-006  0.9118800E+02  0.7816164E-02  0.1184000E+00
        -11   -1    0    0    0    0  0.00000000000E+00  0.00000000000E+00  0.45593999997E+02  0.45594000000E+02  0.51100000000E-03 0. -1.
         11   -1    0    0    0    0 -0.00000000000E+00 -0.00000000000E+00 -0.45593999997E+02  0.45594000000E+02  0.51100000000E-03 0.  1.
         23    2    1    2    0    0  0.00000000000E+00 -0.17763568394E-14  0.00000000000E+00  0.91188000000E+02  0.91188000000E+02 0.  0.
    9900012    2    3    3    0    0  0.85079994293E+01 -0.15308608042E+02  0.32388887450E+02  0.54367087942E+02  0.40000008582E+02 0.  0.
        -12    1    3    3    0    0 -0.85079994293E+01  0.15308608042E+02 -0.32388887450E+02  0.36820912058E+02  0.00000000000E+00 0.  1.
         11    1    4    4    0    0 -0.34145815620E+00 -0.49256404633E+01  0.14137655242E+02  0.14975040021E+02  0.51100000000E-03 0. -1.
        -11    1    4    4    0    0  0.22310944459E+01  0.63027990717E+01  0.20255147255E+02  0.21330120701E+02  0.51100000000E-03 0.  1.
        -12    1    4    4    0    0  0.66183631396E+01 -0.16685766651E+02 -0.20039150460E+01  0.18061927220E+02  0.00000000000E+00 0.  1.
</event>
<event>
 8    1  0.2530183E-006  0.9118800E+02  0.7816164E-02  0.1184000E+00
        -11   -1    0    0    0    0  0.00000000000E+00  0.00000000000E+00  0.45593999997E+02  0.45594000000E+02  0.51100000000E-03 0. -1.
         11   -1    0    0    0    0 -0.00000000000E+00 -0.00000000000E+00 -0.45593999997E+02  0.45594000000E+02  0.51100000000E-03 0.  1.
         23    2    1    2    0    0  0.00000000000E+00 -0.71054273576E-14  0.00000000000E+00  0.91188000000E+02  0.91188000000E+02 0.  0.
    9900012    2    3    3    0    0 -0.19692515305E+02 -0.16401133330E+02  0.26438300278E+02  0.54367135601E+02  0.40000117229E+02 0.  0.
         12    1    3    3    0    0  0.19692515305E+02  0.16401133330E+02 -0.26438300278E+02  0.36820864399E+02  0.00000000000E+00 0. -1.
         11    1    4    4    0    0 -0.49537310103E+01 -0.16252986393E+02  0.22198320386E+02  0.27954685579E+02  0.51100000000E-03 0. -1.
        -11    1    4    4    0    0 -0.12708029780E+02  0.10525620475E+01 -0.72596943463E+01  0.14673277412E+02  0.51100000000E-03 0.  1.
        -12    1    4    4    0    0 -0.20307545141E+01 -0.12007089847E+01  0.11499674239E+02  0.11739172610E+02  0.00000000000E+00 0.  1.
</event>
<event>
 8    1  0.2530183E-006  0.9118800E+02  0.7816164E-02  0.1184000E+00
        -11   -1    0    0    0    0  0.00000000000E+00  0.00000000000E+00  0.45593999997E+02  0.45594000000E+02  0.51100000000E-03 0.  1.
         11   -1    0    0    0    0 -0.00000000000E+00 -0.00000000000E+00 -0.45593999997E+02  0.45594000000E+02  0.51100000000E-03 0. -1.
         23    2    1    2    0    0  0.00000000000E+00 -0.35527136788E-14 -0.44408920985E-15  0.91188000000E+02  0.91188000000E+02 0.  0.
    9900012    2    3    3    0    0 -0.17943720366E+02 -0.31930501027E+02 -0.37747687076E+01  0.54367042989E+02  0.39999906101E+02 0.  0.
        -12    1    3    3    0    0  0.17943720366E+02  0.31930501027E+02  0.37747687076E+01  0.36820957011E+02  0.00000000000E+00 0.  1.
         11    1    4    4    0    0 -0.19596441740E+02 -0.18115976457E+02 -0.60273472005E+01  0.27359423356E+02  0.51100000000E-03 0. -1.
        -11    1    4    4    0    0 -0.13587859629E+01  0.53484825558E+01 -0.37848401483E+01  0.66916051999E+01  0.51100000000E-03 0.  1.
         12    1    4    4    0    0  0.30115073370E+01 -0.19163007126E+02  0.60374186413E+01  0.20316014432E+02  0.00000000000E+00 0. -1.
</event>
<event>
 8    1  0.2530183E-006  0.9118800E+02  0.7816164E-02  0.1184000E+00
        -11   -1    0    0    0    0  0.00000000000E+00  0.00000000000E+00  0.45593999997E+02  0.45594000000E+02  0.51100000000E-03 0. -1.
         11   -1    0    0    0    0 -0.00000000000E+00 -0.00000000000E+00 -0.45593999997E+02  0.45594000000E+02  0.51100000000E-03 0.  1.
         23    2    1    2    0    0  0.17763568394E-14  0.00000000000E+00  0.35527136788E-14  0.91188000000E+02  0.91188000000E+02 0.  0.
    9900012    2    3    3    0    0 -0.76314577603E+01 -0.25720689153E+02  0.25218719737E+02  0.54367125170E+02  0.40000093451E+02 0.  0.
        -12    1    3    3    0    0  0.76314577603E+01  0.25720689153E+02 -0.25218719737E+02  0.36820874830E+02  0.00000000000E+00 0.  1.
         11    1    4    4    0    0 -0.16333810848E+02 -0.18430046788E+02  0.21164584553E+02  0.32471520460E+02  0.51100000000E-03 0. -1.
        -11    1    4    4    0    0  0.42642564684E+01  0.59128936213E+01  0.31356173766E+01  0.79358862642E+01  0.51100000000E-03 0.  1.
        -12    1    4    4    0    0  0.44380966190E+01 -0.13203535986E+02  0.91851780764E+00  0.13959718446E+02  0.00000000000E+00 0.  1.
</event>
<event>
 8    1  0.2530183E-006  0.9118800E+02  0.7816164E-02  0.1184000E+00
        -11   -1    0    0    0    0  0.00000000000E+00  0.00000000000E+00  0.45593999997E+02  0.45594000000E+02  0.51100000000E-03 0. -1.
         11   -1    0    0    0    0 -0.00000000000E+00 -0.00000000000E+00 -0.45593999997E+02  0.45594000000E+02  0.51100000000E-03 0.  1.
         23    2    1    2    0    0 -0.16653345369E-15  0.71054273576E-14 -0.35527136788E-14  0.91188000000E+02  0.91188000000E+02 0.  0.
    9900012    2    3    3    0    0 -0.28574598437E+00 -0.30850000852E+02  0.20099165719E+02  0.54367072989E+02  0.39999974492E+02 0.  0.
        -12    1    3    3    0    0  0.28574598437E+00  0.30850000852E+02 -0.20099165719E+02  0.36820927011E+02  0.00000000000E+00 0.  1.
         11    1    4    4    0    0 -0.14727617672E+01  0.37157428503E+01 -0.42412181182E+01  0.58278386680E+01  0.51100000000E-03 0. -1.
        -11    1    4    4    0    0  0.25975727087E+01 -0.92117035419E+01 -0.41000242466E+01  0.10412159488E+02  0.51100000000E-03 0.  1.
        -12    1    4    4    0    0 -0.14105569259E+01 -0.25354040161E+02  0.28440408084E+02  0.38127074833E+02  0.00000000000E+00 0.  1.
</event>
<event>
 8    1  0.2530183E-006  0.9118800E+02  0.7816164E-02  0.1184000E+00
        -11   -1    0    0    0    0  0.00000000000E+00  0.00000000000E+00  0.45593999997E+02  0.45594000000E+02  0.51100000000E-03 0.  1.
         11   -1    0    0    0    0 -0.00000000000E+00 -0.00000000000E+00 -0.45593999997E+02  0.45594000000E+02  0.51100000000E-03 0. -1.
         23    2    1    2    0    0 -0.35527136788E-14  0.00000000000E+00 -0.88817841970E-15  0.91188000000E+02  0.91188000000E+02 0.  0.
    9900012    2    3    3    0    0  0.26825501299E+02  0.24182059040E+02  0.71699143397E+01  0.54366984656E+02  0.39999773119E+02 0.  0.
         12    1    3    3    0    0 -0.26825501299E+02 -0.24182059040E+02 -0.71699143397E+01  0.36821015344E+02  0.00000000000E+00 0. -1.
         11    1    4    4    0    0  0.48452386136E+01  0.10204922832E+02  0.63746955359E+01  0.12971257868E+02  0.51100000000E-03 0. -1.
        -11    1    4    4    0    0  0.18357573042E+02 -0.66600494825E+01  0.46910223627E+01  0.20083885036E+02  0.51100000000E-03 0.  1.
         12    1    4    4    0    0  0.36226896434E+01  0.20637185691E+02 -0.38958035589E+01  0.21311841752E+02  0.00000000000E+00 0. -1.
</event>
<event>
 8    1  0.2530183E-006  0.9118800E+02  0.7816164E-02  0.1184000E+00
        -11   -1    0    0    0    0  0.00000000000E+00  0.00000000000E+00  0.45593999997E+02  0.45594000000E+02  0.51100000000E-03 0.  1.
         11   -1    0    0    0    0 -0.00000000000E+00 -0.00000000000E+00 -0.45593999997E+02  0.45594000000E+02  0.51100000000E-03 0. -1.
         23    2    1    2    0    0  0.17763568394E-14 -0.44408920985E-15 -0.71054273576E-14  0.91188000000E+02  0.91188000000E+02 0.  0.
    9900012    2    3    3    0    0  0.10051502566E+02 -0.21771077250E+01 -0.35355437005E+02  0.54367089804E+02  0.40000012825E+02 0.  0.
        -12    1    3    3    0    0 -0.10051502566E+02  0.21771077250E+01  0.35355437005E+02  0.36820910196E+02  0.00000000000E+00 0.  1.
         11    1    4    4    0    0  0.15736171703E+01  0.31194635625E+01 -0.26479413306E+01  0.43839385794E+01  0.51100000000E-03 0. -1.
        -11    1    4    4    0    0 -0.35878329998E+01  0.14029967080E+02 -0.16883785642E+02  0.22243532538E+02  0.51100000000E-03 0.  1.
         12    1    4    4    0    0  0.12065718395E+02 -0.19326538368E+02 -0.15823710033E+02  0.27739618687E+02  0.00000000000E+00 0. -1.
</event>
<event>
 8    1  0.2530183E-006  0.9118800E+02  0.7816164E-02  0.1184000E+00
        -11   -1    0    0    0    0  0.00000000000E+00  0.00000000000E+00  0.45593999997E+02  0.45594000000E+02  0.51100000000E-03 0.  1.
         11   -1    0    0    0    0 -0.00000000000E+00 -0.00000000000E+00 -0.45593999997E+02  0.45594000000E+02  0.51100000000E-03 0. -1.
         23    2    1    2    0    0  0.00000000000E+00  0.00000000000E+00 -0.17763568394E-14  0.91188000000E+02  0.91188000000E+02 0.  0.
    9900012    2    3    3    0    0  0.20909573924E+02 -0.26027113138E+02  0.15529309272E+02  0.54367077327E+02  0.39999984383E+02 0.  0.
         12    1    3    3    0    0 -0.20909573924E+02  0.26027113138E+02 -0.15529309272E+02  0.36820922673E+02  0.00000000000E+00 0. -1.
         11    1    4    4    0    0  0.82397020582E+01 -0.72867022879E+00  0.19176592401E+02  0.20884571977E+02  0.51100000000E-03 0. -1.
        -11    1    4    4    0    0  0.74161740154E+01 -0.26064150538E+01  0.41890465704E+01  0.89073648117E+01  0.51100000000E-03 0.  1.
         12    1    4    4    0    0  0.52536978507E+01 -0.22692027856E+02 -0.78363296997E+01  0.24575140538E+02  0.00000000000E+00 0. -1.
</event>
<event>
 8    1  0.2530183E-006  0.9118800E+02  0.7816164E-02  0.1184000E+00
        -11   -1    0    0    0    0  0.00000000000E+00  0.00000000000E+00  0.45593999997E+02  0.45594000000E+02  0.51100000000E-03 0. -1.
         11   -1    0    0    0    0 -0.00000000000E+00 -0.00000000000E+00 -0.45593999997E+02  0.45594000000E+02  0.51100000000E-03 0.  1.
         23    2    1    2    0    0  0.88817841970E-15 -0.35527136788E-14  0.00000000000E+00  0.91188000000E+02  0.91188000000E+02 0.  0.
    9900012    2    3    3    0    0 -0.68542353475E+01  0.25517787118E+02  0.25644550525E+02  0.54367068816E+02  0.39999964981E+02 0.  0.
        -12    1    3    3    0    0  0.68542353475E+01 -0.25517787118E+02 -0.25644550525E+02  0.36820931184E+02  0.00000000000E+00 0.  1.
         11    1    4    4    0    0 -0.11504180772E+01 -0.18823358910E+01 -0.26028836415E+01  0.34119867630E+01  0.51100000000E-03 0. -1.
        -11    1    4    4    0    0 -0.98340838455E+01 -0.34547010178E+01  0.11810009339E+02  0.15751840687E+02  0.51100000000E-03 0.  1.
         12    1    4    4    0    0  0.41302665752E+01  0.30854824027E+02  0.16437424828E+02  0.35203241366E+02  0.00000000000E+00 0. -1.
</event>
<event>
 8    1  0.2530183E-006  0.9118800E+02  0.7816164E-02  0.1184000E+00
        -11   -1    0    0    0    0  0.00000000000E+00  0.00000000000E+00  0.45593999997E+02  0.45594000000E+02  0.51100000000E-03 0. -1.
         11   -1    0    0    0    0 -0.00000000000E+00 -0.00000000000E+00 -0.45593999997E+02  0.45594000000E+02  0.51100000000E-03 0.  1.
         23    2    1    2    0    0  0.88817841970E-15  0.00000000000E+00 -0.35527136788E-14  0.91188000000E+02  0.91188000000E+02 0.  0.
    9900012    2    3    3    0    0 -0.35798166763E+01  0.20187637412E+02  0.30584729665E+02  0.54367061929E+02  0.39999949280E+02 0.  0.
        -12    1    3    3    0    0  0.35798166763E+01 -0.20187637412E+02 -0.30584729665E+02  0.36820938071E+02  0.00000000000E+00 0.  1.
         11    1    4    4    0    0  0.96836840110E+01 -0.64340042412E+00 -0.16536723523E+00  0.97064435667E+01  0.51100000000E-03 0.  1.
        -11    1    4    4    0    0 -0.19257119625E+01 -0.21241714888E+01 -0.16949211963E+01  0.33306499665E+01  0.51100000000E-03 0. -1.
         12    1    4    4    0    0 -0.11337788725E+02  0.22955209325E+02  0.32445018097E+02  0.41329968396E+02  0.00000000000E+00 0. -1.
</event>
<event>
 8    1  0.2530183E-006  0.9118800E+02  0.7816164E-02  0.1184000E+00
        -11   -1    0    0    0    0  0.00000000000E+00  0.00000000000E+00  0.45593999997E+02  0.45594000000E+02  0.51100000000E-03 0.  1.
         11   -1    0    0    0    0 -0.00000000000E+00 -0.00000000000E+00 -0.45593999997E+02  0.45594000000E+02  0.51100000000E-03 0. -1.
         23    2    1    2    0    0 -0.17763568394E-14  0.17763568394E-14  0.00000000000E+00  0.91188000000E+02  0.91188000000E+02 0.  0.
    9900012    2    3    3    0    0  0.10839719015E+02 -0.11133494937E+02  0.33381506732E+02  0.54367092766E+02  0.40000019579E+02 0.  0.
         12    1    3    3    0    0 -0.10839719015E+02  0.11133494937E+02 -0.33381506732E+02  0.36820907234E+02  0.00000000000E+00 0. -1.
         11    1    4    4    0    0  0.12771486694E+02  0.16222084856E+01  0.14404370505E+02  0.19319118060E+02  0.51100000000E-03 0.  1.
        -11    1    4    4    0    0  0.91325872642E+01  0.16215867959E+01  0.12954129908E+02  0.15932456679E+02  0.51100000000E-03 0. -1.
         12    1    4    4    0    0 -0.11064354942E+02 -0.14377290219E+02  0.60230063186E+01  0.19115518027E+02  0.00000000000E+00 0. -1.
</event>
<event>
 8    1  0.2530183E-006  0.9118800E+02  0.7816164E-02  0.1184000E+00
        -11   -1    0    0    0    0  0.00000000000E+00  0.00000000000E+00  0.45593999997E+02  0.45594000000E+02  0.51100000000E-03 0.  1.
         11   -1    0    0    0    0 -0.00000000000E+00 -0.00000000000E+00 -0.45593999997E+02  0.45594000000E+02  0.51100000000E-03 0. -1.
         23    2    1    2    0    0  0.17763568394E-14  0.00000000000E+00  0.00000000000E+00  0.91188000000E+02  0.91188000000E+02 0.  0.
    9900012    2    3    3    0    0  0.14001938162E+02 -0.86743427131E+01 -0.32931496108E+02  0.54367055828E+02  0.39999935370E+02 0.  0.
        -12    1    3    3    0    0 -0.14001938162E+02  0.86743427131E+01  0.32931496108E+02  0.36820944172E+02  0.00000000000E+00 0.  1.
         11    1    4    4    0    0 -0.29598523915E+01 -0.41526248066E+01 -0.13629780190E+02  0.14552523055E+02  0.51100000000E-03 0. -1.
        -11    1    4    4    0    0  0.17015012463E+02 -0.14904524263E+02 -0.69180528556E+01  0.23654068322E+02  0.51100000000E-03 0.  1.
        -12    1    4    4    0    0 -0.53221909473E-01  0.10382806356E+02 -0.12383663063E+02  0.16160464450E+02  0.00000000000E+00 0.  1.
</event>
<event>
 8    1  0.2530183E-006  0.9118800E+02  0.7816164E-02  0.1184000E+00
        -11   -1    0    0    0    0  0.00000000000E+00  0.00000000000E+00  0.45593999997E+02  0.45594000000E+02  0.51100000000E-03 0. -1.
         11   -1    0    0    0    0 -0.00000000000E+00 -0.00000000000E+00 -0.45593999997E+02  0.45594000000E+02  0.51100000000E-03 0.  1.
         23    2    1    2    0    0  0.00000000000E+00  0.00000000000E+00  0.17763568394E-14  0.91188000000E+02  0.91188000000E+02 0.  0.
    9900012    2    3    3    0    0  0.17325995689E+02  0.28762730605E+02 -0.15109612352E+02  0.54367011639E+02  0.39999834632E+02 0.  0.
         12    1    3    3    0    0 -0.17325995689E+02 -0.28762730605E+02  0.15109612352E+02  0.36820988361E+02  0.00000000000E+00 0. -1.
         11    1    4    4    0    0  0.69850993985E+01  0.23010150548E+02 -0.37557526739E+01  0.24338535705E+02  0.51100000000E-03 0. -1.
        -11    1    4    4    0    0  0.37231357466E+01  0.64327111690E+01  0.71816543739E+01  0.10335263547E+02  0.51100000000E-03 0.  1.
         12    1    4    4    0    0  0.66177605438E+01 -0.68013111191E+00 -0.18535514052E+02  0.19693212387E+02  0.00000000000E+00 0. -1.
</event>
<event>
 8    1  0.2530183E-006  0.9118800E+02  0.7816164E-02  0.1184000E+00
        -11   -1    0    0    0    0  0.00000000000E+00  0.00000000000E+00  0.45593999997E+02  0.45594000000E+02  0.51100000000E-03 0.  1.
         11   -1    0    0    0    0 -0.00000000000E+00 -0.00000000000E+00 -0.45593999997E+02  0.45594000000E+02  0.51100000000E-03 0. -1.
         23    2    1    2    0    0 -0.88817841970E-15  0.00000000000E+00  0.00000000000E+00  0.91188000000E+02  0.91188000000E+02 0.  0.
    9900012    2    3    3    0    0 -0.67712919276E+01  0.25793575120E+02 -0.25389384760E+02  0.54367085150E+02  0.40000002217E+02 0.  0.
        -12    1    3    3    0    0  0.67712919276E+01 -0.25793575120E+02  0.25389384760E+02  0.36820914850E+02  0.00000000000E+00 0.  1.
         11    1    4    4    0    0 -0.28019197819E+01 -0.11196852643E+01 -0.23075462579E+01  0.37985812548E+01  0.51100000000E-03 0. -1.
        -11    1    4    4    0    0  0.10050526478E+02  0.24167293848E+02 -0.24950248989E+02  0.36160559997E+02  0.51100000000E-03 0.  1.
        -12    1    4    4    0    0 -0.14019898623E+02  0.27459665364E+01  0.18684104870E+01  0.14407943898E+02  0.00000000000E+00 0.  1.
</event>
<event>
 8    1  0.2530183E-006  0.9118800E+02  0.7816164E-02  0.1184000E+00
        -11   -1    0    0    0    0  0.00000000000E+00  0.00000000000E+00  0.45593999997E+02  0.45594000000E+02  0.51100000000E-03 0.  1.
         11   -1    0    0    0    0 -0.00000000000E+00 -0.00000000000E+00 -0.45593999997E+02  0.45594000000E+02  0.51100000000E-03 0. -1.
         23    2    1    2    0    0 -0.88817841970E-15 -0.35527136788E-14  0.00000000000E+00  0.91188000000E+02  0.91188000000E+02 0.  0.
    9900012    2    3    3    0    0 -0.68349110399E+01 -0.24242874284E+02  0.26857914328E+02  0.54367074910E+02  0.39999978872E+02 0.  0.
         12    1    3    3    0    0  0.68349110399E+01  0.24242874284E+02 -0.26857914328E+02  0.36820925090E+02  0.00000000000E+00 0. -1.
         11    1    4    4    0    0  0.86601635884E+01 -0.10577729234E+02  0.14700737401E+01  0.13749469305E+02  0.51100000000E-03 0. -1.
        -11    1    4    4    0    0 -0.42860248413E+01 -0.55044238555E+01  0.25819940811E+02  0.26745804058E+02  0.51100000000E-03 0.  1.
        -12    1    4    4    0    0 -0.11209049787E+02 -0.81607211948E+01 -0.43210022392E+00  0.13871801547E+02  0.00000000000E+00 0.  1.
</event>
<event>
 8    1  0.2530183E-006  0.9118800E+02  0.7816164E-02  0.1184000E+00
        -11   -1    0    0    0    0  0.00000000000E+00  0.00000000000E+00  0.45593999997E+02  0.45594000000E+02  0.51100000000E-03 0.  1.
         11   -1    0    0    0    0 -0.00000000000E+00 -0.00000000000E+00 -0.45593999997E+02  0.45594000000E+02  0.51100000000E-03 0. -1.
         23    2    1    2    0    0 -0.17763568394E-14 -0.35527136788E-14  0.35527136788E-14  0.91188000000E+02  0.91188000000E+02 0.  0.
    9900012    2    3    3    0    0 -0.15137735748E+02 -0.16942313611E+02  0.28975619680E+02  0.54367087872E+02  0.40000008423E+02 0.  0.
         12    1    3    3    0    0  0.15137735748E+02  0.16942313611E+02 -0.28975619680E+02  0.36820912128E+02  0.00000000000E+00 0. -1.
         11    1    4    4    0    0  0.77511233560E+01 -0.15736364499E+01  0.15690495866E+00  0.79108068099E+01  0.51100000000E-03 0. -1.
        -11    1    4    4    0    0 -0.11670535886E+02 -0.26592144061E+01  0.26841007754E+02  0.29388986485E+02  0.51100000000E-03 0.  1.
        -12    1    4    4    0    0 -0.11218323218E+02 -0.12709462755E+02  0.19777069679E+01  0.17067294577E+02  0.00000000000E+00 0.  1.
</event>
<event>
 8    1  0.2530183E-006  0.9118800E+02  0.7816164E-02  0.1184000E+00
        -11   -1    0    0    0    0  0.00000000000E+00  0.00000000000E+00  0.45593999997E+02  0.45594000000E+02  0.51100000000E-03 0. -1.
         11   -1    0    0    0    0 -0.00000000000E+00 -0.00000000000E+00 -0.45593999997E+02  0.45594000000E+02  0.51100000000E-03 0.  1.
         23    2    1    2    0    0  0.00000000000E+00 -0.33306690739E-15  0.00000000000E+00  0.91188000000E+02  0.91188000000E+02 0.  0.
    9900012    2    3    3    0    0  0.30499519990E+01  0.32098158407E+00  0.36692969794E+02  0.54367091963E+02  0.40000017747E+02 0.  0.
        -12    1    3    3    0    0 -0.30499519990E+01 -0.32098158407E+00 -0.36692969794E+02  0.36820908037E+02  0.00000000000E+00 0.  1.
         11    1    4    4    0    0  0.12394671466E+02  0.81949628519E+01  0.30809299997E+02  0.34205237369E+02  0.51100000000E-03 0. -1.
        -11    1    4    4    0    0 -0.32805987538E+01 -0.71791876863E+01 -0.37645598648E+01  0.87449971558E+01  0.51100000000E-03 0.  1.
        -12    1    4    4    0    0 -0.60641207133E+01 -0.69479358151E+00  0.96482296621E+01  0.11416857438E+02  0.00000000000E+00 0.  1.
</event>
<event>
 8    1  0.2530183E-006  0.9118800E+02  0.7816164E-02  0.1184000E+00
        -11   -1    0    0    0    0  0.00000000000E+00  0.00000000000E+00  0.45593999997E+02  0.45594000000E+02  0.51100000000E-03 0.  1.
         11   -1    0    0    0    0 -0.00000000000E+00 -0.00000000000E+00 -0.45593999997E+02  0.45594000000E+02  0.51100000000E-03 0. -1.
         23    2    1    2    0    0 -0.17763568394E-14  0.00000000000E+00  0.00000000000E+00  0.91188000000E+02  0.91188000000E+02 0.  0.
    9900012    2    3    3    0    0  0.51141725726E+01 -0.15458120011E+02 -0.33025317259E+02  0.54367084538E+02  0.40000000822E+02 0.  0.
        -12    1    3    3    0    0 -0.51141725726E+01  0.15458120011E+02  0.33025317259E+02  0.36820915462E+02  0.00000000000E+00 0.  1.
         11    1    4    4    0    0 -0.20811120198E+01 -0.10925622293E+02 -0.13794856101E+02  0.17719997315E+02  0.51100000000E-03 0. -1.
        -11    1    4    4    0    0  0.17356989229E+02 -0.94880503395E+01 -0.10742305609E+02  0.22509671353E+02  0.51100000000E-03 0.  1.
        -12    1    4    4    0    0 -0.10161704637E+02  0.49555526208E+01 -0.84881555487E+01  0.14137415871E+02  0.00000000000E+00 0.  1.
</event>
<event>
 8    1  0.2530183E-006  0.9118800E+02  0.7816164E-02  0.1184000E+00
        -11   -1    0    0    0    0  0.00000000000E+00  0.00000000000E+00  0.45593999997E+02  0.45594000000E+02  0.51100000000E-03 0. -1.
         11   -1    0    0    0    0 -0.00000000000E+00 -0.00000000000E+00 -0.45593999997E+02  0.45594000000E+02  0.51100000000E-03 0.  1.
         23    2    1    2    0    0  0.00000000000E+00  0.35527136788E-14  0.00000000000E+00  0.91188000000E+02  0.91188000000E+02 0.  0.
    9900012    2    3    3    0    0  0.21646360435E+02 -0.29202598591E+02  0.58671044734E+01  0.54367087471E+02  0.40000007508E+02 0.  0.
         12    1    3    3    0    0 -0.21646360435E+02  0.29202598591E+02 -0.58671044734E+01  0.36820912529E+02  0.00000000000E+00 0. -1.
         11    1    4    4    0    0  0.10443009594E+02 -0.17401197621E+02  0.52585739849E+01  0.20964511171E+02  0.51100000000E-03 0. -1.
        -11    1    4    4    0    0  0.18941520642E+02 -0.82638552574E+01  0.79722133501E+01  0.22150139817E+02  0.51100000000E-03 0.  1.
         12    1    4    4    0    0 -0.77381698005E+01 -0.35375457122E+01 -0.73636828615E+01  0.11252436483E+02  0.00000000000E+00 0. -1.
</event>
<event>
 8    1  0.2530183E-006  0.9118800E+02  0.7816164E-02  0.1184000E+00
        -11   -1    0    0    0    0  0.00000000000E+00  0.00000000000E+00  0.45593999997E+02  0.45594000000E+02  0.51100000000E-03 0. -1.
         11   -1    0    0    0    0 -0.00000000000E+00 -0.00000000000E+00 -0.45593999997E+02  0.45594000000E+02  0.51100000000E-03 0.  1.
         23    2    1    2    0    0  0.00000000000E+00  0.00000000000E+00  0.88817841970E-15  0.91188000000E+02  0.91188000000E+02 0.  0.
    9900012    2    3    3    0    0  0.45706358460E+01 -0.36337825712E+02 -0.38024286789E+01  0.54366990327E+02  0.39999786047E+02 0.  0.
        -12    1    3    3    0    0 -0.45706358460E+01  0.36337825712E+02  0.38024286789E+01  0.36821009673E+02  0.00000000000E+00 0.  1.
         11    1    4    4    0    0 -0.78002686703E+01  0.38176720992E+01  0.51589229925E+01  0.10101153315E+02  0.51100000000E-03 0. -1.
        -11    1    4    4    0    0  0.11773176594E+02 -0.20170037655E+02 -0.49027612521E+01  0.23863678976E+02  0.51100000000E-03 0.  1.
         12    1    4    4    0    0  0.59772792227E+00 -0.19985460156E+02 -0.40585904193E+01  0.20402158036E+02  0.00000000000E+00 0. -1.
</event>
<event>
 8    1  0.2530183E-006  0.9118800E+02  0.7816164E-02  0.1184000E+00
        -11   -1    0    0    0    0  0.00000000000E+00  0.00000000000E+00  0.45593999997E+02  0.45594000000E+02  0.51100000000E-03 0.  1.
         11   -1    0    0    0    0 -0.00000000000E+00 -0.00000000000E+00 -0.45593999997E+02  0.45594000000E+02  0.51100000000E-03 0. -1.
         23    2    1    2    0    0  0.44408920985E-15  0.00000000000E+00  0.17763568394E-14  0.91188000000E+02  0.91188000000E+02 0.  0.
    9900012    2    3    3    0    0 -0.38345861533E+01  0.34676735426E+02 -0.11772805395E+02  0.54367095915E+02  0.40000026757E+02 0.  0.
        -12    1    3    3    0    0  0.38345861533E+01 -0.34676735426E+02  0.11772805395E+02  0.36820904085E+02  0.00000000000E+00 0.  1.
         11    1    4    4    0    0  0.10135908580E+01  0.26815047914E+02 -0.94984047902E+01  0.28465660977E+02  0.51100000000E-03 0. -1.
        -11    1    4    4    0    0 -0.37586410225E+01  0.14877866170E+02 -0.75052733759E+01  0.17082371405E+02  0.51100000000E-03 0.  1.
        -12    1    4    4    0    0 -0.10895359887E+01 -0.70161786582E+01  0.52308727713E+01  0.88190635321E+01  0.00000000000E+00 0.  1.
</event>
<event>
 8    1  0.2530183E-006  0.9118800E+02  0.7816164E-02  0.1184000E+00
        -11   -1    0    0    0    0  0.00000000000E+00  0.00000000000E+00  0.45593999997E+02  0.45594000000E+02  0.51100000000E-03 0. -1.
         11   -1    0    0    0    0 -0.00000000000E+00 -0.00000000000E+00 -0.45593999997E+02  0.45594000000E+02  0.51100000000E-03 0.  1.
         23    2    1    2    0    0  0.00000000000E+00  0.00000000000E+00  0.35527136788E-14  0.91188000000E+02  0.91188000000E+02 0.  0.
    9900012    2    3    3    0    0 -0.65903602661E+01  0.33956537200E+02  0.12621343568E+02  0.54367114887E+02  0.40000070007E+02 0.  0.
        -12    1    3    3    0    0  0.65903602661E+01 -0.33956537200E+02 -0.12621343568E+02  0.36820885113E+02  0.00000000000E+00 0.  1.
         11    1    4    4    0    0 -0.77066239588E+01  0.18619108353E+02  0.22685547222E+01  0.20278303417E+02  0.51100000000E-03 0. -1.
        -11    1    4    4    0    0 -0.49284923690E+01 -0.74173595105E+01  0.21997290349E+01  0.91731165493E+01  0.51100000000E-03 0.  1.
         12    1    4    4    0    0  0.60447560617E+01  0.22754788358E+02  0.81530598113E+01  0.24915694920E+02  0.00000000000E+00 0. -1.
</event>
<event>
 8    1  0.2530183E-006  0.9118800E+02  0.7816164E-02  0.1184000E+00
        -11   -1    0    0    0    0  0.00000000000E+00  0.00000000000E+00  0.45593999997E+02  0.45594000000E+02  0.51100000000E-03 0. -1.
         11   -1    0    0    0    0 -0.00000000000E+00 -0.00000000000E+00 -0.45593999997E+02  0.45594000000E+02  0.51100000000E-03 0.  1.
         23    2    1    2    0    0 -0.35527136788E-14  0.00000000000E+00 -0.77715611724E-15  0.91188000000E+02  0.91188000000E+02 0.  0.
    9900012    2    3    3    0    0  0.25745319660E+02  0.26306327144E+02 -0.96758386299E+00  0.54367074553E+02  0.39999978059E+02 0.  0.
         12    1    3    3    0    0 -0.25745319660E+02 -0.26306327144E+02  0.96758386299E+00  0.36820925447E+02  0.00000000000E+00 0. -1.
         11    1    4    4    0    0 -0.22523309556E+01  0.66853942358E+01  0.15565425840E+01  0.72242865322E+01  0.51100000000E-03 0. -1.
        -11    1    4    4    0    0  0.11194588345E+02 -0.52844422124E+01  0.86354016533E+01  0.15093518466E+02  0.51100000000E-03 0.  1.
         12    1    4    4    0    0  0.16803062271E+02  0.24905375121E+02 -0.11159528100E+02  0.32049269555E+02  0.00000000000E+00 0. -1.
</event>
<event>
 8    1  0.2530183E-006  0.9118800E+02  0.7816164E-02  0.1184000E+00
        -11   -1    0    0    0    0  0.00000000000E+00  0.00000000000E+00  0.45593999997E+02  0.45594000000E+02  0.51100000000E-03 0.  1.
         11   -1    0    0    0    0 -0.00000000000E+00 -0.00000000000E+00 -0.45593999997E+02  0.45594000000E+02  0.51100000000E-03 0. -1.
         23    2    1    2    0    0 -0.35527136788E-14  0.00000000000E+00  0.17763568394E-14  0.91188000000E+02  0.91188000000E+02 0.  0.
    9900012    2    3    3    0    0  0.10786369177E+02  0.33149952481E+02 -0.11853914894E+02  0.54367076494E+02  0.39999982482E+02 0.  0.
        -12    1    3    3    0    0 -0.10786369177E+02 -0.33149952481E+02  0.11853914894E+02  0.36820923506E+02  0.00000000000E+00 0.  1.
         11    1    4    4    0    0  0.97333784133E+01  0.25321126406E+02 -0.55550720083E+01  0.27690376001E+02  0.51100000000E-03 0. -1.
        -11    1    4    4    0    0 -0.52655430388E+01 -0.51883443411E+01  0.44708397727E+01  0.86390548690E+01  0.51100000000E-03 0.  1.
        -12    1    4    4    0    0  0.63185338023E+01  0.13017170416E+02 -0.10769682659E+02  0.18037645623E+02  0.00000000000E+00 0.  1.
</event>
<event>
 8    1  0.2530183E-006  0.9118800E+02  0.7816164E-02  0.1184000E+00
        -11   -1    0    0    0    0  0.00000000000E+00  0.00000000000E+00  0.45593999997E+02  0.45594000000E+02  0.51100000000E-03 0.  1.
         11   -1    0    0    0    0 -0.00000000000E+00 -0.00000000000E+00 -0.45593999997E+02  0.45594000000E+02  0.51100000000E-03 0. -1.
         23    2    1    2    0    0 -0.17763568394E-14  0.17763568394E-14  0.00000000000E+00  0.91188000000E+02  0.91188000000E+02 0.  0.
    9900012    2    3    3    0    0  0.11754410051E+02  0.42429853012E+01  0.34635393986E+02  0.54367087512E+02  0.40000007601E+02 0.  0.
         12    1    3    3    0    0 -0.11754410051E+02 -0.42429853012E+01 -0.34635393986E+02  0.36820912488E+02  0.00000000000E+00 0. -1.
         11    1    4    4    0    0 -0.66797714549E+01  0.65630926944E+01  0.81368350812E+01  0.12405709081E+02  0.51100000000E-03 0. -1.
        -11    1    4    4    0    0  0.44636733921E+01  0.10572392101E+02  0.32448906665E+01  0.11925987195E+02  0.51100000000E-03 0.  1.
        -12    1    4    4    0    0  0.13970508114E+02 -0.12892499494E+02  0.23253668238E+02  0.30035391236E+02  0.00000000000E+00 0.  1.
</event>
<event>
 8    1  0.2530183E-006  0.9118800E+02  0.7816164E-02  0.1184000E+00
        -11   -1    0    0    0    0  0.00000000000E+00  0.00000000000E+00  0.45593999997E+02  0.45594000000E+02  0.51100000000E-03 0. -1.
         11   -1    0    0    0    0 -0.00000000000E+00 -0.00000000000E+00 -0.45593999997E+02  0.45594000000E+02  0.51100000000E-03 0.  1.
         23    2    1    2    0    0  0.88817841970E-15  0.22204460493E-15  0.00000000000E+00  0.91188000000E+02  0.91188000000E+02 0.  0.
    9900012    2    3    3    0    0 -0.54051633281E+01  0.18242603819E+01  0.36376281869E+02  0.54367114633E+02  0.40000069430E+02 0.  0.
        -12    1    3    3    0    0  0.54051633281E+01 -0.18242603819E+01 -0.36376281869E+02  0.36820885367E+02  0.00000000000E+00 0.  1.
         11    1    4    4    0    0  0.18332189765E+01  0.87542533410E+01  0.95755883284E+01  0.13103035353E+02  0.51100000000E-03 0. -1.
        -11    1    4    4    0    0  0.19722368265E+01 -0.11184638574E+02  0.28768540720E+02  0.30929189992E+02  0.51100000000E-03 0.  1.
        -12    1    4    4    0    0 -0.92106191311E+01  0.42546456145E+01 -0.19678471790E+01  0.10334889288E+02  0.00000000000E+00 0.  1.
</event>
<event>
 8    1  0.2530183E-006  0.9118800E+02  0.7816164E-02  0.1184000E+00
        -11   -1    0    0    0    0  0.00000000000E+00  0.00000000000E+00  0.45593999997E+02  0.45594000000E+02  0.51100000000E-03 0.  1.
         11   -1    0    0    0    0 -0.00000000000E+00 -0.00000000000E+00 -0.45593999997E+02  0.45594000000E+02  0.51100000000E-03 0. -1.
         23    2    1    2    0    0  0.00000000000E+00 -0.35527136788E-14  0.00000000000E+00  0.91188000000E+02  0.91188000000E+02 0.  0.
    9900012    2    3    3    0    0  0.29686671842E+02 -0.21346564106E+02 -0.43365782624E+01  0.54367079382E+02  0.39999989066E+02 0.  0.
        -12    1    3    3    0    0 -0.29686671842E+02  0.21346564106E+02  0.43365782624E+01  0.36820920618E+02  0.00000000000E+00 0.  1.
         11    1    4    4    0    0  0.26548230536E+02 -0.18427726047E+02 -0.31336500741E+01  0.32468590898E+02  0.51100000000E-03 0. -1.
        -11    1    4    4    0    0 -0.16069623110E+01  0.80051977124E+01  0.37681665951E+01  0.89924745222E+01  0.51100000000E-03 0.  1.
        -12    1    4    4    0    0  0.47454036164E+01 -0.10924035772E+02 -0.49710947834E+01  0.12906013961E+02  0.00000000000E+00 0.  1.
</event>
<event>
 8    1  0.2530183E-006  0.9118800E+02  0.7816164E-02  0.1184000E+00
        -11   -1    0    0    0    0  0.00000000000E+00  0.00000000000E+00  0.45593999997E+02  0.45594000000E+02  0.51100000000E-03 0.  1.
         11   -1    0    0    0    0 -0.00000000000E+00 -0.00000000000E+00 -0.45593999997E+02  0.45594000000E+02  0.51100000000E-03 0. -1.
         23    2    1    2    0    0  0.00000000000E+00  0.00000000000E+00  0.35527136788E-14  0.91188000000E+02  0.91188000000E+02 0.  0.
    9900012    2    3    3    0    0 -0.21179171642E+02  0.66807470043E+01  0.29369876224E+02  0.54367091247E+02  0.40000016116E+02 0.  0.
        -12    1    3    3    0    0  0.21179171642E+02 -0.66807470043E+01 -0.29369876224E+02  0.36820908753E+02  0.00000000000E+00 0.  1.
         11    1    4    4    0    0 -0.17151669316E+02 -0.78126611263E+01  0.17040845814E+02  0.25408814623E+02  0.51100000000E-03 0. -1.
        -11    1    4    4    0    0 -0.60643170474E+01  0.19181910942E+02  0.12768447637E+02  0.23827608020E+02  0.51100000000E-03 0.  1.
         12    1    4    4    0    0  0.20368147210E+01 -0.46885028118E+01 -0.43941722737E+00  0.51306686039E+01  0.00000000000E+00 0. -1.
</event>
<event>
 8    1  0.2530183E-006  0.9118800E+02  0.7816164E-02  0.1184000E+00
        -11   -1    0    0    0    0  0.00000000000E+00  0.00000000000E+00  0.45593999997E+02  0.45594000000E+02  0.51100000000E-03 0.  1.
         11   -1    0    0    0    0 -0.00000000000E+00 -0.00000000000E+00 -0.45593999997E+02  0.45594000000E+02  0.51100000000E-03 0. -1.
         23    2    1    2    0    0  0.00000000000E+00 -0.44408920985E-15  0.00000000000E+00  0.91188000000E+02  0.91188000000E+02 0.  0.
    9900012    2    3    3    0    0 -0.36093733636E+02  0.26179339711E+01 -0.67947376210E+01  0.54367086847E+02  0.40000006085E+02 0.  0.
         12    1    3    3    0    0  0.36093733636E+02 -0.26179339711E+01  0.67947376210E+01  0.36820913153E+02  0.00000000000E+00 0. -1.
         11    1    4    4    0    0 -0.44395293779E+01  0.11132720583E+02 -0.91073244347E+01  0.15052914910E+02  0.51100000000E-03 0. -1.
        -11    1    4    4    0    0  0.28325180815E+01  0.16596233553E+01 -0.10734159863E-01  0.32829291565E+01  0.51100000000E-03 0.  1.
        -12    1    4    4    0    0 -0.34486722340E+02 -0.10174409967E+02  0.23233209736E+01  0.36031242780E+02  0.00000000000E+00 0.  1.
</event>
<event>
 8    1  0.2530183E-006  0.9118800E+02  0.7816164E-02  0.1184000E+00
        -11   -1    0    0    0    0  0.00000000000E+00  0.00000000000E+00  0.45593999997E+02  0.45594000000E+02  0.51100000000E-03 0. -1.
         11   -1    0    0    0    0 -0.00000000000E+00 -0.00000000000E+00 -0.45593999997E+02  0.45594000000E+02  0.51100000000E-03 0.  1.
         23    2    1    2    0    0  0.88817841970E-15  0.00000000000E+00  0.00000000000E+00  0.91188000000E+02  0.91188000000E+02 0.  0.
    9900012    2    3    3    0    0  0.63625161482E+01  0.21842548930E+02  0.28951575996E+02  0.54367186482E+02  0.40000233222E+02 0.  0.
        -12    1    3    3    0    0 -0.63625161482E+01 -0.21842548930E+02 -0.28951575996E+02  0.36820813518E+02  0.00000000000E+00 0.  1.
         11    1    4    4    0    0  0.12407032607E+02  0.12377093862E+02  0.16014223590E+02  0.23739887700E+02  0.51100000000E-03 0. -1.
        -11    1    4    4    0    0  0.33759749913E+01  0.16270466993E+01  0.17237138660E+02  0.17639825327E+02  0.51100000000E-03 0.  1.
         12    1    4    4    0    0 -0.94204914497E+01  0.78384083691E+01 -0.42997862542E+01  0.12987473455E+02  0.00000000000E+00 0. -1.
</event>
<event>
 8    1  0.2530183E-006  0.9118800E+02  0.7816164E-02  0.1184000E+00
        -11   -1    0    0    0    0  0.00000000000E+00  0.00000000000E+00  0.45593999997E+02  0.45594000000E+02  0.51100000000E-03 0.  1.
         11   -1    0    0    0    0 -0.00000000000E+00 -0.00000000000E+00 -0.45593999997E+02  0.45594000000E+02  0.51100000000E-03 0. -1.
         23    2    1    2    0    0  0.17763568394E-14  0.35527136788E-14  0.35527136788E-14  0.91188000000E+02  0.91188000000E+02 0.  0.
    9900012    2    3    3    0    0 -0.73515967242E+01 -0.30921649833E+02 -0.18590024047E+02  0.54367035905E+02  0.39999889952E+02 0.  0.
        -12    1    3    3    0    0  0.73515967242E+01  0.30921649833E+02  0.18590024047E+02  0.36820964095E+02  0.00000000000E+00 0.  1.
         11    1    4    4    0    0  0.13667921832E+02 -0.14988272757E+02 -0.18579400666E+02  0.27507354232E+02  0.51100000000E-03 0. -1.
        -11    1    4    4    0    0 -0.28574749766E+01 -0.44840250774E+01 -0.79205092853E+00  0.53757779968E+01  0.51100000000E-03 0.  1.
         12    1    4    4    0    0 -0.18162043579E+02 -0.11449351999E+02  0.78142754773E+00  0.21483903676E+02  0.00000000000E+00 0. -1.
</event>
<event>
 8    1  0.2530183E-006  0.9118800E+02  0.7816164E-02  0.1184000E+00
        -11   -1    0    0    0    0  0.00000000000E+00  0.00000000000E+00  0.45593999997E+02  0.45594000000E+02  0.51100000000E-03 0.  1.
         11   -1    0    0    0    0 -0.00000000000E+00 -0.00000000000E+00 -0.45593999997E+02  0.45594000000E+02  0.51100000000E-03 0. -1.
         23    2    1    2    0    0  0.00000000000E+00  0.00000000000E+00  0.00000000000E+00  0.91188000000E+02  0.91188000000E+02 0.  0.
    9900012    2    3    3    0    0 -0.75677664411E+01 -0.14339351514E+02  0.33058992213E+02  0.54367013363E+02  0.39999838564E+02 0.  0.
         12    1    3    3    0    0  0.75677664411E+01  0.14339351514E+02 -0.33058992213E+02  0.36820986637E+02  0.00000000000E+00 0. -1.
         11    1    4    4    0    0 -0.61404186651E+01  0.12043803410E+02  0.57991856494E+01  0.14710149436E+02  0.51100000000E-03 0. -1.
        -11    1    4    4    0    0  0.28999296053E+01 -0.17902991436E+02  0.12262150985E+02  0.21892625268E+02  0.51100000000E-03 0.  1.
         12    1    4    4    0    0 -0.43272773812E+01 -0.84801634879E+01  0.14997655579E+02  0.17764238660E+02  0.00000000000E+00 0. -1.
</event>
<event>
 8    1  0.2530183E-006  0.9118800E+02  0.7816164E-02  0.1184000E+00
        -11   -1    0    0    0    0  0.00000000000E+00  0.00000000000E+00  0.45593999997E+02  0.45594000000E+02  0.51100000000E-03 0. -1.
         11   -1    0    0    0    0 -0.00000000000E+00 -0.00000000000E+00 -0.45593999997E+02  0.45594000000E+02  0.51100000000E-03 0.  1.
         23    2    1    2    0    0 -0.66613381478E-15  0.00000000000E+00  0.00000000000E+00  0.91188000000E+02  0.91188000000E+02 0.  0.
    9900012    2    3    3    0    0  0.14912169299E+01 -0.30991681798E+02  0.19826039533E+02  0.54367083225E+02  0.39999997827E+02 0.  0.
         12    1    3    3    0    0 -0.14912169299E+01  0.30991681798E+02 -0.19826039533E+02  0.36820916775E+02  0.00000000000E+00 0. -1.
         11    1    4    4    0    0 -0.15560904084E+01 -0.18288593951E+02  0.11359142440E+01  0.18389790306E+02  0.51100000000E-03 0. -1.
        -11    1    4    4    0    0  0.11452986321E+02  0.38035531184E+01  0.56574794673E+01  0.13328352718E+02  0.51100000000E-03 0.  1.
         12    1    4    4    0    0 -0.84056789823E+01 -0.16506640966E+02  0.13032645821E+02  0.22648940201E+02  0.00000000000E+00 0. -1.
</event>
<event>
 8    1  0.2530183E-006  0.9118800E+02  0.7816164E-02  0.1184000E+00
        -11   -1    0    0    0    0  0.00000000000E+00  0.00000000000E+00  0.45593999997E+02  0.45594000000E+02  0.51100000000E-03 0. -1.
         11   -1    0    0    0    0 -0.00000000000E+00 -0.00000000000E+00 -0.45593999997E+02  0.45594000000E+02  0.51100000000E-03 0.  1.
         23    2    1    2    0    0  0.88817841970E-15  0.00000000000E+00 -0.71054273576E-14  0.91188000000E+02  0.91188000000E+02 0.  0.
    9900012    2    3    3    0    0 -0.50635601607E+01  0.14724942038E+02  0.33366361495E+02  0.54367114093E+02  0.40000068199E+02 0.  0.
        -12    1    3    3    0    0  0.50635601607E+01 -0.14724942038E+02 -0.33366361495E+02  0.36820885907E+02  0.00000000000E+00 0.  1.
         11    1    4    4    0    0 -0.14287910207E+02  0.33497525947E+01  0.26265876733E+02  0.30087563899E+02  0.51100000000E-03 0. -1.
        -11    1    4    4    0    0  0.21351948869E+01  0.15072168377E+02  0.47028776626E+01  0.15932557088E+02  0.51100000000E-03 0.  1.
         12    1    4    4    0    0  0.70891551598E+01 -0.36969789338E+01  0.23976070997E+01  0.83469931066E+01  0.00000000000E+00 0. -1.
</event>
<event>
 8    1  0.2530183E-006  0.9118800E+02  0.7816164E-02  0.1184000E+00
        -11   -1    0    0    0    0  0.00000000000E+00  0.00000000000E+00  0.45593999997E+02  0.45594000000E+02  0.51100000000E-03 0.  1.
         11   -1    0    0    0    0 -0.00000000000E+00 -0.00000000000E+00 -0.45593999997E+02  0.45594000000E+02  0.51100000000E-03 0. -1.
         23    2    1    2    0    0  0.88817841970E-15  0.00000000000E+00  0.00000000000E+00  0.91188000000E+02  0.91188000000E+02 0.  0.
    9900012    2    3    3    0    0  0.64143116454E+01 -0.29472195056E+02 -0.21119326491E+02  0.54367087100E+02  0.40000006662E+02 0.  0.
        -12    1    3    3    0    0 -0.64143116454E+01  0.29472195056E+02  0.21119326491E+02  0.36820912900E+02  0.00000000000E+00 0.  1.
         11    1    4    4    0    0  0.19587524733E+01 -0.12822140516E+02 -0.20602892903E+02  0.24345907149E+02  0.51100000000E-03 0. -1.
        -11    1    4    4    0    0 -0.21327228557E+00 -0.71715105930E+01 -0.12271765171E+02  0.14215212623E+02  0.51100000000E-03 0.  1.
        -12    1    4    4    0    0  0.46688314577E+01 -0.94785439479E+01  0.11755331583E+02  0.15805967328E+02  0.00000000000E+00 0.  1.
</event>
<event>
 8    1  0.2530183E-006  0.9118800E+02  0.7816164E-02  0.1184000E+00
        -11   -1    0    0    0    0  0.00000000000E+00  0.00000000000E+00  0.45593999997E+02  0.45594000000E+02  0.51100000000E-03 0.  1.
         11   -1    0    0    0    0 -0.00000000000E+00 -0.00000000000E+00 -0.45593999997E+02  0.45594000000E+02  0.51100000000E-03 0. -1.
         23    2    1    2    0    0  0.44408920985E-15  0.00000000000E+00  0.71054273576E-14  0.91188000000E+02  0.91188000000E+02 0.  0.
    9900012    2    3    3    0    0 -0.39902161838E+01 -0.62998042434E+01  0.36057879443E+02  0.54367081644E+02  0.39999994223E+02 0.  0.
         12    1    3    3    0    0  0.39902161838E+01  0.62998042434E+01 -0.36057879443E+02  0.36820918356E+02  0.00000000000E+00 0. -1.
         11    1    4    4    0    0  0.43585547200E+01  0.11978710172E+02  0.21703566020E+02  0.25170047176E+02  0.51100000000E-03 0. -1.
        -11    1    4    4    0    0 -0.64748443169E+01 -0.20484330797E+02  0.93795815814E+01  0.23441586295E+02  0.51100000000E-03 0.  1.
        -12    1    4    4    0    0 -0.18739265869E+01  0.22058163822E+01  0.49747318415E+01  0.57554481719E+01  0.00000000000E+00 0.  1.
</event>
<event>
 8    1  0.2530183E-006  0.9118800E+02  0.7816164E-02  0.1184000E+00
        -11   -1    0    0    0    0  0.00000000000E+00  0.00000000000E+00  0.45593999997E+02  0.45594000000E+02  0.51100000000E-03 0.  1.
         11   -1    0    0    0    0 -0.00000000000E+00 -0.00000000000E+00 -0.45593999997E+02  0.45594000000E+02  0.51100000000E-03 0. -1.
         23    2    1    2    0    0  0.00000000000E+00  0.17763568394E-14  0.00000000000E+00  0.91188000000E+02  0.91188000000E+02 0.  0.
    9900012    2    3    3    0    0  0.33548131302E+02  0.14446802179E+02 -0.46467545640E+01  0.54367088346E+02  0.40000009503E+02 0.  0.
        -12    1    3    3    0    0 -0.33548131302E+02 -0.14446802179E+02  0.46467545640E+01  0.36820911654E+02  0.00000000000E+00 0.  1.
         11    1    4    4    0    0  0.39915952666E+01 -0.34906249580E+01  0.10778107653E+01  0.54110046828E+01  0.51100000000E-03 0. -1.
        -11    1    4    4    0    0  0.33065108296E+02  0.21609169920E+02 -0.11620987109E+02  0.41174081082E+02  0.51100000000E-03 0.  1.
        -12    1    4    4    0    0 -0.35085722610E+01 -0.36717427834E+01  0.58964217799E+01  0.77820025819E+01  0.00000000000E+00 0.  1.
</event>
<event>
 8    1  0.2530183E-006  0.9118800E+02  0.7816164E-02  0.1184000E+00
        -11   -1    0    0    0    0  0.00000000000E+00  0.00000000000E+00  0.45593999997E+02  0.45594000000E+02  0.51100000000E-03 0.  1.
         11   -1    0    0    0    0 -0.00000000000E+00 -0.00000000000E+00 -0.45593999997E+02  0.45594000000E+02  0.51100000000E-03 0. -1.
         23    2    1    2    0    0  0.17763568394E-14 -0.44408920985E-15 -0.71054273576E-14  0.91188000000E+02  0.91188000000E+02 0.  0.
    9900012    2    3    3    0    0 -0.11579828673E+02  0.38391816342E+01  0.34741154741E+02  0.54367087729E+02  0.40000008096E+02 0.  0.
         12    1    3    3    0    0  0.11579828673E+02 -0.38391816342E+01 -0.34741154741E+02  0.36820912271E+02  0.00000000000E+00 0. -1.
         11    1    4    4    0    0 -0.21125283151E+00  0.11085376837E+02  0.34638576021E+01  0.11615873498E+02  0.51100000000E-03 0. -1.
        -11    1    4    4    0    0 -0.88106957200E+01  0.83482708161E+01  0.19785200104E+02  0.23211551610E+02  0.51100000000E-03 0.  1.
         12    1    4    4    0    0 -0.25578801211E+01 -0.15594466019E+02  0.11492097035E+02  0.19539662622E+02  0.00000000000E+00 0. -1.
</event>
<event>
 8    1  0.2530183E-006  0.9118800E+02  0.7816164E-02  0.1184000E+00
        -11   -1    0    0    0    0  0.00000000000E+00  0.00000000000E+00  0.45593999997E+02  0.45594000000E+02  0.51100000000E-03 0.  1.
         11   -1    0    0    0    0 -0.00000000000E+00 -0.00000000000E+00 -0.45593999997E+02  0.45594000000E+02  0.51100000000E-03 0. -1.
         23    2    1    2    0    0  0.00000000000E+00  0.00000000000E+00  0.35527136788E-14  0.91188000000E+02  0.91188000000E+02 0.  0.
    9900012    2    3    3    0    0  0.16242432897E+02  0.88586762178E+01  0.31835317499E+02  0.54367079167E+02  0.39999988576E+02 0.  0.
         12    1    3    3    0    0 -0.16242432897E+02 -0.88586762178E+01 -0.31835317499E+02  0.36820920833E+02  0.00000000000E+00 0. -1.
         11    1    4    4    0    0  0.15511442615E+02 -0.86584644598E+01  0.28158123241E+01  0.17986179642E+02  0.51100000000E-03 0. -1.
        -11    1    4    4    0    0  0.49364031590E+01  0.16554249684E+02  0.25564268814E+02  0.30853575141E+02  0.51100000000E-03 0.  1.
         12    1    4    4    0    0 -0.42054128769E+01  0.96289099378E+00  0.34552363615E+01  0.55273243839E+01  0.00000000000E+00 0. -1.
</event>
<event>
 8    1  0.2530183E-006  0.9118800E+02  0.7816164E-02  0.1184000E+00
        -11   -1    0    0    0    0  0.00000000000E+00  0.00000000000E+00  0.45593999997E+02  0.45594000000E+02  0.51100000000E-03 0.  1.
         11   -1    0    0    0    0 -0.00000000000E+00 -0.00000000000E+00 -0.45593999997E+02  0.45594000000E+02  0.51100000000E-03 0. -1.
         23    2    1    2    0    0  0.00000000000E+00 -0.35527136788E-14  0.00000000000E+00  0.91188000000E+02  0.91188000000E+02 0.  0.
    9900012    2    3    3    0    0  0.89261411734E+01 -0.29956410455E+02 -0.19460659424E+02  0.54367084900E+02  0.40000001646E+02 0.  0.
        -12    1    3    3    0    0 -0.89261411734E+01  0.29956410455E+02  0.19460659424E+02  0.36820915100E+02  0.00000000000E+00 0.  1.
         11    1    4    4    0    0  0.30724361950E+01 -0.17034858878E+02 -0.20776524091E+02  0.27042378496E+02  0.51100000000E-03 0. -1.
        -11    1    4    4    0    0  0.10431318173E+02 -0.17763820895E+02  0.44868183487E+00  0.20605024806E+02  0.51100000000E-03 0.  1.
         12    1    4    4    0    0 -0.45776131950E+01  0.48422693178E+01  0.86718283153E+00  0.67196815975E+01  0.00000000000E+00 0. -1.
</event>
<event>
 8    1  0.2530183E-006  0.9118800E+02  0.7816164E-02  0.1184000E+00
        -11   -1    0    0    0    0  0.00000000000E+00  0.00000000000E+00  0.45593999997E+02  0.45594000000E+02  0.51100000000E-03 0.  1.
         11   -1    0    0    0    0 -0.00000000000E+00 -0.00000000000E+00 -0.45593999997E+02  0.45594000000E+02  0.51100000000E-03 0. -1.
         23    2    1    2    0    0  0.00000000000E+00  0.00000000000E+00  0.00000000000E+00  0.91188000000E+02  0.91188000000E+02 0.  0.
    9900012    2    3    3    0    0  0.29934241880E+02  0.70046844086E+01  0.20264631223E+02  0.54367085845E+02  0.40000003802E+02 0.  0.
         12    1    3    3    0    0 -0.29934241880E+02 -0.70046844086E+01 -0.20264631223E+02  0.36820914155E+02  0.00000000000E+00 0. -1.
         11    1    4    4    0    0  0.22435062092E+02 -0.38595217480E+01  0.21229079908E+02  0.31127186722E+02  0.51100000000E-03 0.  1.
        -11    1    4    4    0    0 -0.12714800365E+00  0.98919559489E+00 -0.85698018413E+01  0.86276403726E+01  0.51100000000E-03 0. -1.
         12    1    4    4    0    0  0.76263277911E+01  0.98750105617E+01  0.76053531563E+01  0.14612258751E+02  0.00000000000E+00 0. -1.
</event>
<event>
 8    1  0.2530183E-006  0.9118800E+02  0.7816164E-02  0.1184000E+00
        -11   -1    0    0    0    0  0.00000000000E+00  0.00000000000E+00  0.45593999997E+02  0.45594000000E+02  0.51100000000E-03 0.  1.
         11   -1    0    0    0    0 -0.00000000000E+00 -0.00000000000E+00 -0.45593999997E+02  0.45594000000E+02  0.51100000000E-03 0. -1.
         23    2    1    2    0    0  0.17763568394E-14  0.00000000000E+00  0.00000000000E+00  0.91188000000E+02  0.91188000000E+02 0.  0.
    9900012    2    3    3    0    0  0.81437708402E+01  0.73235328119E+01  0.35154302117E+02  0.54367080760E+02  0.39999992209E+02 0.  0.
         12    1    3    3    0    0 -0.81437708402E+01 -0.73235328119E+01 -0.35154302117E+02  0.36820919240E+02  0.00000000000E+00 0. -1.
         11    1    4    4    0    0 -0.84606972756E+01 -0.61363607671E+01  0.15391366597E+02  0.18604636192E+02  0.51100000000E-03 0. -1.
        -11    1    4    4    0    0  0.14051177242E+02 -0.14181632573E+01  0.60341681786E+01  0.15357667622E+02  0.51100000000E-03 0.  1.
        -12    1    4    4    0    0  0.25532908734E+01  0.14878056836E+02  0.13728767341E+02  0.20404776946E+02  0.00000000000E+00 0.  1.
</event>
<event>
 8    1  0.2530183E-006  0.9118800E+02  0.7816164E-02  0.1184000E+00
        -11   -1    0    0    0    0  0.00000000000E+00  0.00000000000E+00  0.45593999997E+02  0.45594000000E+02  0.51100000000E-03 0.  1.
         11   -1    0    0    0    0 -0.00000000000E+00 -0.00000000000E+00 -0.45593999997E+02  0.45594000000E+02  0.51100000000E-03 0. -1.
         23    2    1    2    0    0  0.00000000000E+00 -0.71054273576E-14  0.00000000000E+00  0.91188000000E+02  0.91188000000E+02 0.  0.
    9900012    2    3    3    0    0  0.84420770776E+01 -0.34539300733E+02 -0.95680903991E+01  0.54367077763E+02  0.39999985377E+02 0.  0.
        -12    1    3    3    0    0 -0.84420770776E+01  0.34539300733E+02  0.95680903991E+01  0.36820922237E+02  0.00000000000E+00 0.  1.
         11    1    4    4    0    0  0.43789012838E+01  0.16727501936E+01 -0.21580807827E+01  0.51604440302E+01  0.51100000000E-03 0. -1.
        -11    1    4    4    0    0 -0.79141718109E+01 -0.58701111878E+01  0.84081011763E+01  0.12953319515E+02  0.51100000000E-03 0.  1.
        -12    1    4    4    0    0  0.11977347605E+02 -0.30341939738E+02 -0.15818110793E+02  0.36253314218E+02  0.00000000000E+00 0.  1.
</event>
<event>
 8    1  0.2530183E-006  0.9118800E+02  0.7816164E-02  0.1184000E+00
        -11   -1    0    0    0    0  0.00000000000E+00  0.00000000000E+00  0.45593999997E+02  0.45594000000E+02  0.51100000000E-03 0.  1.
         11   -1    0    0    0    0 -0.00000000000E+00 -0.00000000000E+00 -0.45593999997E+02  0.45594000000E+02  0.51100000000E-03 0. -1.
         23    2    1    2    0    0  0.00000000000E+00  0.00000000000E+00 -0.17763568394E-14  0.91188000000E+02  0.91188000000E+02 0.  0.
    9900012    2    3    3    0    0  0.34767937638E+02 -0.15439885291E+01  0.12024346098E+02  0.54367105290E+02  0.40000048130E+02 0.  0.
        -12    1    3    3    0    0 -0.34767937638E+02  0.15439885291E+01 -0.12024346098E+02  0.36820894710E+02  0.00000000000E+00 0.  1.
         11    1    4    4    0    0  0.18758026529E+02 -0.57860327719E+01 -0.10011673068E+02  0.22035773923E+02  0.51100000000E-03 0. -1.
        -11    1    4    4    0    0  0.15276633628E+02  0.88828639094E+01  0.21131421682E+02  0.27546647506E+02  0.51100000000E-03 0.  1.
         12    1    4    4    0    0  0.73327748051E+00 -0.46408196667E+01  0.90459748382E+00  0.47846838610E+01  0.00000000000E+00 0. -1.
</event>
<event>
 8    1  0.2530183E-006  0.9118800E+02  0.7816164E-02  0.1184000E+00
        -11   -1    0    0    0    0  0.00000000000E+00  0.00000000000E+00  0.45593999997E+02  0.45594000000E+02  0.51100000000E-03 0. -1.
         11   -1    0    0    0    0 -0.00000000000E+00 -0.00000000000E+00 -0.45593999997E+02  0.45594000000E+02  0.51100000000E-03 0.  1.
         23    2    1    2    0    0  0.71054273576E-14 -0.71054273576E-14 -0.35527136788E-14  0.91188000000E+02  0.91188000000E+02 0.  0.
    9900012    2    3    3    0    0  0.20862270100E+02 -0.25490080956E+02 -0.16456037956E+02  0.54367085752E+02  0.40000003589E+02 0.  0.
         12    1    3    3    0    0 -0.20862270100E+02  0.25490080956E+02  0.16456037956E+02  0.36820914248E+02  0.00000000000E+00 0. -1.
         11    1    4    4    0    0 -0.39877620267E+00 -0.16082159100E+02 -0.99920327637E+00  0.16118103835E+02  0.51100000000E-03 0. -1.
        -11    1    4    4    0    0  0.85482058541E+01 -0.17778814210E+02 -0.78351389308E+01  0.21226103278E+02  0.51100000000E-03 0.  1.
         12    1    4    4    0    0  0.12712840448E+02  0.83708923544E+01 -0.76216957484E+01  0.17022878639E+02  0.00000000000E+00 0. -1.
</event>
<event>
 8    1  0.2530183E-006  0.9118800E+02  0.7816164E-02  0.1184000E+00
        -11   -1    0    0    0    0  0.00000000000E+00  0.00000000000E+00  0.45593999997E+02  0.45594000000E+02  0.51100000000E-03 0. -1.
         11   -1    0    0    0    0 -0.00000000000E+00 -0.00000000000E+00 -0.45593999997E+02  0.45594000000E+02  0.51100000000E-03 0.  1.
         23    2    1    2    0    0  0.10547118734E-14  0.00000000000E+00  0.00000000000E+00  0.91188000000E+02  0.91188000000E+02 0.  0.
    9900012    2    3    3    0    0  0.35036534897E+00 -0.36785340482E+02 -0.15782192042E+01  0.54367152561E+02  0.40000155893E+02 0.  0.
         12    1    3    3    0    0 -0.35036534897E+00  0.36785340482E+02  0.15782192042E+01  0.36820847439E+02  0.00000000000E+00 0. -1.
         11    1    4    4    0    0  0.11297988333E+02 -0.71585794717E+01 -0.11684487803E+01  0.13425910518E+02  0.51100000000E-03 0. -1.
        -11    1    4    4    0    0  0.49384791506E+01 -0.23269463560E+02  0.66026767368E+00  0.23796900310E+02  0.51100000000E-03 0.  1.
         12    1    4    4    0    0 -0.15886102135E+02 -0.63572974506E+01 -0.10700380975E+01  0.17144341733E+02  0.00000000000E+00 0. -1.
</event>
<event>
 8    1  0.2530183E-006  0.9118800E+02  0.7816164E-02  0.1184000E+00
        -11   -1    0    0    0    0  0.00000000000E+00  0.00000000000E+00  0.45593999997E+02  0.45594000000E+02  0.51100000000E-03 0.  1.
         11   -1    0    0    0    0 -0.00000000000E+00 -0.00000000000E+00 -0.45593999997E+02  0.45594000000E+02  0.51100000000E-03 0. -1.
         23    2    1    2    0    0 -0.71054273576E-14  0.00000000000E+00  0.00000000000E+00  0.91188000000E+02  0.91188000000E+02 0.  0.
    9900012    2    3    3    0    0  0.32036127440E+02 -0.16562855813E+02  0.74255792107E+01  0.54367070073E+02  0.39999967846E+02 0.  0.
         12    1    3    3    0    0 -0.32036127440E+02  0.16562855813E+02 -0.74255792107E+01  0.36820929927E+02  0.00000000000E+00 0. -1.
         11    1    4    4    0    0  0.48115302351E+01  0.17504332729E+01  0.18565186764E+01  0.54462373895E+01  0.51100000000E-03 0. -1.
        -11    1    4    4    0    0  0.31525225094E+01  0.10374838385E+02 -0.10382201921E+01  0.10892822000E+02  0.51100000000E-03 0.  1.
        -12    1    4    4    0    0  0.24072074696E+02 -0.28688127471E+02  0.66072807264E+01  0.38028010684E+02  0.00000000000E+00 0.  1.
</event>
<event>
 8    1  0.2530183E-006  0.9118800E+02  0.7816164E-02  0.1184000E+00
        -11   -1    0    0    0    0  0.00000000000E+00  0.00000000000E+00  0.45593999997E+02  0.45594000000E+02  0.51100000000E-03 0.  1.
         11   -1    0    0    0    0 -0.00000000000E+00 -0.00000000000E+00 -0.45593999997E+02  0.45594000000E+02  0.51100000000E-03 0. -1.
         23    2    1    2    0    0  0.00000000000E+00  0.00000000000E+00  0.00000000000E+00  0.91188000000E+02  0.91188000000E+02 0.  0.
    9900012    2    3    3    0    0 -0.16013596719E+02 -0.13135473345E+02 -0.30443448628E+02  0.54367088764E+02  0.40000010455E+02 0.  0.
        -12    1    3    3    0    0  0.16013596719E+02  0.13135473345E+02  0.30443448628E+02  0.36820911236E+02  0.00000000000E+00 0.  1.
         11    1    4    4    0    0 -0.16493684294E+02 -0.23780647251E+02 -0.24840617372E+02  0.38139442536E+02  0.51100000000E-03 0. -1.
        -11    1    4    4    0    0 -0.32002820119E+01 -0.32379199178E+00  0.31517885238E+00  0.32320247802E+01  0.51100000000E-03 0.  1.
         12    1    4    4    0    0  0.36803695861E+01  0.10968965898E+02 -0.59180101083E+01  0.12995621448E+02  0.00000000000E+00 0. -1.
</event>
<event>
 8    1  0.2530183E-006  0.9118800E+02  0.7816164E-02  0.1184000E+00
        -11   -1    0    0    0    0  0.00000000000E+00  0.00000000000E+00  0.45593999997E+02  0.45594000000E+02  0.51100000000E-03 0.  1.
         11   -1    0    0    0    0 -0.00000000000E+00 -0.00000000000E+00 -0.45593999997E+02  0.45594000000E+02  0.51100000000E-03 0. -1.
         23    2    1    2    0    0  0.00000000000E+00  0.17763568394E-14  0.22204460493E-14  0.91188000000E+02  0.91188000000E+02 0.  0.
    9900012    2    3    3    0    0 -0.34151661847E+02 -0.13711414251E+02  0.12004433334E+01  0.54367082685E+02  0.39999996598E+02 0.  0.
         12    1    3    3    0    0  0.34151661847E+02  0.13711414251E+02 -0.12004433334E+01  0.36820917315E+02  0.00000000000E+00 0. -1.
         11    1    4    4    0    0 -0.17814248629E+02 -0.87481710915E+01 -0.85993101600E+01  0.21629287717E+02  0.51100000000E-03 0. -1.
        -11    1    4    4    0    0 -0.35099508717E+01 -0.62795317236E+01  0.16649052146E+02  0.18136791651E+02  0.51100000000E-03 0.  1.
        -12    1    4    4    0    0 -0.12827462347E+02  0.13162885643E+01 -0.68492986522E+01  0.14601003317E+02  0.00000000000E+00 0.  1.
</event>
<event>
 8    1  0.2530183E-006  0.9118800E+02  0.7816164E-02  0.1184000E+00
        -11   -1    0    0    0    0  0.00000000000E+00  0.00000000000E+00  0.45593999997E+02  0.45594000000E+02  0.51100000000E-03 0.  1.
         11   -1    0    0    0    0 -0.00000000000E+00 -0.00000000000E+00 -0.45593999997E+02  0.45594000000E+02  0.51100000000E-03 0. -1.
         23    2    1    2    0    0  0.00000000000E+00  0.35527136788E-14 -0.66613381478E-15  0.91188000000E+02  0.91188000000E+02 0.  0.
    9900012    2    3    3    0    0 -0.20856221585E+02  0.30280468623E+02 -0.19724437745E+01  0.54367091629E+02  0.40000016987E+02 0.  0.
        -12    1    3    3    0    0  0.20856221585E+02 -0.30280468623E+02  0.19724437745E+01  0.36820908371E+02  0.00000000000E+00 0.  1.
         11    1    4    4    0    0 -0.25932641054E+02  0.30531454829E+02 -0.12654908367E+02  0.42009740680E+02  0.51100000000E-03 0. -1.
        -11    1    4    4    0    0  0.16219313913E+01  0.10214857560E+01  0.14062119088E+01  0.23772940040E+01  0.51100000000E-03 0.  1.
         12    1    4    4    0    0  0.34544880777E+01 -0.12724719622E+01  0.92762526834E+01  0.99800569447E+01  0.00000000000E+00 0. -1.
</event>
<event>
 8    1  0.2530183E-006  0.9118800E+02  0.7816164E-02  0.1184000E+00
        -11   -1    0    0    0    0  0.00000000000E+00  0.00000000000E+00  0.45593999997E+02  0.45594000000E+02  0.51100000000E-03 0.  1.
         11   -1    0    0    0    0 -0.00000000000E+00 -0.00000000000E+00 -0.45593999997E+02  0.45594000000E+02  0.51100000000E-03 0. -1.
         23    2    1    2    0    0  0.00000000000E+00 -0.17763568394E-14  0.00000000000E+00  0.91188000000E+02  0.91188000000E+02 0.  0.
    9900012    2    3    3    0    0 -0.31365079578E+02 -0.15421426864E+02  0.11584282074E+02  0.54367024800E+02  0.39999864637E+02 0.  0.
        -12    1    3    3    0    0  0.31365079578E+02  0.15421426864E+02 -0.11584282074E+02  0.36820975200E+02  0.00000000000E+00 0.  1.
         11    1    4    4    0    0 -0.14034775338E+02 -0.77038650588E+01  0.15364494609E+01  0.16083691518E+02  0.51100000000E-03 0. -1.
        -11    1    4    4    0    0  0.52985245253E+01 -0.56014442155E+01  0.13251162907E+02  0.15331140143E+02  0.51100000000E-03 0.  1.
        -12    1    4    4    0    0 -0.22628828765E+02 -0.21161175895E+01 -0.32033302933E+01  0.22952193139E+02  0.00000000000E+00 0.  1.
</event>
<event>
 8    1  0.2530183E-006  0.9118800E+02  0.7816164E-02  0.1184000E+00
        -11   -1    0    0    0    0  0.00000000000E+00  0.00000000000E+00  0.45593999997E+02  0.45594000000E+02  0.51100000000E-03 0. -1.
         11   -1    0    0    0    0 -0.00000000000E+00 -0.00000000000E+00 -0.45593999997E+02  0.45594000000E+02  0.51100000000E-03 0.  1.
         23    2    1    2    0    0  0.00000000000E+00  0.44408920985E-15  0.35527136788E-14  0.91188000000E+02  0.91188000000E+02 0.  0.
    9900012    2    3    3    0    0  0.29281411750E+02 -0.11988243688E+01  0.22292189879E+02  0.54367082256E+02  0.39999995619E+02 0.  0.
         12    1    3    3    0    0 -0.29281411750E+02  0.11988243688E+01 -0.22292189879E+02  0.36820917744E+02  0.00000000000E+00 0. -1.
         11    1    4    4    0    0  0.33943603622E+01 -0.95939301269E+01  0.48602234392E+01  0.11277719170E+02  0.51100000000E-03 0. -1.
        -11    1    4    4    0    0  0.24629246451E+02 -0.33463352750E+01  0.18851424068E+02  0.31195735769E+02  0.51100000000E-03 0.  1.
        -12    1    4    4    0    0  0.12578049365E+01  0.11741441033E+02 -0.14194576281E+01  0.11893627317E+02  0.00000000000E+00 0.  1.
</event>
<event>
 8    1  0.2530183E-006  0.9118800E+02  0.7816164E-02  0.1184000E+00
        -11   -1    0    0    0    0  0.00000000000E+00  0.00000000000E+00  0.45593999997E+02  0.45594000000E+02  0.51100000000E-03 0.  1.
         11   -1    0    0    0    0 -0.00000000000E+00 -0.00000000000E+00 -0.45593999997E+02  0.45594000000E+02  0.51100000000E-03 0. -1.
         23    2    1    2    0    0 -0.35527136788E-14  0.44408920985E-15 -0.35527136788E-14  0.91188000000E+02  0.91188000000E+02 0.  0.
    9900012    2    3    3    0    0 -0.19484194254E+02  0.37832073816E+01 -0.31013438228E+02  0.54367084279E+02  0.40000000231E+02 0.  0.
        -12    1    3    3    0    0  0.19484194254E+02 -0.37832073816E+01  0.31013438228E+02  0.36820915721E+02  0.00000000000E+00 0.  1.
         11    1    4    4    0    0 -0.24209413466E+02  0.29459749008E+01 -0.18579601070E+02  0.30659028762E+02  0.51100000000E-03 0. -1.
        -11    1    4    4    0    0  0.25104647402E+01  0.33323930223E+01  0.46813334689E+01  0.62707383756E+01  0.51100000000E-03 0.  1.
         12    1    4    4    0    0  0.22147544715E+01 -0.24951605416E+01 -0.17115170627E+02  0.17437317141E+02  0.00000000000E+00 0. -1.
</event>
<event>
 8    1  0.2530183E-006  0.9118800E+02  0.7816164E-02  0.1184000E+00
        -11   -1    0    0    0    0  0.00000000000E+00  0.00000000000E+00  0.45593999997E+02  0.45594000000E+02  0.51100000000E-03 0.  1.
         11   -1    0    0    0    0 -0.00000000000E+00 -0.00000000000E+00 -0.45593999997E+02  0.45594000000E+02  0.51100000000E-03 0. -1.
         23    2    1    2    0    0  0.35527136788E-14  0.00000000000E+00  0.00000000000E+00  0.91188000000E+02  0.91188000000E+02 0.  0.
    9900012    2    3    3    0    0  0.27739776554E+02 -0.21105989769E+02  0.11866841010E+02  0.54367083078E+02  0.39999997493E+02 0.  0.
        -12    1    3    3    0    0 -0.27739776554E+02  0.21105989769E+02 -0.11866841010E+02  0.36820916922E+02  0.00000000000E+00 0.  1.
         11    1    4    4    0    0  0.17701537351E+02 -0.16922061183E+02  0.10411485135E+02  0.26610140966E+02  0.51100000000E-03 0. -1.
        -11    1    4    4    0    0 -0.62507939469E+01 -0.64121718992E+01  0.59028151426E+01  0.10725278565E+02  0.51100000000E-03 0.  1.
         12    1    4    4    0    0  0.16289033150E+02  0.22282433131E+01 -0.44474592677E+01  0.17031663547E+02  0.00000000000E+00 0. -1.
</event>
<event>
 8    1  0.2530183E-006  0.9118800E+02  0.7816164E-02  0.1184000E+00
        -11   -1    0    0    0    0  0.00000000000E+00  0.00000000000E+00  0.45593999997E+02  0.45594000000E+02  0.51100000000E-03 0. -1.
         11   -1    0    0    0    0 -0.00000000000E+00 -0.00000000000E+00 -0.45593999997E+02  0.45594000000E+02  0.51100000000E-03 0.  1.
         23    2    1    2    0    0  0.00000000000E+00  0.88817841970E-15  0.00000000000E+00  0.91188000000E+02  0.91188000000E+02 0.  0.
    9900012    2    3    3    0    0 -0.31772503105E+02 -0.44444764528E+01  0.18070268539E+02  0.54367082989E+02  0.39999997290E+02 0.  0.
        -12    1    3    3    0    0  0.31772503105E+02  0.44444764528E+01 -0.18070268539E+02  0.36820917011E+02  0.00000000000E+00 0.  1.
         11    1    4    4    0    0 -0.32883740424E+02 -0.13142552853E+02  0.15066957027E+02  0.38484805756E+02  0.51100000000E-03 0. -1.
        -11    1    4    4    0    0  0.12132519842E+01  0.47718382165E+01  0.80810352500E+01  0.94628511197E+01  0.51100000000E-03 0.  1.
         12    1    4    4    0    0 -0.10201466478E+00  0.39262381839E+01 -0.50777237374E+01  0.64194261131E+01  0.00000000000E+00 0. -1.
</event>
<event>
 8    1  0.2530183E-006  0.9118800E+02  0.7816164E-02  0.1184000E+00
        -11   -1    0    0    0    0  0.00000000000E+00  0.00000000000E+00  0.45593999997E+02  0.45594000000E+02  0.51100000000E-03 0. -1.
         11   -1    0    0    0    0 -0.00000000000E+00 -0.00000000000E+00 -0.45593999997E+02  0.45594000000E+02  0.51100000000E-03 0.  1.
         23    2    1    2    0    0  0.00000000000E+00  0.00000000000E+00 -0.17763568394E-14  0.91188000000E+02  0.91188000000E+02 0.  0.
    9900012    2    3    3    0    0 -0.12365215056E+02 -0.31053236386E+02 -0.15445971904E+02  0.54367080926E+02  0.39999992586E+02 0.  0.
         12    1    3    3    0    0  0.12365215056E+02  0.31053236386E+02  0.15445971904E+02  0.36820919074E+02  0.00000000000E+00 0. -1.
         11    1    4    4    0    0 -0.16129183331E+02 -0.27081571393E+02 -0.20738778658E+02  0.37731406076E+02  0.51100000000E-03 0.  1.
        -11    1    4    4    0    0  0.77350066412E+01  0.20957377166E+01  0.48577780053E+01  0.93712566781E+01  0.51100000000E-03 0. -1.
         12    1    4    4    0    0 -0.39710383665E+01 -0.60674027100E+01  0.43502874923E+00  0.72644181712E+01  0.00000000000E+00 0. -1.
</event>
<event>
 8    1  0.2530183E-006  0.9118800E+02  0.7816164E-02  0.1184000E+00
        -11   -1    0    0    0    0  0.00000000000E+00  0.00000000000E+00  0.45593999997E+02  0.45594000000E+02  0.51100000000E-03 0.  1.
         11   -1    0    0    0    0 -0.00000000000E+00 -0.00000000000E+00 -0.45593999997E+02  0.45594000000E+02  0.51100000000E-03 0. -1.
         23    2    1    2    0    0  0.71054273576E-14  0.22204460493E-14  0.00000000000E+00  0.91188000000E+02  0.91188000000E+02 0.  0.
    9900012    2    3    3    0    0  0.35039395375E+02 -0.32235471232E+01  0.10845646775E+02  0.54367101882E+02  0.40000040360E+02 0.  0.
         12    1    3    3    0    0 -0.35039395375E+02  0.32235471232E+01 -0.10845646775E+02  0.36820898118E+02  0.00000000000E+00 0. -1.
         11    1    4    4    0    0 -0.71225698624E+00  0.29636884947E+01  0.49418852105E+01  0.58062887633E+01  0.51100000000E-03 0. -1.
        -11    1    4    4    0    0  0.96366802510E+01 -0.17305748419E+02  0.28971024234E+01  0.20018684705E+02  0.51100000000E-03 0.  1.
        -12    1    4    4    0    0  0.26114972110E+02  0.11118512801E+02  0.30066591406E+01  0.28542128414E+02  0.00000000000E+00 0.  1.
</event>
<event>
 8    1  0.2530183E-006  0.9118800E+02  0.7816164E-02  0.1184000E+00
        -11   -1    0    0    0    0  0.00000000000E+00  0.00000000000E+00  0.45593999997E+02  0.45594000000E+02  0.51100000000E-03 0.  1.
         11   -1    0    0    0    0 -0.00000000000E+00 -0.00000000000E+00 -0.45593999997E+02  0.45594000000E+02  0.51100000000E-03 0. -1.
         23    2    1    2    0    0  0.00000000000E+00 -0.18041124150E-15  0.00000000000E+00  0.91188000000E+02  0.91188000000E+02 0.  0.
    9900012    2    3    3    0    0  0.33733463283E+02  0.10050664217E+00 -0.14759173505E+02  0.54366948288E+02  0.39999690211E+02 0.  0.
        -12    1    3    3    0    0 -0.33733463283E+02 -0.10050664217E+00  0.14759173505E+02  0.36821051712E+02  0.00000000000E+00 0.  1.
         11    1    4    4    0    0  0.19857580180E+02  0.68716000808E+01 -0.34292973445E+01  0.21290900846E+02  0.51100000000E-03 0. -1.
        -11    1    4    4    0    0  0.20894042834E+02 -0.71904617135E-01 -0.10371188476E+02  0.23326545970E+02  0.51100000000E-03 0.  1.
        -12    1    4    4    0    0 -0.70181597315E+01 -0.66991888215E+01 -0.95868768396E+00  0.97495014723E+01  0.00000000000E+00 0.  1.
</event>
<event>
 8    1  0.2530183E-006  0.9118800E+02  0.7816164E-02  0.1184000E+00
        -11   -1    0    0    0    0  0.00000000000E+00  0.00000000000E+00  0.45593999997E+02  0.45594000000E+02  0.51100000000E-03 0.  1.
         11   -1    0    0    0    0 -0.00000000000E+00 -0.00000000000E+00 -0.45593999997E+02  0.45594000000E+02  0.51100000000E-03 0. -1.
         23    2    1    2    0    0 -0.35527136788E-14 -0.35527136788E-14  0.17763568394E-14  0.91188000000E+02  0.91188000000E+02 0.  0.
    9900012    2    3    3    0    0 -0.18448990732E+02  0.30465119930E+02  0.93429290753E+01  0.54367094049E+02  0.40000022503E+02 0.  0.
         12    1    3    3    0    0  0.18448990732E+02 -0.30465119930E+02 -0.93429290753E+01  0.36820905951E+02  0.00000000000E+00 0. -1.
         11    1    4    4    0    0  0.23430073666E+01  0.21089319043E+02  0.68598375320E+01  0.22300368438E+02  0.51100000000E-03 0.  1.
        -11    1    4    4    0    0 -0.14278332582E+02  0.12625497237E+01  0.11438771852E+02  0.18338765359E+02  0.51100000000E-03 0. -1.
         12    1    4    4    0    0 -0.65136655164E+01  0.81132511628E+01 -0.89556803090E+01  0.13727960252E+02  0.00000000000E+00 0. -1.
</event>
<event>
 8    1  0.2530183E-006  0.9118800E+02  0.7816164E-02  0.1184000E+00
        -11   -1    0    0    0    0  0.00000000000E+00  0.00000000000E+00  0.45593999997E+02  0.45594000000E+02  0.51100000000E-03 0.  1.
         11   -1    0    0    0    0 -0.00000000000E+00 -0.00000000000E+00 -0.45593999997E+02  0.45594000000E+02  0.51100000000E-03 0. -1.
         23    2    1    2    0    0  0.35527136788E-14 -0.35527136788E-14  0.00000000000E+00  0.91188000000E+02  0.91188000000E+02 0.  0.
    9900012    2    3    3    0    0  0.30155432686E+02 -0.20567097126E+02  0.48399155904E+01  0.54367076769E+02  0.39999983111E+02 0.  0.
         12    1    3    3    0    0 -0.30155432686E+02  0.20567097126E+02 -0.48399155904E+01  0.36820923231E+02  0.00000000000E+00 0. -1.
         11    1    4    4    0    0  0.21702679300E+02 -0.57478161249E+01 -0.82685807201E+01  0.23925156350E+02  0.51100000000E-03 0. -1.
        -11    1    4    4    0    0  0.18834926307E-01 -0.15459221012E+02  0.76448070718E+00  0.15478123273E+02  0.51100000000E-03 0.  1.
         12    1    4    4    0    0  0.84339184592E+01  0.63994001101E+00  0.12344015603E+02  0.14963797145E+02  0.00000000000E+00 0. -1.
</event>
<event>
 8    1  0.2530183E-006  0.9118800E+02  0.7816164E-02  0.1184000E+00
        -11   -1    0    0    0    0  0.00000000000E+00  0.00000000000E+00  0.45593999997E+02  0.45594000000E+02  0.51100000000E-03 0.  1.
         11   -1    0    0    0    0 -0.00000000000E+00 -0.00000000000E+00 -0.45593999997E+02  0.45594000000E+02  0.51100000000E-03 0. -1.
         23    2    1    2    0    0 -0.13322676296E-14  0.00000000000E+00  0.00000000000E+00  0.91188000000E+02  0.91188000000E+02 0.  0.
    9900012    2    3    3    0    0 -0.19127549677E+01 -0.17822548005E+02  0.32163296290E+02  0.54367089132E+02  0.40000011293E+02 0.  0.
         12    1    3    3    0    0  0.19127549677E+01  0.17822548005E+02 -0.32163296290E+02  0.36820910868E+02  0.00000000000E+00 0. -1.
         11    1    4    4    0    0  0.52599346916E+01 -0.13107979195E+02 -0.15688679306E+01  0.14210819061E+02  0.51100000000E-03 0. -1.
        -11    1    4    4    0    0 -0.47593978355E+01 -0.10324909572E+02  0.84993997005E+01  0.14194908276E+02  0.51100000000E-03 0.  1.
         12    1    4    4    0    0 -0.24132918238E+01  0.56103407627E+01  0.25232764520E+02  0.25961361794E+02  0.00000000000E+00 0. -1.
</event>
<event>
 8    1  0.2530183E-006  0.9118800E+02  0.7816164E-02  0.1184000E+00
        -11   -1    0    0    0    0  0.00000000000E+00  0.00000000000E+00  0.45593999997E+02  0.45594000000E+02  0.51100000000E-03 0.  1.
         11   -1    0    0    0    0 -0.00000000000E+00 -0.00000000000E+00 -0.45593999997E+02  0.45594000000E+02  0.51100000000E-03 0. -1.
         23    2    1    2    0    0  0.35527136788E-14 -0.35527136788E-14  0.88817841970E-15  0.91188000000E+02  0.91188000000E+02 0.  0.
    9900012    2    3    3    0    0  0.21519522358E+02 -0.29578465985E+02  0.42195163760E+01  0.54367084599E+02  0.40000000960E+02 0.  0.
         12    1    3    3    0    0 -0.21519522358E+02  0.29578465985E+02 -0.42195163760E+01  0.36820915401E+02  0.00000000000E+00 0. -1.
         11    1    4    4    0    0 -0.77398658473E+01 -0.48928871863E+01  0.58839052337E+01  0.10884218365E+02  0.51100000000E-03 0. -1.
        -11    1    4    4    0    0  0.69977556808E+01 -0.50722535699E+01  0.84987151702E+01  0.12121241712E+02  0.51100000000E-03 0.  1.
         12    1    4    4    0    0  0.22261632524E+02 -0.19613325228E+02 -0.10163104028E+02  0.31361624522E+02  0.00000000000E+00 0. -1.
</event>
<event>
 8    1  0.2530183E-006  0.9118800E+02  0.7816164E-02  0.1184000E+00
        -11   -1    0    0    0    0  0.00000000000E+00  0.00000000000E+00  0.45593999997E+02  0.45594000000E+02  0.51100000000E-03 0. -1.
         11   -1    0    0    0    0 -0.00000000000E+00 -0.00000000000E+00 -0.45593999997E+02  0.45594000000E+02  0.51100000000E-03 0.  1.
         23    2    1    2    0    0  0.00000000000E+00 -0.35527136788E-14 -0.35527136788E-14  0.91188000000E+02  0.91188000000E+02 0.  0.
    9900012    2    3    3    0    0  0.17636713600E+02  0.11915926671E+02  0.30045586453E+02  0.54367078768E+02  0.39999987668E+02 0.  0.
        -12    1    3    3    0    0 -0.17636713600E+02 -0.11915926671E+02 -0.30045586453E+02  0.36820921232E+02  0.00000000000E+00 0.  1.
         11    1    4    4    0    0  0.50021984056E+01  0.20036356627E+01 -0.29269901887E+01  0.61321950869E+01  0.51100000000E-03 0. -1.
        -11    1    4    4    0    0  0.41849691148E+01 -0.72767512113E+01 -0.17547298190E+01  0.85757886916E+01  0.51100000000E-03 0.  1.
        -12    1    4    4    0    0  0.84495460795E+01  0.17189042219E+02  0.34727306461E+02  0.39659094990E+02  0.00000000000E+00 0.  1.
</event>
<event>
 8    1  0.2530183E-006  0.9118800E+02  0.7816164E-02  0.1184000E+00
        -11   -1    0    0    0    0  0.00000000000E+00  0.00000000000E+00  0.45593999997E+02  0.45594000000E+02  0.51100000000E-03 0. -1.
         11   -1    0    0    0    0 -0.00000000000E+00 -0.00000000000E+00 -0.45593999997E+02  0.45594000000E+02  0.51100000000E-03 0.  1.
         23    2    1    2    0    0  0.00000000000E+00  0.00000000000E+00  0.00000000000E+00  0.91188000000E+02  0.91188000000E+02 0.  0.
    9900012    2    3    3    0    0  0.21194498258E+01 -0.14232078890E+02  0.33892999056E+02  0.54367088521E+02  0.40000009902E+02 0.  0.
        -12    1    3    3    0    0 -0.21194498258E+01  0.14232078890E+02 -0.33892999056E+02  0.36820911479E+02  0.00000000000E+00 0.  1.
         11    1    4    4    0    0 -0.12159694592E+02 -0.51097015779E+00  0.27143903100E+01  0.12469449791E+02  0.51100000000E-03 0. -1.
        -11    1    4    4    0    0  0.31698529430E+01 -0.70258305351E+01 -0.44159781331E+00  0.77204450182E+01  0.51100000000E-03 0.  1.
         12    1    4    4    0    0  0.11109291474E+02 -0.66952781972E+01  0.31620206560E+02  0.34177193713E+02  0.00000000000E+00 0. -1.
</event>
<event>
 8    1  0.2530183E-006  0.9118800E+02  0.7816164E-02  0.1184000E+00
        -11   -1    0    0    0    0  0.00000000000E+00  0.00000000000E+00  0.45593999997E+02  0.45594000000E+02  0.51100000000E-03 0. -1.
         11   -1    0    0    0    0 -0.00000000000E+00 -0.00000000000E+00 -0.45593999997E+02  0.45594000000E+02  0.51100000000E-03 0.  1.
         23    2    1    2    0    0  0.00000000000E+00  0.00000000000E+00  0.00000000000E+00  0.91188000000E+02  0.91188000000E+02 0.  0.
    9900012    2    3    3    0    0  0.22716476494E+02 -0.69429493949E+01  0.28134253215E+02  0.54367094870E+02  0.40000024375E+02 0.  0.
        -12    1    3    3    0    0 -0.22716476494E+02  0.69429493949E+01 -0.28134253215E+02  0.36820905130E+02  0.00000000000E+00 0.  1.
         11    1    4    4    0    0 -0.28974466259E+00  0.89304105965E+01  0.10451419393E+02  0.13750212834E+02  0.51100000000E-03 0. -1.
        -11    1    4    4    0    0  0.26143560208E+02 -0.12517963296E+02  0.20245971656E+02  0.35356534247E+02  0.51100000000E-03 0.  1.
        -12    1    4    4    0    0 -0.31373390512E+01 -0.33553966957E+01 -0.25631378332E+01  0.52603477889E+01  0.00000000000E+00 0.  1.
</event>
<event>
 8    1  0.2530183E-006  0.9118800E+02  0.7816164E-02  0.1184000E+00
        -11   -1    0    0    0    0  0.00000000000E+00  0.00000000000E+00  0.45593999997E+02  0.45594000000E+02  0.51100000000E-03 0. -1.
         11   -1    0    0    0    0 -0.00000000000E+00 -0.00000000000E+00 -0.45593999997E+02  0.45594000000E+02  0.51100000000E-03 0.  1.
         23    2    1    2    0    0  0.88817841970E-15  0.00000000000E+00  0.00000000000E+00  0.91188000000E+02  0.91188000000E+02 0.  0.
    9900012    2    3    3    0    0 -0.66911919199E+01  0.95592117848E+01 -0.34923207118E+02  0.54367068797E+02  0.39999964936E+02 0.  0.
         12    1    3    3    0    0  0.66911919199E+01 -0.95592117848E+01  0.34923207118E+02  0.36820931203E+02  0.00000000000E+00 0. -1.
         11    1    4    4    0    0  0.13224635848E+02  0.13978685732E+01 -0.24509316152E+01  0.13522281460E+02  0.51100000000E-03 0. -1.
        -11    1    4    4    0    0 -0.32259069041E+01 -0.89200610330E+00 -0.13853293241E+02  0.14251873004E+02  0.51100000000E-03 0.  1.
        -12    1    4    4    0    0 -0.16689920863E+02  0.90533493149E+01 -0.18618982262E+02  0.26592914333E+02  0.00000000000E+00 0.  1.
</event>
<event>
 8    1  0.2530183E-006  0.9118800E+02  0.7816164E-02  0.1184000E+00
        -11   -1    0    0    0    0  0.00000000000E+00  0.00000000000E+00  0.45593999997E+02  0.45594000000E+02  0.51100000000E-03 0. -1.
         11   -1    0    0    0    0 -0.00000000000E+00 -0.00000000000E+00 -0.45593999997E+02  0.45594000000E+02  0.51100000000E-03 0.  1.
         23    2    1    2    0    0  0.35527136788E-14  0.00000000000E+00 -0.17763568394E-14  0.91188000000E+02  0.91188000000E+02 0.  0.
    9900012    2    3    3    0    0 -0.26658499287E+02  0.24370935305E+02  0.71527650123E+01  0.54367080414E+02  0.39999991419E+02 0.  0.
         12    1    3    3    0    0  0.26658499287E+02 -0.24370935305E+02 -0.71527650123E+01  0.36820919586E+02  0.00000000000E+00 0. -1.
         11    1    4    4    0    0 -0.21523862247E+02  0.17909165014E+02  0.16168198941E+02  0.32333040297E+02  0.51100000000E-03 0. -1.
        -11    1    4    4    0    0 -0.11289864201E+02  0.64277947335E+01 -0.91281633162E+01  0.15877687004E+02  0.51100000000E-03 0.  1.
         12    1    4    4    0    0  0.61552271610E+01  0.33975556756E-01  0.11272938740E+00  0.61563531134E+01  0.00000000000E+00 0. -1.
</event>
<event>
 8    1  0.2530183E-006  0.9118800E+02  0.7816164E-02  0.1184000E+00
        -11   -1    0    0    0    0  0.00000000000E+00  0.00000000000E+00  0.45593999997E+02  0.45594000000E+02  0.51100000000E-03 0.  1.
         11   -1    0    0    0    0 -0.00000000000E+00 -0.00000000000E+00 -0.45593999997E+02  0.45594000000E+02  0.51100000000E-03 0. -1.
         23    2    1    2    0    0  0.71054273576E-14 -0.35527136788E-14  0.00000000000E+00  0.91188000000E+02  0.91188000000E+02 0.  0.
    9900012    2    3    3    0    0  0.31243768490E+02 -0.17114788002E+02 -0.93107494310E+01  0.54367094351E+02  0.40000023193E+02 0.  0.
        -12    1    3    3    0    0 -0.31243768490E+02  0.17114788002E+02  0.93107494310E+01  0.36820905649E+02  0.00000000000E+00 0.  1.
         11    1    4    4    0    0  0.21175409241E+02  0.71133239617E+00 -0.42985647815E+01  0.21619010378E+02  0.51100000000E-03 0. -1.
        -11    1    4    4    0    0 -0.64656219081E+00 -0.12720013729E+02 -0.13188981225E+02  0.18334830731E+02  0.51100000000E-03 0.  1.
        -12    1    4    4    0    0  0.10714921440E+02 -0.51061066688E+01  0.81767965752E+01  0.14413253242E+02  0.00000000000E+00 0.  1.
</event>
<event>
 8    1  0.2530183E-006  0.9118800E+02  0.7816164E-02  0.1184000E+00
        -11   -1    0    0    0    0  0.00000000000E+00  0.00000000000E+00  0.45593999997E+02  0.45594000000E+02  0.51100000000E-03 0.  1.
         11   -1    0    0    0    0 -0.00000000000E+00 -0.00000000000E+00 -0.45593999997E+02  0.45594000000E+02  0.51100000000E-03 0. -1.
         23    2    1    2    0    0  0.35527136788E-14  0.00000000000E+00  0.00000000000E+00  0.91188000000E+02  0.91188000000E+02 0.  0.
    9900012    2    3    3    0    0 -0.28514948859E+02 -0.21235442063E+02 -0.95777839982E+01  0.54367078578E+02  0.39999987235E+02 0.  0.
        -12    1    3    3    0    0  0.28514948859E+02  0.21235442063E+02  0.95777839982E+01  0.36820921422E+02  0.00000000000E+00 0.  1.
         11    1    4    4    0    0  0.16504795501E+00  0.35311870192E+01 -0.25403457298E+01  0.43531459061E+01  0.51100000000E-03 0. -1.
        -11    1    4    4    0    0  0.26005215695E+01 -0.34607990286E+01  0.81538732577E+01  0.92317653628E+01  0.51100000000E-03 0.  1.
         12    1    4    4    0    0 -0.31280518383E+02 -0.21305830053E+02 -0.15191311526E+02  0.40782167310E+02  0.00000000000E+00 0. -1.
</event>
<event>
 8    1  0.2530183E-006  0.9118800E+02  0.7816164E-02  0.1184000E+00
        -11   -1    0    0    0    0  0.00000000000E+00  0.00000000000E+00  0.45593999997E+02  0.45594000000E+02  0.51100000000E-03 0.  1.
         11   -1    0    0    0    0 -0.00000000000E+00 -0.00000000000E+00 -0.45593999997E+02  0.45594000000E+02  0.51100000000E-03 0. -1.
         23    2    1    2    0    0 -0.71054273576E-14 -0.88817841970E-15  0.00000000000E+00  0.91188000000E+02  0.91188000000E+02 0.  0.
    9900012    2    3    3    0    0 -0.35592173311E+02 -0.18215527047E+01  0.92552039022E+01  0.54367086723E+02  0.40000005803E+02 0.  0.
         12    1    3    3    0    0  0.35592173311E+02  0.18215527047E+01 -0.92552039022E+01  0.36820913277E+02  0.00000000000E+00 0. -1.
         11    1    4    4    0    0 -0.52302471177E+01  0.80412343085E+01 -0.50370683306E+01  0.10834620055E+02  0.51100000000E-03 0. -1.
        -11    1    4    4    0    0 -0.26087037069E+02  0.39734574742E+01  0.69092473117E+01  0.27277455271E+02  0.51100000000E-03 0.  1.
         12    1    4    4    0    0 -0.42748891241E+01 -0.13836244487E+02  0.73830249211E+01  0.16255011397E+02  0.00000000000E+00 0. -1.
</event>
<event>
 8    1  0.2530183E-006  0.9118800E+02  0.7816164E-02  0.1184000E+00
        -11   -1    0    0    0    0  0.00000000000E+00  0.00000000000E+00  0.45593999997E+02  0.45594000000E+02  0.51100000000E-03 0.  1.
         11   -1    0    0    0    0 -0.00000000000E+00 -0.00000000000E+00 -0.45593999997E+02  0.45594000000E+02  0.51100000000E-03 0. -1.
         23    2    1    2    0    0  0.00000000000E+00 -0.71054273576E-14 -0.17763568394E-14  0.91188000000E+02  0.91188000000E+02 0.  0.
    9900012    2    3    3    0    0 -0.59039980613E+01 -0.33506867145E+02 -0.14078794619E+02  0.54367084790E+02  0.40000001397E+02 0.  0.
        -12    1    3    3    0    0  0.59039980613E+01  0.33506867145E+02  0.14078794619E+02  0.36820915210E+02  0.00000000000E+00 0.  1.
         11    1    4    4    0    0  0.88590684433E+01 -0.91597954413E+01  0.45741155207E+01  0.13539109249E+02  0.51100000000E-03 0. -1.
        -11    1    4    4    0    0 -0.21718912277E+01  0.44793804035E+00  0.42553801546E+01  0.47985435826E+01  0.51100000000E-03 0.  1.
         12    1    4    4    0    0 -0.12591175277E+02 -0.24795009744E+02 -0.22908290294E+02  0.36029431958E+02  0.00000000000E+00 0. -1.
</event>
<event>
 8    1  0.2530183E-006  0.9118800E+02  0.7816164E-02  0.1184000E+00
        -11   -1    0    0    0    0  0.00000000000E+00  0.00000000000E+00  0.45593999997E+02  0.45594000000E+02  0.51100000000E-03 0.  1.
         11   -1    0    0    0    0 -0.00000000000E+00 -0.00000000000E+00 -0.45593999997E+02  0.45594000000E+02  0.51100000000E-03 0. -1.
         23    2    1    2    0    0  0.00000000000E+00  0.00000000000E+00  0.88817841970E-15  0.91188000000E+02  0.91188000000E+02 0.  0.
    9900012    2    3    3    0    0 -0.34899951651E+02  0.99356307494E+01  0.62494400912E+01  0.54367097172E+02  0.40000029622E+02 0.  0.
         12    1    3    3    0    0  0.34899951651E+02 -0.99356307494E+01 -0.62494400912E+01  0.36820902828E+02  0.00000000000E+00 0. -1.
         11    1    4    4    0    0  0.23541742556E+00  0.62626390628E+01 -0.54776108775E+01  0.83234782742E+01  0.51100000000E-03 0. -1.
        -11    1    4    4    0    0 -0.19499884640E+02  0.83305934024E+01 -0.59150472195E+01  0.22014360569E+02  0.51100000000E-03 0.  1.
        -12    1    4    4    0    0 -0.15635484437E+02 -0.46576017157E+01  0.17642098188E+02  0.24029258328E+02  0.00000000000E+00 0.  1.
</event>
<event>
 8    1  0.2530183E-006  0.9118800E+02  0.7816164E-02  0.1184000E+00
        -11   -1    0    0    0    0  0.00000000000E+00  0.00000000000E+00  0.45593999997E+02  0.45594000000E+02  0.51100000000E-03 0. -1.
         11   -1    0    0    0    0 -0.00000000000E+00 -0.00000000000E+00 -0.45593999997E+02  0.45594000000E+02  0.51100000000E-03 0.  1.
         23    2    1    2    0    0  0.00000000000E+00 -0.17763568394E-14 -0.17763568394E-14  0.91188000000E+02  0.91188000000E+02 0.  0.
    9900012    2    3    3    0    0  0.34163113920E+02  0.10229994701E+02 -0.91655731904E+01  0.54367097292E+02  0.40000029897E+02 0.  0.
        -12    1    3    3    0    0 -0.34163113920E+02 -0.10229994701E+02  0.91655731904E+01  0.36820902708E+02  0.00000000000E+00 0.  1.
         11    1    4    4    0    0  0.13340642697E+02  0.16021513864E+02 -0.55675429155E+01  0.21579137806E+02  0.51100000000E-03 0. -1.
        -11    1    4    4    0    0  0.90386723806E+00 -0.76603042282E+01  0.67627137291E+01  0.10258242252E+02  0.51100000000E-03 0.  1.
        -12    1    4    4    0    0  0.19918603986E+02  0.18687850651E+01 -0.10360744004E+02  0.22529717235E+02  0.00000000000E+00 0.  1.
</event>
<event>
 8    1  0.2530183E-006  0.9118800E+02  0.7816164E-02  0.1184000E+00
        -11   -1    0    0    0    0  0.00000000000E+00  0.00000000000E+00  0.45593999997E+02  0.45594000000E+02  0.51100000000E-03 0. -1.
         11   -1    0    0    0    0 -0.00000000000E+00 -0.00000000000E+00 -0.45593999997E+02  0.45594000000E+02  0.51100000000E-03 0.  1.
         23    2    1    2    0    0 -0.88817841970E-15  0.00000000000E+00  0.00000000000E+00  0.91188000000E+02  0.91188000000E+02 0.  0.
    9900012    2    3    3    0    0  0.23412615720E+01  0.13149937149E+02 -0.34312921942E+02  0.54367096087E+02  0.40000027149E+02 0.  0.
         12    1    3    3    0    0 -0.23412615720E+01 -0.13149937149E+02  0.34312921942E+02  0.36820903913E+02  0.00000000000E+00 0. -1.
         11    1    4    4    0    0  0.10123559445E+02  0.92108676241E+01 -0.38300551324E+01  0.14212524786E+02  0.51100000000E-03 0. -1.
        -11    1    4    4    0    0  0.43683276920E+01  0.68872549275E+01 -0.25365966516E+02  0.26644864887E+02  0.51100000000E-03 0.  1.
        -12    1    4    4    0    0 -0.12150625565E+02 -0.29481854022E+01 -0.51169002933E+01  0.13509706414E+02  0.00000000000E+00 0.  1.
</event>
<event>
 8    1  0.2530183E-006  0.9118800E+02  0.7816164E-02  0.1184000E+00
        -11   -1    0    0    0    0  0.00000000000E+00  0.00000000000E+00  0.45593999997E+02  0.45594000000E+02  0.51100000000E-03 0. -1.
         11   -1    0    0    0    0 -0.00000000000E+00 -0.00000000000E+00 -0.45593999997E+02  0.45594000000E+02  0.51100000000E-03 0.  1.
         23    2    1    2    0    0 -0.17763568394E-14  0.00000000000E+00  0.00000000000E+00  0.91188000000E+02  0.91188000000E+02 0.  0.
    9900012    2    3    3    0    0  0.11033801668E+02 -0.88196960112E+01  0.34003645036E+02  0.54367086205E+02  0.40000004622E+02 0.  0.
        -12    1    3    3    0    0 -0.11033801668E+02  0.88196960112E+01 -0.34003645036E+02  0.36820913795E+02  0.00000000000E+00 0.  1.
         11    1    4    4    0    0 -0.35436410819E+01 -0.16024033671E+02  0.10750646524E+02  0.19618956347E+02  0.51100000000E-03 0.  1.
        -11    1    4    4    0    0  0.11815271429E+02 -0.53446679347E+01  0.11979345787E+02  0.17654201767E+02  0.51100000000E-03 0. -1.
         12    1    4    4    0    0  0.27621713205E+01  0.12549005595E+02  0.11273652725E+02  0.17093928091E+02  0.00000000000E+00 0. -1.
</event>
<event>
 8    1  0.2530183E-006  0.9118800E+02  0.7816164E-02  0.1184000E+00
        -11   -1    0    0    0    0  0.00000000000E+00  0.00000000000E+00  0.45593999997E+02  0.45594000000E+02  0.51100000000E-03 0. -1.
         11   -1    0    0    0    0 -0.00000000000E+00 -0.00000000000E+00 -0.45593999997E+02  0.45594000000E+02  0.51100000000E-03 0.  1.
         23    2    1    2    0    0  0.00000000000E+00 -0.44408920985E-15  0.00000000000E+00  0.91188000000E+02  0.91188000000E+02 0.  0.
    9900012    2    3    3    0    0 -0.28261235927E+02 -0.23216267787E+01 -0.23488152632E+02  0.54367072240E+02  0.39999972786E+02 0.  0.
         12    1    3    3    0    0  0.28261235927E+02  0.23216267787E+01  0.23488152632E+02  0.36820927760E+02  0.00000000000E+00 0. -1.
         11    1    4    4    0    0 -0.60555119324E+01  0.44333831582E+01 -0.12530352561E+02  0.14605952436E+02  0.51100000000E-03 0. -1.
        -11    1    4    4    0    0 -0.20196633625E+02  0.53321852946E+01 -0.16199430236E+02  0.26434026368E+02  0.51100000000E-03 0.  1.
         12    1    4    4    0    0 -0.20090903691E+01 -0.12087195231E+02  0.52416301645E+01  0.13327093436E+02  0.00000000000E+00 0. -1.
</event>
<event>
 8    1  0.2530183E-006  0.9118800E+02  0.7816164E-02  0.1184000E+00
        -11   -1    0    0    0    0  0.00000000000E+00  0.00000000000E+00  0.45593999997E+02  0.45594000000E+02  0.51100000000E-03 0. -1.
         11   -1    0    0    0    0 -0.00000000000E+00 -0.00000000000E+00 -0.45593999997E+02  0.45594000000E+02  0.51100000000E-03 0.  1.
         23    2    1    2    0    0  0.00000000000E+00 -0.35527136788E-14  0.35527136788E-14  0.91188000000E+02  0.91188000000E+02 0.  0.
    9900012    2    3    3    0    0 -0.18063954239E+02  0.16403470470E+02 -0.27575332028E+02  0.54367092588E+02  0.40000019172E+02 0.  0.
         12    1    3    3    0    0  0.18063954239E+02 -0.16403470470E+02  0.27575332028E+02  0.36820907412E+02  0.00000000000E+00 0. -1.
         11    1    4    4    0    0 -0.14786228332E+02  0.17193658273E+02 -0.35213460471E+01  0.22948950114E+02  0.51100000000E-03 0. -1.
        -11    1    4    4    0    0  0.69513968463E+01 -0.49180503577E+01 -0.66121111791E+01  0.10780962477E+02  0.51100000000E-03 0.  1.
        -12    1    4    4    0    0 -0.10229122753E+02  0.41278625547E+01 -0.17441874802E+02  0.20637179996E+02  0.00000000000E+00 0.  1.
</event>
<event>
 8    1  0.2530183E-006  0.9118800E+02  0.7816164E-02  0.1184000E+00
        -11   -1    0    0    0    0  0.00000000000E+00  0.00000000000E+00  0.45593999997E+02  0.45594000000E+02  0.51100000000E-03 0.  1.
         11   -1    0    0    0    0 -0.00000000000E+00 -0.00000000000E+00 -0.45593999997E+02  0.45594000000E+02  0.51100000000E-03 0. -1.
         23    2    1    2    0    0  0.71054273576E-14  0.00000000000E+00 -0.11102230246E-14  0.91188000000E+02  0.91188000000E+02 0.  0.
    9900012    2    3    3    0    0 -0.25542131814E+02 -0.26484851969E+02  0.13891939518E+01  0.54367112704E+02  0.40000065032E+02 0.  0.
        -12    1    3    3    0    0  0.25542131814E+02  0.26484851969E+02 -0.13891939518E+01  0.36820887296E+02  0.00000000000E+00 0.  1.
         11    1    4    4    0    0  0.40112135957E+01 -0.82888459718E+01  0.10832951067E+02  0.14217863100E+02  0.51100000000E-03 0. -1.
        -11    1    4    4    0    0 -0.32407935788E+01 -0.11384106944E+02 -0.31991517921E+01  0.12261125820E+02  0.51100000000E-03 0.  1.
        -12    1    4    4    0    0 -0.26312551831E+02 -0.68118990533E+01 -0.62446053233E+01  0.27888123784E+02  0.00000000000E+00 0.  1.
</event>
<event>
 8    1  0.2530183E-006  0.9118800E+02  0.7816164E-02  0.1184000E+00
        -11   -1    0    0    0    0  0.00000000000E+00  0.00000000000E+00  0.45593999997E+02  0.45594000000E+02  0.51100000000E-03 0. -1.
         11   -1    0    0    0    0 -0.00000000000E+00 -0.00000000000E+00 -0.45593999997E+02  0.45594000000E+02  0.51100000000E-03 0.  1.
         23    2    1    2    0    0 -0.17763568394E-14  0.00000000000E+00  0.35527136788E-14  0.91188000000E+02  0.91188000000E+02 0.  0.
    9900012    2    3    3    0    0  0.53560164470E+01 -0.17468693699E+02 -0.31967806441E+02  0.54367043734E+02  0.39999907800E+02 0.  0.
         12    1    3    3    0    0 -0.53560164470E+01  0.17468693699E+02  0.31967806441E+02  0.36820956266E+02  0.00000000000E+00 0. -1.
         11    1    4    4    0    0  0.32027244345E+00  0.55937868757E+01 -0.52362715547E+00  0.56273627667E+01  0.51100000000E-03 0. -1.
        -11    1    4    4    0    0 -0.21065695762E+01  0.14207912922E+01 -0.21044025475E+02  0.21196869857E+02  0.51100000000E-03 0.  1.
        -12    1    4    4    0    0  0.71423135797E+01 -0.24483271867E+02 -0.10400153810E+02  0.27542811110E+02  0.00000000000E+00 0.  1.
</event>
<event>
 8    1  0.2530183E-006  0.9118800E+02  0.7816164E-02  0.1184000E+00
        -11   -1    0    0    0    0  0.00000000000E+00  0.00000000000E+00  0.45593999997E+02  0.45594000000E+02  0.51100000000E-03 0. -1.
         11   -1    0    0    0    0 -0.00000000000E+00 -0.00000000000E+00 -0.45593999997E+02  0.45594000000E+02  0.51100000000E-03 0.  1.
         23    2    1    2    0    0  0.33306690739E-15  0.00000000000E+00  0.00000000000E+00  0.91188000000E+02  0.91188000000E+02 0.  0.
    9900012    2    3    3    0    0  0.54674247546E+00  0.17085786167E+02 -0.32612209009E+02  0.54367092995E+02  0.40000020100E+02 0.  0.
         12    1    3    3    0    0 -0.54674247546E+00 -0.17085786167E+02  0.32612209009E+02  0.36820907005E+02  0.00000000000E+00 0. -1.
         11    1    4    4    0    0  0.12429560639E+02 -0.31364323838E+01 -0.11612578360E+02  0.17296911927E+02  0.51100000000E-03 0. -1.
        -11    1    4    4    0    0 -0.81016235498E+01  0.17844716702E+02 -0.46778160264E+01  0.20148255045E+02  0.51100000000E-03 0.  1.
        -12    1    4    4    0    0 -0.37811946139E+01  0.23775018482E+01 -0.16321814622E+02  0.16921926023E+02  0.00000000000E+00 0.  1.
</event>
<event>
 8    1  0.2530183E-006  0.9118800E+02  0.7816164E-02  0.1184000E+00
        -11   -1    0    0    0    0  0.00000000000E+00  0.00000000000E+00  0.45593999997E+02  0.45594000000E+02  0.51100000000E-03 0.  1.
         11   -1    0    0    0    0 -0.00000000000E+00 -0.00000000000E+00 -0.45593999997E+02  0.45594000000E+02  0.51100000000E-03 0. -1.
         23    2    1    2    0    0  0.35527136788E-14  0.00000000000E+00  0.17763568394E-14  0.91188000000E+02  0.91188000000E+02 0.  0.
    9900012    2    3    3    0    0  0.25779866450E+02 -0.21419075729E+02  0.15244724000E+02  0.54367082995E+02  0.39999997303E+02 0.  0.
         12    1    3    3    0    0 -0.25779866450E+02  0.21419075729E+02 -0.15244724000E+02  0.36820917005E+02  0.00000000000E+00 0. -1.
         11    1    4    4    0    0  0.22208609047E+02 -0.17523977780E+02 -0.50490716331E+01  0.28736827202E+02  0.51100000000E-03 0. -1.
        -11    1    4    4    0    0 -0.24632686081E+01 -0.77237941539E+01  0.78767390408E+01  0.11303437820E+02  0.51100000000E-03 0.  1.
         12    1    4    4    0    0  0.60345260117E+01  0.38286962044E+01  0.12417056592E+02  0.14326817973E+02  0.00000000000E+00 0. -1.
</event>
<event>
 8    1  0.2530183E-006  0.9118800E+02  0.7816164E-02  0.1184000E+00
        -11   -1    0    0    0    0  0.00000000000E+00  0.00000000000E+00  0.45593999997E+02  0.45594000000E+02  0.51100000000E-03 0.  1.
         11   -1    0    0    0    0 -0.00000000000E+00 -0.00000000000E+00 -0.45593999997E+02  0.45594000000E+02  0.51100000000E-03 0. -1.
         23    2    1    2    0    0  0.00000000000E+00  0.00000000000E+00 -0.35527136788E-14  0.91188000000E+02  0.91188000000E+02 0.  0.
    9900012    2    3    3    0    0 -0.11415355194E+02  0.31033771396E+02 -0.16197995182E+02  0.54367077290E+02  0.39999984298E+02 0.  0.
        -12    1    3    3    0    0  0.11415355194E+02 -0.31033771396E+02  0.16197995182E+02  0.36820922710E+02  0.00000000000E+00 0.  1.
         11    1    4    4    0    0  0.84730383330E+01  0.15306491554E+02 -0.32334390465E+01  0.17791463982E+02  0.51100000000E-03 0. -1.
        -11    1    4    4    0    0 -0.76045287085E+01  0.10004030271E+02 -0.18141602532E+02  0.22068693238E+02  0.51100000000E-03 0.  1.
        -12    1    4    4    0    0 -0.12283864819E+02  0.57232495717E+01  0.51770463965E+01  0.14506920071E+02  0.00000000000E+00 0.  1.
</event>
<event>
 8    1  0.2530183E-006  0.9118800E+02  0.7816164E-02  0.1184000E+00
        -11   -1    0    0    0    0  0.00000000000E+00  0.00000000000E+00  0.45593999997E+02  0.45594000000E+02  0.51100000000E-03 0.  1.
         11   -1    0    0    0    0 -0.00000000000E+00 -0.00000000000E+00 -0.45593999997E+02  0.45594000000E+02  0.51100000000E-03 0. -1.
         23    2    1    2    0    0  0.00000000000E+00  0.00000000000E+00  0.00000000000E+00  0.91188000000E+02  0.91188000000E+02 0.  0.
    9900012    2    3    3    0    0  0.31190043391E+02 -0.10512124800E+02  0.16506285643E+02  0.54367067906E+02  0.39999962906E+02 0.  0.
         12    1    3    3    0    0 -0.31190043391E+02  0.10512124800E+02 -0.16506285643E+02  0.36820932094E+02  0.00000000000E+00 0. -1.
         11    1    4    4    0    0  0.18485451229E+02 -0.45844953507E+01  0.27348844051E+02  0.33326997704E+02  0.51100000000E-03 0. -1.
        -11    1    4    4    0    0  0.13031477426E+02 -0.32982872792E+01 -0.45153636182E+01  0.14180501110E+02  0.51100000000E-03 0.  1.
         12    1    4    4    0    0 -0.32688526392E+00 -0.26293421698E+01 -0.63271947901E+01  0.68595690924E+01  0.00000000000E+00 0. -1.
</event>
<event>
 8    1  0.2530183E-006  0.9118800E+02  0.7816164E-02  0.1184000E+00
        -11   -1    0    0    0    0  0.00000000000E+00  0.00000000000E+00  0.45593999997E+02  0.45594000000E+02  0.51100000000E-03 0.  1.
         11   -1    0    0    0    0 -0.00000000000E+00 -0.00000000000E+00 -0.45593999997E+02  0.45594000000E+02  0.51100000000E-03 0. -1.
         23    2    1    2    0    0  0.35527136788E-14  0.00000000000E+00  0.00000000000E+00  0.91188000000E+02  0.91188000000E+02 0.  0.
    9900012    2    3    3    0    0  0.23284265282E+02  0.28250213099E+02 -0.39431215466E+01  0.54367085327E+02  0.40000002619E+02 0.  0.
         12    1    3    3    0    0 -0.23284265282E+02 -0.28250213099E+02  0.39431215466E+01  0.36820914673E+02  0.00000000000E+00 0. -1.
         11    1    4    4    0    0  0.27916771652E+01 -0.62089171228E+00 -0.39056470228E+01  0.48407692406E+01  0.51100000000E-03 0. -1.
        -11    1    4    4    0    0  0.25250909197E+02  0.68642493477E+01  0.45186563586E+01  0.26554558741E+02  0.51100000000E-03 0.  1.
         12    1    4    4    0    0 -0.47583210802E+01  0.22006855463E+02 -0.45561308824E+01  0.22971757345E+02  0.00000000000E+00 0. -1.
</event>
<event>
 8    1  0.2530183E-006  0.9118800E+02  0.7816164E-02  0.1184000E+00
        -11   -1    0    0    0    0  0.00000000000E+00  0.00000000000E+00  0.45593999997E+02  0.45594000000E+02  0.51100000000E-03 0.  1.
         11   -1    0    0    0    0 -0.00000000000E+00 -0.00000000000E+00 -0.45593999997E+02  0.45594000000E+02  0.51100000000E-03 0. -1.
         23    2    1    2    0    0  0.17763568394E-14 -0.35527136788E-14 -0.35527136788E-14  0.91188000000E+02  0.91188000000E+02 0.  0.
    9900012    2    3    3    0    0  0.15460647967E+02 -0.16295657582E+02 -0.29175337149E+02  0.54367076745E+02  0.39999983055E+02 0.  0.
        -12    1    3    3    0    0 -0.15460647967E+02  0.16295657582E+02  0.29175337149E+02  0.36820923255E+02  0.00000000000E+00 0.  1.
         11    1    4    4    0    0 -0.73991497408E+01 -0.32621348513E+00  0.41058315961E+01  0.84682752365E+01  0.51100000000E-03 0. -1.
        -11    1    4    4    0    0  0.64440018333E+01  0.20919860450E+01 -0.10599983715E+02  0.12580191583E+02  0.51100000000E-03 0.  1.
         12    1    4    4    0    0  0.16415795875E+02 -0.18061430142E+02 -0.22681185030E+02  0.33318609925E+02  0.00000000000E+00 0. -1.
</event>
<event>
 8    1  0.2530183E-006  0.9118800E+02  0.7816164E-02  0.1184000E+00
        -11   -1    0    0    0    0  0.00000000000E+00  0.00000000000E+00  0.45593999997E+02  0.45594000000E+02  0.51100000000E-03 0.  1.
         11   -1    0    0    0    0 -0.00000000000E+00 -0.00000000000E+00 -0.45593999997E+02  0.45594000000E+02  0.51100000000E-03 0. -1.
         23    2    1    2    0    0  0.00000000000E+00  0.00000000000E+00  0.00000000000E+00  0.91188000000E+02  0.91188000000E+02 0.  0.
    9900012    2    3    3    0    0  0.18663266398E+02 -0.12012595654E+02 -0.29379577459E+02  0.54367088297E+02  0.40000009390E+02 0.  0.
        -12    1    3    3    0    0 -0.18663266398E+02  0.12012595654E+02  0.29379577459E+02  0.36820911703E+02  0.00000000000E+00 0.  1.
         11    1    4    4    0    0  0.85569910129E+01  0.31414961141E+00 -0.24192666605E+02  0.25663318236E+02  0.51100000000E-03 0. -1.
        -11    1    4    4    0    0  0.31988368647E+01 -0.60446422968E+01  0.92543158421E+01  0.11507068252E+02  0.51100000000E-03 0.  1.
        -12    1    4    4    0    0  0.69074385205E+01 -0.62821029691E+01 -0.14441226696E+02  0.17196701809E+02  0.00000000000E+00 0.  1.
</event>
<event>
 8    1  0.2530183E-006  0.9118800E+02  0.7816164E-02  0.1184000E+00
        -11   -1    0    0    0    0  0.00000000000E+00  0.00000000000E+00  0.45593999997E+02  0.45594000000E+02  0.51100000000E-03 0.  1.
         11   -1    0    0    0    0 -0.00000000000E+00 -0.00000000000E+00 -0.45593999997E+02  0.45594000000E+02  0.51100000000E-03 0. -1.
         23    2    1    2    0    0  0.00000000000E+00  0.00000000000E+00  0.00000000000E+00  0.91188000000E+02  0.91188000000E+02 0.  0.
    9900012    2    3    3    0    0  0.15571883079E+02  0.19626051701E+02  0.26983586373E+02  0.54367090430E+02  0.40000014253E+02 0.  0.
         12    1    3    3    0    0 -0.15571883079E+02 -0.19626051701E+02 -0.26983586373E+02  0.36820909570E+02  0.00000000000E+00 0. -1.
         11    1    4    4    0    0  0.86691788698E+01  0.27217245271E+02  0.20498695764E+02  0.35158635223E+02  0.51100000000E-03 0. -1.
        -11    1    4    4    0    0 -0.26409858729E+01 -0.69732646987E+01  0.61053608102E+01  0.96372536453E+01  0.51100000000E-03 0.  1.
         12    1    4    4    0    0  0.95436900819E+01 -0.61792887131E+00  0.37952979900E+00  0.95712015619E+01  0.00000000000E+00 0. -1.
</event>
<event>
 8    1  0.2530183E-006  0.9118800E+02  0.7816164E-02  0.1184000E+00
        -11   -1    0    0    0    0  0.00000000000E+00  0.00000000000E+00  0.45593999997E+02  0.45594000000E+02  0.51100000000E-03 0.  1.
         11   -1    0    0    0    0 -0.00000000000E+00 -0.00000000000E+00 -0.45593999997E+02  0.45594000000E+02  0.51100000000E-03 0. -1.
         23    2    1    2    0    0  0.00000000000E+00  0.17763568394E-14  0.00000000000E+00  0.91188000000E+02  0.91188000000E+02 0.  0.
    9900012    2    3    3    0    0 -0.29722456424E+02 -0.14027574954E+02  0.16600512897E+02  0.54367159387E+02  0.40000171455E+02 0.  0.
         12    1    3    3    0    0  0.29722456424E+02  0.14027574954E+02 -0.16600512897E+02  0.36820840613E+02  0.00000000000E+00 0. -1.
         11    1    4    4    0    0 -0.24101959748E+02 -0.48151335813E+01 -0.19467444737E+01  0.24655218299E+02  0.51100000000E-03 0.  1.
        -11    1    4    4    0    0  0.72589723970E+01 -0.40583389586E+01  0.29164917240E+01  0.88129858504E+01  0.51100000000E-03 0. -1.
        -12    1    4    4    0    0 -0.12879469074E+02 -0.51541024137E+01  0.15630765647E+02  0.20898955237E+02  0.00000000000E+00 0.  1.
</event>
<event>
 8    1  0.2530183E-006  0.9118800E+02  0.7816164E-02  0.1184000E+00
        -11   -1    0    0    0    0  0.00000000000E+00  0.00000000000E+00  0.45593999997E+02  0.45594000000E+02  0.51100000000E-03 0. -1.
         11   -1    0    0    0    0 -0.00000000000E+00 -0.00000000000E+00 -0.45593999997E+02  0.45594000000E+02  0.51100000000E-03 0.  1.
         23    2    1    2    0    0  0.00000000000E+00 -0.35527136788E-14 -0.17763568394E-14  0.91188000000E+02  0.91188000000E+02 0.  0.
    9900012    2    3    3    0    0 -0.17547600289E+02 -0.29275076213E+02  0.13814173522E+02  0.54367085383E+02  0.40000002747E+02 0.  0.
        -12    1    3    3    0    0  0.17547600289E+02  0.29275076213E+02 -0.13814173522E+02  0.36820914617E+02  0.00000000000E+00 0.  1.
         11    1    4    4    0    0  0.13277665696E+01  0.62497523983E+00  0.17594300720E+02  0.17655395102E+02  0.51100000000E-03 0. -1.
        -11    1    4    4    0    0 -0.10019307452E+02 -0.87029136534E+01  0.76612618381E+00  0.13293388487E+02  0.51100000000E-03 0.  1.
         12    1    4    4    0    0 -0.88560594059E+01 -0.21197137800E+02 -0.45462533819E+01  0.23418301794E+02  0.00000000000E+00 0. -1.
</event>
<event>
 8    1  0.2530183E-006  0.9118800E+02  0.7816164E-02  0.1184000E+00
        -11   -1    0    0    0    0  0.00000000000E+00  0.00000000000E+00  0.45593999997E+02  0.45594000000E+02  0.51100000000E-03 0. -1.
         11   -1    0    0    0    0 -0.00000000000E+00 -0.00000000000E+00 -0.45593999997E+02  0.45594000000E+02  0.51100000000E-03 0.  1.
         23    2    1    2    0    0 -0.35527136788E-14  0.00000000000E+00 -0.35527136788E-14  0.91188000000E+02  0.91188000000E+02 0.  0.
    9900012    2    3    3    0    0 -0.20014974610E+02 -0.30849530744E+02 -0.18673195472E+01  0.54367086947E+02  0.40000006313E+02 0.  0.
         12    1    3    3    0    0  0.20014974610E+02  0.30849530744E+02  0.18673195472E+01  0.36820913053E+02  0.00000000000E+00 0. -1.
         11    1    4    4    0    0 -0.22625050106E+01  0.36987329814E+01 -0.20664122131E+01  0.48030838308E+01  0.51100000000E-03 0. -1.
        -11    1    4    4    0    0 -0.32888290532E+00 -0.21837575235E+02  0.12062002037E+02  0.24949544074E+02  0.51100000000E-03 0.  1.
        -12    1    4    4    0    0 -0.17423586694E+02 -0.12710688491E+02 -0.11862909371E+02  0.24614459042E+02  0.00000000000E+00 0.  1.
</event>
<event>
 8    1  0.2530183E-006  0.9118800E+02  0.7816164E-02  0.1184000E+00
        -11   -1    0    0    0    0  0.00000000000E+00  0.00000000000E+00  0.45593999997E+02  0.45594000000E+02  0.51100000000E-03 0.  1.
         11   -1    0    0    0    0 -0.00000000000E+00 -0.00000000000E+00 -0.45593999997E+02  0.45594000000E+02  0.51100000000E-03 0. -1.
         23    2    1    2    0    0  0.00000000000E+00  0.00000000000E+00 -0.35527136788E-14  0.91188000000E+02  0.91188000000E+02 0.  0.
    9900012    2    3    3    0    0  0.45305523714E+01 -0.29114057741E+02  0.22082228783E+02  0.54367094376E+02  0.40000023249E+02 0.  0.
         12    1    3    3    0    0 -0.45305523714E+01  0.29114057741E+02 -0.22082228783E+02  0.36820905624E+02  0.00000000000E+00 0. -1.
         11    1    4    4    0    0  0.99159054774E+01  0.55466438008E+01  0.29365839476E+01  0.11735159327E+02  0.51100000000E-03 0. -1.
        -11    1    4    4    0    0  0.45285179408E+01 -0.12328897776E+02  0.10134813655E+02  0.16589865677E+02  0.51100000000E-03 0.  1.
        -12    1    4    4    0    0 -0.99138710468E+01 -0.22331803766E+02  0.90108311810E+01  0.26042069372E+02  0.00000000000E+00 0.  1.
</event>
<event>
 8    1  0.2530183E-006  0.9118800E+02  0.7816164E-02  0.1184000E+00
        -11   -1    0    0    0    0  0.00000000000E+00  0.00000000000E+00  0.45593999997E+02  0.45594000000E+02  0.51100000000E-03 0. -1.
         11   -1    0    0    0    0 -0.00000000000E+00 -0.00000000000E+00 -0.45593999997E+02  0.45594000000E+02  0.51100000000E-03 0.  1.
         23    2    1    2    0    0  0.17763568394E-14  0.00000000000E+00  0.00000000000E+00  0.91188000000E+02  0.91188000000E+02 0.  0.
    9900012    2    3    3    0    0 -0.15507594063E+02  0.20106936952E+02 -0.26664695997E+02  0.54367076603E+02  0.39999982732E+02 0.  0.
         12    1    3    3    0    0  0.15507594063E+02 -0.20106936952E+02  0.26664695997E+02  0.36820923397E+02  0.00000000000E+00 0. -1.
         11    1    4    4    0    0  0.10299582435E+02  0.60959936573E+01 -0.17203674658E+02  0.20957312781E+02  0.51100000000E-03 0. -1.
        -11    1    4    4    0    0 -0.99147357519E+01  0.30536681679E+01 -0.95576293727E+01  0.14105855302E+02  0.51100000000E-03 0.  1.
        -12    1    4    4    0    0 -0.15892440746E+02  0.10957275127E+02  0.96608033948E-01  0.19303908521E+02  0.00000000000E+00 0.  1.
</event>
<event>
 8    1  0.2530183E-006  0.9118800E+02  0.7816164E-02  0.1184000E+00
        -11   -1    0    0    0    0  0.00000000000E+00  0.00000000000E+00  0.45593999997E+02  0.45594000000E+02  0.51100000000E-03 0.  1.
         11   -1    0    0    0    0 -0.00000000000E+00 -0.00000000000E+00 -0.45593999997E+02  0.45594000000E+02  0.51100000000E-03 0. -1.
         23    2    1    2    0    0  0.00000000000E+00 -0.17763568394E-14 -0.71054273576E-14  0.91188000000E+02  0.91188000000E+02 0.  0.
    9900012    2    3    3    0    0 -0.13935899001E+02 -0.10068407856E+02 -0.32560632552E+02  0.54367123994E+02  0.40000090768E+02 0.  0.
        -12    1    3    3    0    0  0.13935899001E+02  0.10068407856E+02  0.32560632552E+02  0.36820876006E+02  0.00000000000E+00 0.  1.
         11    1    4    4    0    0 -0.12652313500E+02  0.10627268053E+01 -0.15219466274E+00  0.12697778886E+02  0.51100000000E-03 0. -1.
        -11    1    4    4    0    0 -0.30851067130E-01 -0.59817294405E+01  0.24106297758E+01  0.64492770963E+01  0.51100000000E-03 0.  1.
         12    1    4    4    0    0 -0.12527344342E+01 -0.51494052210E+01 -0.34819067665E+02  0.35220068011E+02  0.00000000000E+00 0. -1.
</event>
<event>
 8    1  0.2530183E-006  0.9118800E+02  0.7816164E-02  0.1184000E+00
        -11   -1    0    0    0    0  0.00000000000E+00  0.00000000000E+00  0.45593999997E+02  0.45594000000E+02  0.51100000000E-03 0.  1.
         11   -1    0    0    0    0 -0.00000000000E+00 -0.00000000000E+00 -0.45593999997E+02  0.45594000000E+02  0.51100000000E-03 0. -1.
         23    2    1    2    0    0  0.00000000000E+00  0.00000000000E+00  0.17763568394E-14  0.91188000000E+02  0.91188000000E+02 0.  0.
    9900012    2    3    3    0    0  0.26254363635E+02  0.25498954612E+02 -0.40364740117E+01  0.54367062768E+02  0.39999951193E+02 0.  0.
        -12    1    3    3    0    0 -0.26254363635E+02 -0.25498954612E+02  0.40364740117E+01  0.36820937232E+02  0.00000000000E+00 0.  1.
         11    1    4    4    0    0  0.10822401618E+01 -0.40610910260E+01 -0.19360174421E+01  0.46272959584E+01  0.51100000000E-03 0. -1.
        -11    1    4    4    0    0  0.18402632606E+02  0.34500116303E+01  0.87486525136E+01  0.20666358851E+02  0.51100000000E-03 0.  1.
        -12    1    4    4    0    0  0.67694908670E+01  0.26110034007E+02 -0.10849109083E+02  0.29073407959E+02  0.00000000000E+00 0.  1.
</event>
<event>
 8    1  0.2530183E-006  0.9118800E+02  0.7816164E-02  0.1184000E+00
        -11   -1    0    0    0    0  0.00000000000E+00  0.00000000000E+00  0.45593999997E+02  0.45594000000E+02  0.51100000000E-03 0. -1.
         11   -1    0    0    0    0 -0.00000000000E+00 -0.00000000000E+00 -0.45593999997E+02  0.45594000000E+02  0.51100000000E-03 0.  1.
         23    2    1    2    0    0  0.00000000000E+00 -0.35527136788E-14  0.00000000000E+00  0.91188000000E+02  0.91188000000E+02 0.  0.
    9900012    2    3    3    0    0  0.20690817254E+02 -0.22662060135E+02 -0.20349447857E+02  0.54367096748E+02  0.40000028656E+02 0.  0.
         12    1    3    3    0    0 -0.20690817254E+02  0.22662060135E+02  0.20349447857E+02  0.36820903252E+02  0.00000000000E+00 0. -1.
         11    1    4    4    0    0 -0.85843361849E+00 -0.11354757975E+02 -0.16662143598E+02  0.20181537763E+02  0.51100000000E-03 0. -1.
        -11    1    4    4    0    0  0.86788018061E+01 -0.28984763264E+00 -0.12397067650E+02  0.15135815109E+02  0.51100000000E-03 0.  1.
        -12    1    4    4    0    0  0.12870449066E+02 -0.11017454528E+02  0.87097633902E+01  0.19049743876E+02  0.00000000000E+00 0.  1.
</event>
<event>
 8    1  0.2530183E-006  0.9118800E+02  0.7816164E-02  0.1184000E+00
        -11   -1    0    0    0    0  0.00000000000E+00  0.00000000000E+00  0.45593999997E+02  0.45594000000E+02  0.51100000000E-03 0.  1.
         11   -1    0    0    0    0 -0.00000000000E+00 -0.00000000000E+00 -0.45593999997E+02  0.45594000000E+02  0.51100000000E-03 0. -1.
         23    2    1    2    0    0 -0.17763568394E-14  0.00000000000E+00  0.17763568394E-14  0.91188000000E+02  0.91188000000E+02 0.  0.
    9900012    2    3    3    0    0  0.91630867478E+01 -0.33681716993E+02  0.11720097571E+02  0.54367069737E+02  0.39999967079E+02 0.  0.
         12    1    3    3    0    0 -0.91630867478E+01  0.33681716993E+02 -0.11720097571E+02  0.36820930263E+02  0.00000000000E+00 0. -1.
         11    1    4    4    0    0 -0.61540142245E+01 -0.69899666624E+01  0.10094276177E+02  0.13734115800E+02  0.51100000000E-03 0. -1.
        -11    1    4    4    0    0  0.15033319260E+02 -0.10873361019E+02  0.11646096086E+02  0.21905757739E+02  0.51100000000E-03 0.  1.
         12    1    4    4    0    0  0.28378171214E+00 -0.15818389312E+02 -0.10020274692E+02  0.18727196197E+02  0.00000000000E+00 0. -1.
</event>
<event>
 8    1  0.2530183E-006  0.9118800E+02  0.7816164E-02  0.1184000E+00
        -11   -1    0    0    0    0  0.00000000000E+00  0.00000000000E+00  0.45593999997E+02  0.45594000000E+02  0.51100000000E-03 0. -1.
         11   -1    0    0    0    0 -0.00000000000E+00 -0.00000000000E+00 -0.45593999997E+02  0.45594000000E+02  0.51100000000E-03 0.  1.
         23    2    1    2    0    0 -0.10658141036E-13  0.00000000000E+00 -0.88817841970E-15  0.91188000000E+02  0.91188000000E+02 0.  0.
    9900012    2    3    3    0    0  0.30795028744E+02 -0.19531485882E+02  0.50953571570E+01  0.54367144488E+02  0.40000137488E+02 0.  0.
        -12    1    3    3    0    0 -0.30795028744E+02  0.19531485882E+02 -0.50953571570E+01  0.36820855512E+02  0.00000000000E+00 0.  1.
         11    1    4    4    0    0 -0.61250023065E+01  0.26202839722E+01  0.43575942007E+01  0.79605382248E+01  0.51100000000E-03 0. -1.
        -11    1    4    4    0    0  0.98155536404E+00 -0.65757508401E+01 -0.25028260122E+01  0.71040895512E+01  0.51100000000E-03 0.  1.
         12    1    4    4    0    0  0.35938475686E+02 -0.15576019014E+02  0.32405889685E+01  0.39302516712E+02  0.00000000000E+00 0. -1.
</event>
<event>
 8    1  0.2530183E-006  0.9118800E+02  0.7816164E-02  0.1184000E+00
        -11   -1    0    0    0    0  0.00000000000E+00  0.00000000000E+00  0.45593999997E+02  0.45594000000E+02  0.51100000000E-03 0.  1.
         11   -1    0    0    0    0 -0.00000000000E+00 -0.00000000000E+00 -0.45593999997E+02  0.45594000000E+02  0.51100000000E-03 0. -1.
         23    2    1    2    0    0  0.35527136788E-14  0.00000000000E+00  0.00000000000E+00  0.91188000000E+02  0.91188000000E+02 0.  0.
    9900012    2    3    3    0    0 -0.22166907622E+02 -0.18039224099E+02  0.23216294798E+02  0.54367058353E+02  0.39999941128E+02 0.  0.
         12    1    3    3    0    0  0.22166907622E+02  0.18039224099E+02 -0.23216294798E+02  0.36820941647E+02  0.00000000000E+00 0. -1.
         11    1    4    4    0    0 -0.12686851935E+02 -0.17133246232E+02  0.17423984863E+02  0.27533608322E+02  0.51100000000E-03 0. -1.
        -11    1    4    4    0    0  0.49512303759E+01  0.38901757109E+01  0.92958472749E+01  0.11227685697E+02  0.51100000000E-03 0.  1.
        -12    1    4    4    0    0 -0.14431286063E+02 -0.47961535775E+01 -0.35035373397E+01  0.15605764334E+02  0.00000000000E+00 0.  1.
</event>
<event>
 8    1  0.2530183E-006  0.9118800E+02  0.7816164E-02  0.1184000E+00
        -11   -1    0    0    0    0  0.00000000000E+00  0.00000000000E+00  0.45593999997E+02  0.45594000000E+02  0.51100000000E-03 0. -1.
         11   -1    0    0    0    0 -0.00000000000E+00 -0.00000000000E+00 -0.45593999997E+02  0.45594000000E+02  0.51100000000E-03 0.  1.
         23    2    1    2    0    0  0.17763568394E-14  0.00000000000E+00  0.00000000000E+00  0.91188000000E+02  0.91188000000E+02 0.  0.
    9900012    2    3    3    0    0  0.14377666234E+02 -0.25438907144E+02 -0.22403679821E+02  0.54367079961E+02  0.39999990386E+02 0.  0.
         12    1    3    3    0    0 -0.14377666234E+02  0.25438907144E+02  0.22403679821E+02  0.36820920039E+02  0.00000000000E+00 0. -1.
         11    1    4    4    0    0 -0.69947881495E+01  0.12693213764E+01  0.55880315895E+01  0.90423633702E+01  0.51100000000E-03 0. -1.
        -11    1    4    4    0    0  0.50712813903E+01 -0.37545378440E+01 -0.10284730821E+02  0.12066073831E+02  0.51100000000E-03 0.  1.
        -12    1    4    4    0    0  0.16301172993E+02 -0.22953690677E+02 -0.17706980589E+02  0.33258642760E+02  0.00000000000E+00 0.  1.
</event>
<event>
 8    1  0.2530183E-006  0.9118800E+02  0.7816164E-02  0.1184000E+00
        -11   -1    0    0    0    0  0.00000000000E+00  0.00000000000E+00  0.45593999997E+02  0.45594000000E+02  0.51100000000E-03 0. -1.
         11   -1    0    0    0    0 -0.00000000000E+00 -0.00000000000E+00 -0.45593999997E+02  0.45594000000E+02  0.51100000000E-03 0.  1.
         23    2    1    2    0    0  0.17763568394E-14 -0.71054273576E-14  0.44408920985E-15  0.91188000000E+02  0.91188000000E+02 0.  0.
    9900012    2    3    3    0    0 -0.12625817327E+02  0.34383351863E+02 -0.37621812907E+01  0.54367079906E+02  0.39999990262E+02 0.  0.
         12    1    3    3    0    0  0.12625817327E+02 -0.34383351863E+02  0.37621812907E+01  0.36820920094E+02  0.00000000000E+00 0. -1.
         11    1    4    4    0    0 -0.12201381571E+02 -0.11720670230E+01 -0.20057926105E+01  0.12420573965E+02  0.51100000000E-03 0. -1.
        -11    1    4    4    0    0  0.64589315592E+01  0.22451371242E+02 -0.95258353767E+01  0.25229415519E+02  0.51100000000E-03 0.  1.
         12    1    4    4    0    0 -0.68833673149E+01  0.13104047643E+02  0.77694466964E+01  0.16717090423E+02  0.00000000000E+00 0. -1.
</event>
<event>
 8    1  0.2530183E-006  0.9118800E+02  0.7816164E-02  0.1184000E+00
        -11   -1    0    0    0    0  0.00000000000E+00  0.00000000000E+00  0.45593999997E+02  0.45594000000E+02  0.51100000000E-03 0. -1.
         11   -1    0    0    0    0 -0.00000000000E+00 -0.00000000000E+00 -0.45593999997E+02  0.45594000000E+02  0.51100000000E-03 0.  1.
         23    2    1    2    0    0  0.00000000000E+00  0.00000000000E+00  0.00000000000E+00  0.91188000000E+02  0.91188000000E+02 0.  0.
    9900012    2    3    3    0    0 -0.21731236329E+02 -0.18070839934E+02  0.23600417365E+02  0.54367060466E+02  0.39999945945E+02 0.  0.
        -12    1    3    3    0    0  0.21731236329E+02  0.18070839934E+02 -0.23600417365E+02  0.36820939534E+02  0.00000000000E+00 0.  1.
         11    1    4    4    0    0  0.23348397135E+01 -0.10238569122E+02 -0.33992228843E-01  0.10501472748E+02  0.51100000000E-03 0. -1.
        -11    1    4    4    0    0 -0.24849348732E+02 -0.76112462987E+00  0.70835775843E+01  0.25850464498E+02  0.51100000000E-03 0.  1.
        -12    1    4    4    0    0  0.78327268902E+00 -0.70711461830E+01  0.16550832010E+02  0.18015123221E+02  0.00000000000E+00 0.  1.
</event>
<event>
 8    1  0.2530183E-006  0.9118800E+02  0.7816164E-02  0.1184000E+00
        -11   -1    0    0    0    0  0.00000000000E+00  0.00000000000E+00  0.45593999997E+02  0.45594000000E+02  0.51100000000E-03 0. -1.
         11   -1    0    0    0    0 -0.00000000000E+00 -0.00000000000E+00 -0.45593999997E+02  0.45594000000E+02  0.51100000000E-03 0.  1.
         23    2    1    2    0    0 -0.44408920985E-15  0.00000000000E+00  0.35527136788E-14  0.91188000000E+02  0.91188000000E+02 0.  0.
    9900012    2    3    3    0    0 -0.11287835227E+01 -0.23051758229E+02 -0.28690108398E+02  0.54367081630E+02  0.39999994192E+02 0.  0.
         12    1    3    3    0    0  0.11287835227E+01  0.23051758229E+02  0.28690108398E+02  0.36820918370E+02  0.00000000000E+00 0. -1.
         11    1    4    4    0    0 -0.13020560137E+02  0.48788337237E+01 -0.51317342479E+01  0.14821359635E+02  0.51100000000E-03 0. -1.
        -11    1    4    4    0    0  0.11715240132E+02 -0.15998366368E+02 -0.14715434775E+02  0.24692885589E+02  0.51100000000E-03 0.  1.
         12    1    4    4    0    0  0.17653648163E+00 -0.11932225584E+02 -0.88429393756E+01  0.14852836407E+02  0.00000000000E+00 0. -1.
</event>
<event>
 8    1  0.2530183E-006  0.9118800E+02  0.7816164E-02  0.1184000E+00
        -11   -1    0    0    0    0  0.00000000000E+00  0.00000000000E+00  0.45593999997E+02  0.45594000000E+02  0.51100000000E-03 0. -1.
         11   -1    0    0    0    0 -0.00000000000E+00 -0.00000000000E+00 -0.45593999997E+02  0.45594000000E+02  0.51100000000E-03 0.  1.
         23    2    1    2    0    0  0.00000000000E+00  0.88817841970E-15  0.00000000000E+00  0.91188000000E+02  0.91188000000E+02 0.  0.
    9900012    2    3    3    0    0 -0.14440241284E+02 -0.52372733043E+01 -0.33463870705E+02  0.54367078738E+02  0.39999987599E+02 0.  0.
         12    1    3    3    0    0  0.14440241284E+02  0.52372733043E+01  0.33463870705E+02  0.36820921262E+02  0.00000000000E+00 0. -1.
         11    1    4    4    0    0 -0.52180484306E+01 -0.93804493206E+01  0.67766011602E+00  0.10755467557E+02  0.51100000000E-03 0. -1.
        -11    1    4    4    0    0 -0.17587898356E+02  0.47520398153E+01 -0.19141140999E+02  0.26425353924E+02  0.51100000000E-03 0.  1.
        -12    1    4    4    0    0  0.83657055027E+01 -0.60886379896E+00 -0.15000389822E+02  0.17186257257E+02  0.00000000000E+00 0.  1.
</event>
<event>
 8    1  0.2530183E-006  0.9118800E+02  0.7816164E-02  0.1184000E+00
        -11   -1    0    0    0    0  0.00000000000E+00  0.00000000000E+00  0.45593999997E+02  0.45594000000E+02  0.51100000000E-03 0. -1.
         11   -1    0    0    0    0 -0.00000000000E+00 -0.00000000000E+00 -0.45593999997E+02  0.45594000000E+02  0.51100000000E-03 0.  1.
         23    2    1    2    0    0  0.00000000000E+00  0.00000000000E+00  0.35527136788E-14  0.91188000000E+02  0.91188000000E+02 0.  0.
    9900012    2    3    3    0    0  0.20145905222E+02 -0.16037097373E+02 -0.26319851879E+02  0.54367073989E+02  0.39999976772E+02 0.  0.
         12    1    3    3    0    0 -0.20145905222E+02  0.16037097373E+02  0.26319851879E+02  0.36820926011E+02  0.00000000000E+00 0. -1.
         11    1    4    4    0    0 -0.24271646662E+01  0.46710772357E+01  0.46519667580E+01  0.70250185649E+01  0.51100000000E-03 0. -1.
        -11    1    4    4    0    0  0.25654560887E+02 -0.16877899742E+02 -0.28232339956E+02  0.41714326240E+02  0.51100000000E-03 0.  1.
        -12    1    4    4    0    0 -0.30814909980E+01 -0.38302748668E+01 -0.27394786814E+01  0.56277291843E+01  0.00000000000E+00 0.  1.
</event>
<event>
 8    1  0.2530183E-006  0.9118800E+02  0.7816164E-02  0.1184000E+00
        -11   -1    0    0    0    0  0.00000000000E+00  0.00000000000E+00  0.45593999997E+02  0.45594000000E+02  0.51100000000E-03 0. -1.
         11   -1    0    0    0    0 -0.00000000000E+00 -0.00000000000E+00 -0.45593999997E+02  0.45594000000E+02  0.51100000000E-03 0.  1.
         23    2    1    2    0    0  0.00000000000E+00  0.00000000000E+00  0.00000000000E+00  0.91188000000E+02  0.91188000000E+02 0.  0.
    9900012    2    3    3    0    0  0.23494541651E+02 -0.90453396804E+01  0.26869460550E+02  0.54367087904E+02  0.40000008495E+02 0.  0.
        -12    1    3    3    0    0 -0.23494541651E+02  0.90453396804E+01 -0.26869460550E+02  0.36820912096E+02  0.00000000000E+00 0.  1.
         11    1    4    4    0    0  0.83526265470E+00  0.11963480718E+01 -0.18788588148E+01  0.23788701348E+01  0.51100000000E-03 0. -1.
        -11    1    4    4    0    0  0.16697635407E+02  0.11642423649E+02  0.10665985011E+02  0.22980867981E+02  0.51100000000E-03 0.  1.
         12    1    4    4    0    0  0.59616435890E+01 -0.21884111401E+02  0.18082334353E+02  0.29007349789E+02  0.00000000000E+00 0. -1.
</event>
<event>
 8    1  0.2530183E-006  0.9118800E+02  0.7816164E-02  0.1184000E+00
        -11   -1    0    0    0    0  0.00000000000E+00  0.00000000000E+00  0.45593999997E+02  0.45594000000E+02  0.51100000000E-03 0. -1.
         11   -1    0    0    0    0 -0.00000000000E+00 -0.00000000000E+00 -0.45593999997E+02  0.45594000000E+02  0.51100000000E-03 0.  1.
         23    2    1    2    0    0  0.00000000000E+00 -0.71054273576E-14  0.00000000000E+00  0.91188000000E+02  0.91188000000E+02 0.  0.
    9900012    2    3    3    0    0 -0.17634554186E+02 -0.32166751700E+02  0.31785138945E+01  0.54367077050E+02  0.39999983752E+02 0.  0.
         12    1    3    3    0    0  0.17634554186E+02  0.32166751700E+02 -0.31785138945E+01  0.36820922950E+02  0.00000000000E+00 0. -1.
         11    1    4    4    0    0 -0.87275983283E+01  0.64391430913E+01 -0.12903620397E+01  0.10922388511E+02  0.51100000000E-03 0. -1.
        -11    1    4    4    0    0 -0.92122660932E+01 -0.39266726904E+02  0.14710052631E+01  0.40359701995E+02  0.51100000000E-03 0.  1.
         12    1    4    4    0    0  0.30531023576E+00  0.66083211254E+00  0.29978706712E+01  0.30849865449E+01  0.00000000000E+00 0. -1.
</event>
<event>
 8    1  0.2530183E-006  0.9118800E+02  0.7816164E-02  0.1184000E+00
        -11   -1    0    0    0    0  0.00000000000E+00  0.00000000000E+00  0.45593999997E+02  0.45594000000E+02  0.51100000000E-03 0.  1.
         11   -1    0    0    0    0 -0.00000000000E+00 -0.00000000000E+00 -0.45593999997E+02  0.45594000000E+02  0.51100000000E-03 0. -1.
         23    2    1    2    0    0  0.35527136788E-14  0.35527136788E-14 -0.17763568394E-14  0.91188000000E+02  0.91188000000E+02 0.  0.
    9900012    2    3    3    0    0 -0.31072813980E+02 -0.16195068210E+02  0.11312866761E+02  0.54367069032E+02  0.39999965473E+02 0.  0.
         12    1    3    3    0    0  0.31072813980E+02  0.16195068210E+02 -0.11312866761E+02  0.36820930968E+02  0.00000000000E+00 0. -1.
         11    1    4    4    0    0 -0.16973970443E+02 -0.20605694524E+02  0.52612247977E+01  0.27210123227E+02  0.51100000000E-03 0. -1.
        -11    1    4    4    0    0 -0.19887225856E+02  0.20428538696E+01  0.30614535582E+01  0.20224922801E+02  0.51100000000E-03 0.  1.
         12    1    4    4    0    0  0.57883823195E+01  0.23677724438E+01  0.29901884056E+01  0.69320230037E+01  0.00000000000E+00 0. -1.
</event>
<event>
 8    1  0.2530183E-006  0.9118800E+02  0.7816164E-02  0.1184000E+00
        -11   -1    0    0    0    0  0.00000000000E+00  0.00000000000E+00  0.45593999997E+02  0.45594000000E+02  0.51100000000E-03 0.  1.
         11   -1    0    0    0    0 -0.00000000000E+00 -0.00000000000E+00 -0.45593999997E+02  0.45594000000E+02  0.51100000000E-03 0. -1.
         23    2    1    2    0    0  0.00000000000E+00  0.00000000000E+00  0.00000000000E+00  0.91188000000E+02  0.91188000000E+02 0.  0.
    9900012    2    3    3    0    0  0.10196615629E+02 -0.31315597435E+02  0.16466423142E+02  0.54367072471E+02  0.39999973312E+02 0.  0.
         12    1    3    3    0    0 -0.10196615629E+02  0.31315597435E+02 -0.16466423142E+02  0.36820927529E+02  0.00000000000E+00 0. -1.
         11    1    4    4    0    0 -0.90807738904E+01 -0.14193426745E+02  0.16092718293E+02  0.23299987115E+02  0.51100000000E-03 0. -1.
        -11    1    4    4    0    0  0.11785066088E+02  0.56064976969E+00  0.10937379755E+01  0.11848981977E+02  0.51100000000E-03 0.  1.
        -12    1    4    4    0    0  0.74923234316E+01 -0.17682820460E+02 -0.72003312684E+00  0.19218103380E+02  0.00000000000E+00 0.  1.
</event>
<event>
 8    1  0.2530183E-006  0.9118800E+02  0.7816164E-02  0.1184000E+00
        -11   -1    0    0    0    0  0.00000000000E+00  0.00000000000E+00  0.45593999997E+02  0.45594000000E+02  0.51100000000E-03 0. -1.
         11   -1    0    0    0    0 -0.00000000000E+00 -0.00000000000E+00 -0.45593999997E+02  0.45594000000E+02  0.51100000000E-03 0.  1.
         23    2    1    2    0    0  0.17763568394E-14  0.71054273576E-14 -0.17763568394E-14  0.91188000000E+02  0.91188000000E+02 0.  0.
    9900012    2    3    3    0    0 -0.14063544789E+02 -0.32037611624E+02  0.11471046464E+02  0.54367126062E+02  0.40000095483E+02 0.  0.
        -12    1    3    3    0    0  0.14063544789E+02  0.32037611624E+02 -0.11471046464E+02  0.36820873938E+02  0.00000000000E+00 0.  1.
         11    1    4    4    0    0 -0.16708172408E+02 -0.87031999188E+01  0.16042876737E+01  0.18907206384E+02  0.51100000000E-03 0. -1.
        -11    1    4    4    0    0 -0.82185932915E+01 -0.21502199092E+02  0.72878231998E+01  0.24145438674E+02  0.51100000000E-03 0.  1.
         12    1    4    4    0    0  0.10863220911E+02 -0.18322126128E+01  0.25789355909E+01  0.11314481004E+02  0.00000000000E+00 0. -1.
</event>
<event>
 8    1  0.2530183E-006  0.9118800E+02  0.7816164E-02  0.1184000E+00
        -11   -1    0    0    0    0  0.00000000000E+00  0.00000000000E+00  0.45593999997E+02  0.45594000000E+02  0.51100000000E-03 0.  1.
         11   -1    0    0    0    0 -0.00000000000E+00 -0.00000000000E+00 -0.45593999997E+02  0.45594000000E+02  0.51100000000E-03 0. -1.
         23    2    1    2    0    0  0.55511151231E-15  0.71054273576E-14  0.00000000000E+00  0.91188000000E+02  0.91188000000E+02 0.  0.
    9900012    2    3    3    0    0 -0.93882425858E+00 -0.22361217016E+02 -0.29238310501E+02  0.54367024750E+02  0.39999864522E+02 0.  0.
        -12    1    3    3    0    0  0.93882425858E+00  0.22361217016E+02  0.29238310501E+02  0.36820975250E+02  0.00000000000E+00 0.  1.
         11    1    4    4    0    0 -0.67589734205E+01 -0.21278039613E+02 -0.84624931892E+01  0.23875771877E+02  0.51100000000E-03 0. -1.
        -11    1    4    4    0    0 -0.14672026114E+01  0.26059943742E+01  0.36599948000E+01  0.47264629882E+01  0.51100000000E-03 0.  1.
        -12    1    4    4    0    0  0.72873517733E+01 -0.36891717777E+01 -0.24435812111E+02  0.25764789885E+02  0.00000000000E+00 0.  1.
</event>
<event>
 8    1  0.2530183E-006  0.9118800E+02  0.7816164E-02  0.1184000E+00
        -11   -1    0    0    0    0  0.00000000000E+00  0.00000000000E+00  0.45593999997E+02  0.45594000000E+02  0.51100000000E-03 0. -1.
         11   -1    0    0    0    0 -0.00000000000E+00 -0.00000000000E+00 -0.45593999997E+02  0.45594000000E+02  0.51100000000E-03 0.  1.
         23    2    1    2    0    0  0.88817841970E-15  0.00000000000E+00  0.00000000000E+00  0.91188000000E+02  0.91188000000E+02 0.  0.
    9900012    2    3    3    0    0  0.46669288508E+01 -0.74884949493E+01  0.35748091363E+02  0.54367030192E+02  0.39999876929E+02 0.  0.
        -12    1    3    3    0    0 -0.46669288508E+01  0.74884949493E+01 -0.35748091363E+02  0.36820969808E+02  0.00000000000E+00 0.  1.
         11    1    4    4    0    0  0.58607000117E+00 -0.13077335472E+02 -0.14004072731E+01  0.13165155596E+02  0.51100000000E-03 0.  1.
        -11    1    4    4    0    0  0.10014379216E+02  0.23948162524E+01  0.16192141209E+02  0.19188756426E+02  0.51100000000E-03 0. -1.
         12    1    4    4    0    0 -0.59335203666E+01  0.31940242699E+01  0.20956357427E+02  0.22013118170E+02  0.00000000000E+00 0. -1.
</event>
<event>
 8    1  0.2530183E-006  0.9118800E+02  0.7816164E-02  0.1184000E+00
        -11   -1    0    0    0    0  0.00000000000E+00  0.00000000000E+00  0.45593999997E+02  0.45594000000E+02  0.51100000000E-03 0. -1.
         11   -1    0    0    0    0 -0.00000000000E+00 -0.00000000000E+00 -0.45593999997E+02  0.45594000000E+02  0.51100000000E-03 0.  1.
         23    2    1    2    0    0 -0.88817841970E-15  0.00000000000E+00 -0.71054273576E-14  0.91188000000E+02  0.91188000000E+02 0.  0.
    9900012    2    3    3    0    0  0.66257358766E+00  0.21892710657E+01 -0.36749793553E+02  0.54367092383E+02  0.40000018704E+02 0.  0.
         12    1    3    3    0    0 -0.66257358766E+00 -0.21892710657E+01  0.36749793553E+02  0.36820907617E+02  0.00000000000E+00 0. -1.
         11    1    4    4    0    0 -0.18418483908E+02  0.28037284814E+01 -0.12699337354E+02  0.22547164175E+02  0.51100000000E-03 0. -1.
        -11    1    4    4    0    0  0.68632524039E+01 -0.38092052022E+01 -0.12166932002E+02  0.14479244194E+02  0.51100000000E-03 0.  1.
         12    1    4    4    0    0  0.12217805092E+02  0.31947477865E+01 -0.11883524198E+02  0.17340684013E+02  0.00000000000E+00 0. -1.
</event>
<event>
 8    1  0.2530183E-006  0.9118800E+02  0.7816164E-02  0.1184000E+00
        -11   -1    0    0    0    0  0.00000000000E+00  0.00000000000E+00  0.45593999997E+02  0.45594000000E+02  0.51100000000E-03 0.  1.
         11   -1    0    0    0    0 -0.00000000000E+00 -0.00000000000E+00 -0.45593999997E+02  0.45594000000E+02  0.51100000000E-03 0. -1.
         23    2    1    2    0    0  0.26645352591E-14  0.00000000000E+00  0.00000000000E+00  0.91188000000E+02  0.91188000000E+02 0.  0.
    9900012    2    3    3    0    0 -0.76546879283E+01 -0.11073005958E+02 -0.34272062194E+02  0.54367082640E+02  0.39999996495E+02 0.  0.
        -12    1    3    3    0    0  0.76546879283E+01  0.11073005958E+02  0.34272062194E+02  0.36820917360E+02  0.00000000000E+00 0.  1.
         11    1    4    4    0    0  0.11297995189E+02 -0.91538538905E+00 -0.23292686122E+02  0.25904282518E+02  0.51100000000E-03 0. -1.
        -11    1    4    4    0    0 -0.58411073174E+01  0.43864724622E+00  0.29830994609E+01  0.65734183462E+01  0.51100000000E-03 0.  1.
         12    1    4    4    0    0 -0.13111575800E+02 -0.10596267815E+02 -0.13962475532E+02  0.21889381776E+02  0.00000000000E+00 0. -1.
</event>
<event>
 8    1  0.2530183E-006  0.9118800E+02  0.7816164E-02  0.1184000E+00
        -11   -1    0    0    0    0  0.00000000000E+00  0.00000000000E+00  0.45593999997E+02  0.45594000000E+02  0.51100000000E-03 0.  1.
         11   -1    0    0    0    0 -0.00000000000E+00 -0.00000000000E+00 -0.45593999997E+02  0.45594000000E+02  0.51100000000E-03 0. -1.
         23    2    1    2    0    0  0.00000000000E+00  0.17763568394E-14 -0.44408920985E-15  0.91188000000E+02  0.91188000000E+02 0.  0.
    9900012    2    3    3    0    0  0.33277540188E+02  0.15375548816E+02  0.34607182266E+01  0.54367098966E+02  0.40000033712E+02 0.  0.
        -12    1    3    3    0    0 -0.33277540188E+02 -0.15375548816E+02 -0.34607182266E+01  0.36820901034E+02  0.00000000000E+00 0.  1.
         11    1    4    4    0    0  0.75501871171E+01  0.22137459122E+02 -0.53558327950E+01  0.23994944615E+02  0.51100000000E-03 0. -1.
        -11    1    4    4    0    0  0.21963163844E+02 -0.70476840960E+01  0.27535752086E+01  0.23229993411E+02  0.51100000000E-03 0.  1.
         12    1    4    4    0    0  0.37641892261E+01  0.28577379002E+00  0.60629758130E+01  0.71421609403E+01  0.00000000000E+00 0. -1.
</event>
<event>
 8    1  0.2530183E-006  0.9118800E+02  0.7816164E-02  0.1184000E+00
        -11   -1    0    0    0    0  0.00000000000E+00  0.00000000000E+00  0.45593999997E+02  0.45594000000E+02  0.51100000000E-03 0.  1.
         11   -1    0    0    0    0 -0.00000000000E+00 -0.00000000000E+00 -0.45593999997E+02  0.45594000000E+02  0.51100000000E-03 0. -1.
         23    2    1    2    0    0  0.00000000000E+00  0.00000000000E+00  0.00000000000E+00  0.91188000000E+02  0.91188000000E+02 0.  0.
    9900012    2    3    3    0    0  0.20897457445E+02 -0.25249619266E+02  0.16778945630E+02  0.54367081799E+02  0.39999994576E+02 0.  0.
         12    1    3    3    0    0 -0.20897457445E+02  0.25249619266E+02 -0.16778945630E+02  0.36820918201E+02  0.00000000000E+00 0. -1.
         11    1    4    4    0    0  0.13563694032E+02 -0.16993579686E+02 -0.30327144540E+01  0.21953425782E+02  0.51100000000E-03 0. -1.
        -11    1    4    4    0    0 -0.56307158268E+01 -0.37928985595E+01  0.17152177021E+02  0.18446902640E+02  0.51100000000E-03 0.  1.
         12    1    4    4    0    0  0.12964479240E+02 -0.44631410209E+01  0.26594830629E+01  0.13966753377E+02  0.00000000000E+00 0. -1.
</event>
<event>
 8    1  0.2530183E-006  0.9118800E+02  0.7816164E-02  0.1184000E+00
        -11   -1    0    0    0    0  0.00000000000E+00  0.00000000000E+00  0.45593999997E+02  0.45594000000E+02  0.51100000000E-03 0.  1.
         11   -1    0    0    0    0 -0.00000000000E+00 -0.00000000000E+00 -0.45593999997E+02  0.45594000000E+02  0.51100000000E-03 0. -1.
         23    2    1    2    0    0 -0.10658141036E-13 -0.35527136788E-14  0.00000000000E+00  0.91188000000E+02  0.91188000000E+02 0.  0.
    9900012    2    3    3    0    0 -0.23600741693E+02 -0.22341092167E+02 -0.17310678473E+02  0.54367095653E+02  0.40000026161E+02 0.  0.
        -12    1    3    3    0    0  0.23600741693E+02  0.22341092167E+02  0.17310678473E+02  0.36820904347E+02  0.00000000000E+00 0.  1.
         11    1    4    4    0    0  0.90316558611E+00 -0.40020412792E+00  0.16378350173E+01  0.19126879581E+01  0.51100000000E-03 0. -1.
        -11    1    4    4    0    0  0.11927265759E+01 -0.15850330952E+02  0.51444583235E+01  0.16706915924E+02  0.51100000000E-03 0.  1.
         12    1    4    4    0    0 -0.25696633855E+02 -0.60905570869E+01 -0.24092971814E+02  0.35747491772E+02  0.00000000000E+00 0. -1.
</event>
<event>
 8    1  0.2530183E-006  0.9118800E+02  0.7816164E-02  0.1184000E+00
        -11   -1    0    0    0    0  0.00000000000E+00  0.00000000000E+00  0.45593999997E+02  0.45594000000E+02  0.51100000000E-03 0. -1.
         11   -1    0    0    0    0 -0.00000000000E+00 -0.00000000000E+00 -0.45593999997E+02  0.45594000000E+02  0.51100000000E-03 0.  1.
         23    2    1    2    0    0  0.35527136788E-14 -0.35527136788E-14  0.00000000000E+00  0.91188000000E+02  0.91188000000E+02 0.  0.
    9900012    2    3    3    0    0 -0.22582148728E+02  0.26674022580E+02 -0.11589847239E+02  0.54367061924E+02  0.39999949269E+02 0.  0.
         12    1    3    3    0    0  0.22582148728E+02 -0.26674022580E+02  0.11589847239E+02  0.36820938076E+02  0.00000000000E+00 0. -1.
         11    1    4    4    0    0 -0.88184227533E+01  0.16814044905E+02 -0.17958191550E+02  0.26133758435E+02  0.51100000000E-03 0. -1.
        -11    1    4    4    0    0 -0.66901410927E+01  0.13975205303E+02  0.10838295088E+02  0.18908542825E+02  0.51100000000E-03 0.  1.
         12    1    4    4    0    0 -0.70735848817E+01 -0.41152276278E+01 -0.44699507764E+01  0.93247606646E+01  0.00000000000E+00 0. -1.
</event>
<event>
 8    1  0.2530183E-006  0.9118800E+02  0.7816164E-02  0.1184000E+00
        -11   -1    0    0    0    0  0.00000000000E+00  0.00000000000E+00  0.45593999997E+02  0.45594000000E+02  0.51100000000E-03 0.  1.
         11   -1    0    0    0    0 -0.00000000000E+00 -0.00000000000E+00 -0.45593999997E+02  0.45594000000E+02  0.51100000000E-03 0. -1.
         23    2    1    2    0    0  0.00000000000E+00  0.00000000000E+00  0.00000000000E+00  0.91188000000E+02  0.91188000000E+02 0.  0.
    9900012    2    3    3    0    0 -0.34395513444E+02  0.71850543741E+01 -0.11004212132E+02  0.54367230914E+02  0.40000334512E+02 0.  0.
        -12    1    3    3    0    0  0.34395513444E+02 -0.71850543741E+01  0.11004212132E+02  0.36820769086E+02  0.00000000000E+00 0.  1.
         11    1    4    4    0    0 -0.26120022108E+02  0.70615899645E+00 -0.16953026242E+02  0.31147380539E+02  0.51100000000E-03 0. -1.
        -11    1    4    4    0    0 -0.35335109990E+01  0.13393869731E+02  0.21626064604E+01  0.14019925582E+02  0.51100000000E-03 0.  1.
         12    1    4    4    0    0 -0.47419803375E+01 -0.69149743534E+01  0.37862076490E+01  0.91999247927E+01  0.00000000000E+00 0. -1.
</event>
<event>
 8    1  0.2530183E-006  0.9118800E+02  0.7816164E-02  0.1184000E+00
        -11   -1    0    0    0    0  0.00000000000E+00  0.00000000000E+00  0.45593999997E+02  0.45594000000E+02  0.51100000000E-03 0.  1.
         11   -1    0    0    0    0 -0.00000000000E+00 -0.00000000000E+00 -0.45593999997E+02  0.45594000000E+02  0.51100000000E-03 0. -1.
         23    2    1    2    0    0  0.00000000000E+00 -0.22204460493E-15  0.00000000000E+00  0.91188000000E+02  0.91188000000E+02 0.  0.
    9900012    2    3    3    0    0 -0.30639352170E+02  0.15833268374E+01 -0.20359795750E+02  0.54366836137E+02  0.39999434537E+02 0.  0.
        -12    1    3    3    0    0  0.30639352170E+02 -0.15833268374E+01  0.20359795750E+02  0.36821163863E+02  0.00000000000E+00 0.  1.
         11    1    4    4    0    0  0.75611755552E+01  0.20928483574E+01 -0.12834166035E+02  0.15042180962E+02  0.51100000000E-03 0. -1.
        -11    1    4    4    0    0 -0.27583211267E+02 -0.27258492477E+00 -0.79147136162E+01  0.28697570249E+02  0.51100000000E-03 0.  1.
         12    1    4    4    0    0 -0.10617316458E+02 -0.23693659524E+00  0.38908390080E+00  0.10627084925E+02  0.00000000000E+00 0. -1.
</event>
<event>
 8    1  0.2530183E-006  0.9118800E+02  0.7816164E-02  0.1184000E+00
        -11   -1    0    0    0    0  0.00000000000E+00  0.00000000000E+00  0.45593999997E+02  0.45594000000E+02  0.51100000000E-03 0. -1.
         11   -1    0    0    0    0 -0.00000000000E+00 -0.00000000000E+00 -0.45593999997E+02  0.45594000000E+02  0.51100000000E-03 0.  1.
         23    2    1    2    0    0 -0.17763568394E-14  0.17763568394E-14  0.00000000000E+00  0.91188000000E+02  0.91188000000E+02 0.  0.
    9900012    2    3    3    0    0  0.13969348560E+02 -0.12924468837E+02 -0.31521344089E+02  0.54367085738E+02  0.40000003557E+02 0.  0.
         12    1    3    3    0    0 -0.13969348560E+02  0.12924468837E+02  0.31521344089E+02  0.36820914262E+02  0.00000000000E+00 0. -1.
         11    1    4    4    0    0 -0.62776813553E+01  0.75762380449E+00 -0.33329809631E+01  0.71478695699E+01  0.51100000000E-03 0. -1.
        -11    1    4    4    0    0  0.13930364633E+02 -0.22253227343E+02 -0.24614929537E+02  0.35988275069E+02  0.51100000000E-03 0.  1.
        -12    1    4    4    0    0  0.63166652825E+01  0.85711347021E+01 -0.35734335883E+01  0.11230941100E+02  0.00000000000E+00 0.  1.
</event>
<event>
 8    1  0.2530183E-006  0.9118800E+02  0.7816164E-02  0.1184000E+00
        -11   -1    0    0    0    0  0.00000000000E+00  0.00000000000E+00  0.45593999997E+02  0.45594000000E+02  0.51100000000E-03 0.  1.
         11   -1    0    0    0    0 -0.00000000000E+00 -0.00000000000E+00 -0.45593999997E+02  0.45594000000E+02  0.51100000000E-03 0. -1.
         23    2    1    2    0    0  0.88817841970E-15 -0.88817841970E-15 -0.71054273576E-14  0.91188000000E+02  0.91188000000E+02 0.  0.
    9900012    2    3    3    0    0 -0.39588389979E+01 -0.26451113910E+01 -0.36511785858E+02  0.54367088455E+02  0.40000009751E+02 0.  0.
        -12    1    3    3    0    0  0.39588389979E+01  0.26451113910E+01  0.36511785858E+02  0.36820911545E+02  0.00000000000E+00 0.  1.
         11    1    4    4    0    0  0.11090832508E+01  0.74483430121E+01 -0.53610184144E+00  0.75495221523E+01  0.51100000000E-03 0.  1.
        -11    1    4    4    0    0  0.71353124661E+01  0.27753192987E+01 -0.24561555757E+02  0.25727127758E+02  0.51100000000E-03 0. -1.
        -12    1    4    4    0    0 -0.12203234715E+02 -0.12868773702E+02 -0.11414128259E+02  0.21090438545E+02  0.00000000000E+00 0.  1.
</event>
<event>
 8    1  0.2530183E-006  0.9118800E+02  0.7816164E-02  0.1184000E+00
        -11   -1    0    0    0    0  0.00000000000E+00  0.00000000000E+00  0.45593999997E+02  0.45594000000E+02  0.51100000000E-03 0. -1.
         11   -1    0    0    0    0 -0.00000000000E+00 -0.00000000000E+00 -0.45593999997E+02  0.45594000000E+02  0.51100000000E-03 0.  1.
         23    2    1    2    0    0  0.00000000000E+00  0.00000000000E+00 -0.17763568394E-14  0.91188000000E+02  0.91188000000E+02 0.  0.
    9900012    2    3    3    0    0 -0.11196363589E+02  0.31445322132E+02 -0.15543963517E+02  0.54367059715E+02  0.39999944233E+02 0.  0.
         12    1    3    3    0    0  0.11196363589E+02 -0.31445322132E+02  0.15543963517E+02  0.36820940285E+02  0.00000000000E+00 0. -1.
         11    1    4    4    0    0 -0.52844897834E+01  0.14523445920E+02 -0.40471152582E+01  0.15976090130E+02  0.51100000000E-03 0.  1.
        -11    1    4    4    0    0 -0.14782181257E+02  0.21378076757E+02 -0.11603657301E+02  0.28463659490E+02  0.51100000000E-03 0. -1.
         12    1    4    4    0    0  0.88703074507E+01 -0.44562005449E+01  0.10680904203E+00  0.99273100958E+01  0.00000000000E+00 0. -1.
</event>
<event>
 8    1  0.2530183E-006  0.9118800E+02  0.7816164E-02  0.1184000E+00
        -11   -1    0    0    0    0  0.00000000000E+00  0.00000000000E+00  0.45593999997E+02  0.45594000000E+02  0.51100000000E-03 0.  1.
         11   -1    0    0    0    0 -0.00000000000E+00 -0.00000000000E+00 -0.45593999997E+02  0.45594000000E+02  0.51100000000E-03 0. -1.
         23    2    1    2    0    0  0.00000000000E+00 -0.44408920985E-15  0.00000000000E+00  0.91188000000E+02  0.91188000000E+02 0.  0.
    9900012    2    3    3    0    0  0.13613355131E+02  0.34285428476E+01  0.34039696882E+02  0.54367091432E+02  0.40000016537E+02 0.  0.
         12    1    3    3    0    0 -0.13613355131E+02 -0.34285428476E+01 -0.34039696882E+02  0.36820908568E+02  0.00000000000E+00 0. -1.
         11    1    4    4    0    0 -0.95449545299E+01  0.11682519183E+02  0.98624859479E+01  0.18023763224E+02  0.51100000000E-03 0. -1.
        -11    1    4    4    0    0  0.11151338495E+02 -0.87053336803E+01  0.17810503506E+02  0.22745312046E+02  0.51100000000E-03 0.  1.
         12    1    4    4    0    0  0.12006971166E+02  0.45135734523E+00  0.63667074283E+01  0.13598016161E+02  0.00000000000E+00 0. -1.
</event>
<event>
 8    1  0.2530183E-006  0.9118800E+02  0.7816164E-02  0.1184000E+00
        -11   -1    0    0    0    0  0.00000000000E+00  0.00000000000E+00  0.45593999997E+02  0.45594000000E+02  0.51100000000E-03 0.  1.
         11   -1    0    0    0    0 -0.00000000000E+00 -0.00000000000E+00 -0.45593999997E+02  0.45594000000E+02  0.51100000000E-03 0. -1.
         23    2    1    2    0    0  0.00000000000E+00  0.17763568394E-14 -0.71054273576E-14  0.91188000000E+02  0.91188000000E+02 0.  0.
    9900012    2    3    3    0    0 -0.88498076227E+01 -0.15297781264E+02  0.32302302784E+02  0.54367082416E+02  0.39999995983E+02 0.  0.
         12    1    3    3    0    0  0.88498076227E+01  0.15297781264E+02 -0.32302302784E+02  0.36820917584E+02  0.00000000000E+00 0. -1.
         11    1    4    4    0    0  0.45270926222E+01 -0.63284430048E+01  0.56619743551E+01  0.96229783505E+01  0.51100000000E-03 0. -1.
        -11    1    4    4    0    0 -0.43923379468E+00 -0.54641713203E+01  0.30346056504E+02  0.30837205453E+02  0.51100000000E-03 0.  1.
        -12    1    4    4    0    0 -0.12937666450E+02 -0.35051669389E+01 -0.37057280749E+01  0.13906898612E+02  0.00000000000E+00 0.  1.
</event>
<event>
 8    1  0.2530183E-006  0.9118800E+02  0.7816164E-02  0.1184000E+00
        -11   -1    0    0    0    0  0.00000000000E+00  0.00000000000E+00  0.45593999997E+02  0.45594000000E+02  0.51100000000E-03 0.  1.
         11   -1    0    0    0    0 -0.00000000000E+00 -0.00000000000E+00 -0.45593999997E+02  0.45594000000E+02  0.51100000000E-03 0. -1.
         23    2    1    2    0    0 -0.17763568394E-14  0.00000000000E+00  0.00000000000E+00  0.91188000000E+02  0.91188000000E+02 0.  0.
    9900012    2    3    3    0    0 -0.14483347081E+02 -0.21680948785E+02  0.25999018097E+02  0.54367084410E+02  0.40000000530E+02 0.  0.
         12    1    3    3    0    0  0.14483347081E+02  0.21680948785E+02 -0.25999018097E+02  0.36820915590E+02  0.00000000000E+00 0. -1.
         11    1    4    4    0    0 -0.13615262992E+02 -0.96747752080E+01 -0.11842986427E+01  0.16744528217E+02  0.51100000000E-03 0. -1.
        -11    1    4    4    0    0  0.10635727130E+02 -0.41721074448E+01  0.16536537449E+02  0.20099309520E+02  0.51100000000E-03 0.  1.
        -12    1    4    4    0    0 -0.11503811219E+02 -0.78340661320E+01  0.10646779290E+02  0.17523246673E+02  0.00000000000E+00 0.  1.
</event>
<event>
 8    1  0.2530183E-006  0.9118800E+02  0.7816164E-02  0.1184000E+00
        -11   -1    0    0    0    0  0.00000000000E+00  0.00000000000E+00  0.45593999997E+02  0.45594000000E+02  0.51100000000E-03 0.  1.
         11   -1    0    0    0    0 -0.00000000000E+00 -0.00000000000E+00 -0.45593999997E+02  0.45594000000E+02  0.51100000000E-03 0. -1.
         23    2    1    2    0    0 -0.13322676296E-14  0.00000000000E+00  0.35527136788E-14  0.91188000000E+02  0.91188000000E+02 0.  0.
    9900012    2    3    3    0    0  0.13523394377E+01 -0.33012593528E+02  0.16251762199E+02  0.54367083011E+02  0.39999997339E+02 0.  0.
         12    1    3    3    0    0 -0.13523394377E+01  0.33012593528E+02 -0.16251762199E+02  0.36820916989E+02  0.00000000000E+00 0. -1.
         11    1    4    4    0    0 -0.96990605499E+01 -0.14258513698E+02 -0.98639111642E+00  0.17272809735E+02  0.51100000000E-03 0. -1.
        -11    1    4    4    0    0  0.12076695445E+02 -0.14566304226E+02 -0.41115457697E+00  0.18925983198E+02  0.51100000000E-03 0.  1.
        -12    1    4    4    0    0 -0.10252954569E+01 -0.41877756034E+01  0.17649307892E+02  0.18168290078E+02  0.00000000000E+00 0.  1.
</event>
<event>
 8    1  0.2530183E-006  0.9118800E+02  0.7816164E-02  0.1184000E+00
        -11   -1    0    0    0    0  0.00000000000E+00  0.00000000000E+00  0.45593999997E+02  0.45594000000E+02  0.51100000000E-03 0. -1.
         11   -1    0    0    0    0 -0.00000000000E+00 -0.00000000000E+00 -0.45593999997E+02  0.45594000000E+02  0.51100000000E-03 0.  1.
         23    2    1    2    0    0  0.35527136788E-14  0.00000000000E+00  0.17763568394E-14  0.91188000000E+02  0.91188000000E+02 0.  0.
    9900012    2    3    3    0    0  0.22610031778E+02 -0.24581419069E+02  0.15502301121E+02  0.54367067903E+02  0.39999962899E+02 0.  0.
        -12    1    3    3    0    0 -0.22610031778E+02  0.24581419069E+02 -0.15502301121E+02  0.36820932097E+02  0.00000000000E+00 0.  1.
         11    1    4    4    0    0 -0.11710625422E+01  0.14429794534E+01  0.81524269866E+01  0.83615574634E+01  0.51100000000E-03 0. -1.
        -11    1    4    4    0    0 -0.17922473587E+01 -0.83256256467E+01  0.11837717155E+02  0.14582857769E+02  0.51100000000E-03 0.  1.
        -12    1    4    4    0    0  0.25573341678E+02 -0.17698772876E+02 -0.44878430207E+01  0.31422652671E+02  0.00000000000E+00 0.  1.
</event>
<event>
 8    1  0.2530183E-006  0.9118800E+02  0.7816164E-02  0.1184000E+00
        -11   -1    0    0    0    0  0.00000000000E+00  0.00000000000E+00  0.45593999997E+02  0.45594000000E+02  0.51100000000E-03 0.  1.
         11   -1    0    0    0    0 -0.00000000000E+00 -0.00000000000E+00 -0.45593999997E+02  0.45594000000E+02  0.51100000000E-03 0. -1.
         23    2    1    2    0    0  0.35527136788E-14  0.17763568394E-14  0.00000000000E+00  0.91188000000E+02  0.91188000000E+02 0.  0.
    9900012    2    3    3    0    0  0.11002995205E+02 -0.11287410081E+02  0.33276204289E+02  0.54367118673E+02  0.40000078638E+02 0.  0.
         12    1    3    3    0    0 -0.11002995205E+02  0.11287410081E+02 -0.33276204289E+02  0.36820881327E+02  0.00000000000E+00 0. -1.
         11    1    4    4    0    0 -0.69273996831E+01  0.70569772203E+01  0.81437156865E+01  0.12810538603E+02  0.51100000000E-03 0. -1.
        -11    1    4    4    0    0  0.60447675804E+01 -0.19795817375E+02  0.12640787985E+02  0.24252899245E+02  0.51100000000E-03 0.  1.
         12    1    4    4    0    0  0.11885627308E+02  0.14514300737E+01  0.12491700618E+02  0.17303680825E+02  0.00000000000E+00 0. -1.
</event>
<event>
 8    1  0.2530183E-006  0.9118800E+02  0.7816164E-02  0.1184000E+00
        -11   -1    0    0    0    0  0.00000000000E+00  0.00000000000E+00  0.45593999997E+02  0.45594000000E+02  0.51100000000E-03 0. -1.
         11   -1    0    0    0    0 -0.00000000000E+00 -0.00000000000E+00 -0.45593999997E+02  0.45594000000E+02  0.51100000000E-03 0.  1.
         23    2    1    2    0    0  0.71054273576E-14  0.00000000000E+00  0.00000000000E+00  0.91188000000E+02  0.91188000000E+02 0.  0.
    9900012    2    3    3    0    0  0.32296915911E+02 -0.17663272557E+02  0.83543313825E+00  0.54367083074E+02  0.39999997484E+02 0.  0.
        -12    1    3    3    0    0 -0.32296915911E+02  0.17663272557E+02 -0.83543313825E+00  0.36820916926E+02  0.00000000000E+00 0.  1.
         11    1    4    4    0    0  0.31374120148E+02  0.11984656712E+01  0.10821969579E+01  0.31415647145E+02  0.51100000000E-03 0.  1.
        -11    1    4    4    0    0  0.26237626907E+01 -0.17374045768E+01  0.41325948484E+01  0.51943282302E+01  0.51100000000E-03 0. -1.
        -12    1    4    4    0    0 -0.17009669280E+01 -0.17124333651E+02 -0.43793586681E+01  0.17757107699E+02  0.00000000000E+00 0.  1.
</event>
<event>
 8    1  0.2530183E-006  0.9118800E+02  0.7816164E-02  0.1184000E+00
        -11   -1    0    0    0    0  0.00000000000E+00  0.00000000000E+00  0.45593999997E+02  0.45594000000E+02  0.51100000000E-03 0. -1.
         11   -1    0    0    0    0 -0.00000000000E+00 -0.00000000000E+00 -0.45593999997E+02  0.45594000000E+02  0.51100000000E-03 0.  1.
         23    2    1    2    0    0 -0.17763568394E-14  0.00000000000E+00 -0.35527136788E-14  0.91188000000E+02  0.91188000000E+02 0.  0.
    9900012    2    3    3    0    0 -0.12318203400E+02  0.21704856804E+02 -0.27072856665E+02  0.54367102240E+02  0.40000041176E+02 0.  0.
         12    1    3    3    0    0  0.12318203400E+02 -0.21704856804E+02  0.27072856665E+02  0.36820897760E+02  0.00000000000E+00 0. -1.
         11    1    4    4    0    0  0.60382251893E+01  0.16042442818E+01 -0.72967501857E+01  0.96060567709E+01  0.51100000000E-03 0. -1.
        -11    1    4    4    0    0 -0.22792935763E+02  0.17239599481E+02 -0.49250198470E+01  0.28999612613E+02  0.51100000000E-03 0.  1.
         12    1    4    4    0    0  0.44365071734E+01  0.28610130420E+01 -0.14851086632E+02  0.15761432856E+02  0.00000000000E+00 0. -1.
</event>
<event>
 8    1  0.2530183E-006  0.9118800E+02  0.7816164E-02  0.1184000E+00
        -11   -1    0    0    0    0  0.00000000000E+00  0.00000000000E+00  0.45593999997E+02  0.45594000000E+02  0.51100000000E-03 0.  1.
         11   -1    0    0    0    0 -0.00000000000E+00 -0.00000000000E+00 -0.45593999997E+02  0.45594000000E+02  0.51100000000E-03 0. -1.
         23    2    1    2    0    0  0.17763568394E-14 -0.22204460493E-15 -0.71054273576E-14  0.91188000000E+02  0.91188000000E+02 0.  0.
    9900012    2    3    3    0    0  0.12576018197E+02 -0.44620614572E-01 -0.34606657802E+02  0.54367095762E+02  0.40000026409E+02 0.  0.
        -12    1    3    3    0    0 -0.12576018197E+02  0.44620614572E-01  0.34606657802E+02  0.36820904238E+02  0.00000000000E+00 0.  1.
         11    1    4    4    0    0 -0.48156494631E+01 -0.98415309150E+00 -0.32305683504E+00  0.49257895853E+01  0.51100000000E-03 0. -1.
        -11    1    4    4    0    0 -0.36902902942E+01  0.81233063335E+01 -0.44830520248E+00  0.89334946163E+01  0.51100000000E-03 0.  1.
         12    1    4    4    0    0  0.21081957954E+02 -0.71837738566E+01 -0.33835295764E+02  0.40507811561E+02  0.00000000000E+00 0. -1.
</event>
<event>
 8    1  0.2530183E-006  0.9118800E+02  0.7816164E-02  0.1184000E+00
        -11   -1    0    0    0    0  0.00000000000E+00  0.00000000000E+00  0.45593999997E+02  0.45594000000E+02  0.51100000000E-03 0.  1.
         11   -1    0    0    0    0 -0.00000000000E+00 -0.00000000000E+00 -0.45593999997E+02  0.45594000000E+02  0.51100000000E-03 0. -1.
         23    2    1    2    0    0  0.00000000000E+00 -0.35527136788E-14  0.10658141036E-13  0.91188000000E+02  0.91188000000E+02 0.  0.
    9900012    2    3    3    0    0 -0.18466958188E+02  0.13709322752E+02 -0.28754315989E+02  0.54367017354E+02  0.39999847661E+02 0.  0.
         12    1    3    3    0    0  0.18466958188E+02 -0.13709322752E+02  0.28754315989E+02  0.36820982646E+02  0.00000000000E+00 0. -1.
         11    1    4    4    0    0  0.15375422581E+01 -0.61492934528E+01 -0.60423884651E+01  0.87571858944E+01  0.51100000000E-03 0. -1.
        -11    1    4    4    0    0 -0.52241362173E+00  0.16354677496E+02 -0.12462070594E+01  0.16410405976E+02  0.51100000000E-03 0.  1.
        -12    1    4    4    0    0 -0.19482086825E+02  0.35039387091E+01 -0.21465720464E+02  0.29199425483E+02  0.00000000000E+00 0.  1.
</event>
<event>
 8    1  0.2530183E-006  0.9118800E+02  0.7816164E-02  0.1184000E+00
        -11   -1    0    0    0    0  0.00000000000E+00  0.00000000000E+00  0.45593999997E+02  0.45594000000E+02  0.51100000000E-03 0.  1.
         11   -1    0    0    0    0 -0.00000000000E+00 -0.00000000000E+00 -0.45593999997E+02  0.45594000000E+02  0.51100000000E-03 0. -1.
         23    2    1    2    0    0  0.00000000000E+00  0.00000000000E+00  0.00000000000E+00  0.91188000000E+02  0.91188000000E+02 0.  0.
    9900012    2    3    3    0    0  0.26741153720E+02 -0.16088700451E+02  0.19540820020E+02  0.54367092467E+02  0.40000018898E+02 0.  0.
         12    1    3    3    0    0 -0.26741153720E+02  0.16088700451E+02 -0.19540820020E+02  0.36820907533E+02  0.00000000000E+00 0. -1.
         11    1    4    4    0    0 -0.19241509871E+01 -0.61162353635E+01 -0.59569487079E+01  0.87519100894E+01  0.51100000000E-03 0. -1.
        -11    1    4    4    0    0  0.25065546017E+02 -0.19512074310E+00  0.10102172675E+02  0.27025424368E+02  0.51100000000E-03 0.  1.
        -12    1    4    4    0    0  0.35997586899E+01 -0.97773443446E+01  0.15395596053E+02  0.18589758010E+02  0.00000000000E+00 0.  1.
</event>
<event>
 8    1  0.2530183E-006  0.9118800E+02  0.7816164E-02  0.1184000E+00
        -11   -1    0    0    0    0  0.00000000000E+00  0.00000000000E+00  0.45593999997E+02  0.45594000000E+02  0.51100000000E-03 0.  1.
         11   -1    0    0    0    0 -0.00000000000E+00 -0.00000000000E+00 -0.45593999997E+02  0.45594000000E+02  0.51100000000E-03 0. -1.
         23    2    1    2    0    0  0.88817841970E-15  0.00000000000E+00 -0.71054273576E-14  0.91188000000E+02  0.91188000000E+02 0.  0.
    9900012    2    3    3    0    0  0.38288892253E+01 -0.15690430321E+02  0.33089720563E+02  0.54367087419E+02  0.40000007389E+02 0.  0.
         12    1    3    3    0    0 -0.38288892253E+01  0.15690430321E+02 -0.33089720563E+02  0.36820912581E+02  0.00000000000E+00 0. -1.
         11    1    4    4    0    0 -0.79367990132E+01  0.35905251597E+01  0.36535212908E+01  0.94463150266E+01  0.51100000000E-03 0. -1.
        -11    1    4    4    0    0 -0.35501858071E+01 -0.37361604937E+01 -0.28970804705E+01  0.59123421766E+01  0.51100000000E-03 0.  1.
         12    1    4    4    0    0  0.15315874046E+02 -0.15544794987E+02  0.32333279743E+02  0.39008430216E+02  0.00000000000E+00 0. -1.
</event>
<event>
 8    1  0.2530183E-006  0.9118800E+02  0.7816164E-02  0.1184000E+00
        -11   -1    0    0    0    0  0.00000000000E+00  0.00000000000E+00  0.45593999997E+02  0.45594000000E+02  0.51100000000E-03 0. -1.
         11   -1    0    0    0    0 -0.00000000000E+00 -0.00000000000E+00 -0.45593999997E+02  0.45594000000E+02  0.51100000000E-03 0.  1.
         23    2    1    2    0    0 -0.71054273576E-14  0.88817841970E-15 -0.35527136788E-14  0.91188000000E+02  0.91188000000E+02 0.  0.
    9900012    2    3    3    0    0  0.32374815375E+02 -0.48237041603E+01  0.16863673317E+02  0.54367078364E+02  0.39999986747E+02 0.  0.
        -12    1    3    3    0    0 -0.32374815375E+02  0.48237041603E+01 -0.16863673317E+02  0.36820921636E+02  0.00000000000E+00 0.  1.
         11    1    4    4    0    0  0.23996250995E+02  0.62596750183E+00  0.45026890236E+01  0.24423065038E+02  0.51100000000E-03 0. -1.
        -11    1    4    4    0    0  0.43012487498E+01  0.10208652428E+02  0.55183301878E+01  0.12376158270E+02  0.51100000000E-03 0.  1.
        -12    1    4    4    0    0  0.40773156294E+01 -0.15658324090E+02  0.68426541059E+01  0.17567855056E+02  0.00000000000E+00 0.  1.
</event>
<event>
 8    1  0.2530183E-006  0.9118800E+02  0.7816164E-02  0.1184000E+00
        -11   -1    0    0    0    0  0.00000000000E+00  0.00000000000E+00  0.45593999997E+02  0.45594000000E+02  0.51100000000E-03 0.  1.
         11   -1    0    0    0    0 -0.00000000000E+00 -0.00000000000E+00 -0.45593999997E+02  0.45594000000E+02  0.51100000000E-03 0. -1.
         23    2    1    2    0    0  0.00000000000E+00  0.53290705182E-14 -0.71054273576E-14  0.91188000000E+02  0.91188000000E+02 0.  0.
    9900012    2    3    3    0    0 -0.20586252856E+01 -0.14858741535E+02  0.33626770913E+02  0.54367083932E+02  0.39999999439E+02 0.  0.
         12    1    3    3    0    0  0.20586252856E+01  0.14858741535E+02 -0.33626770913E+02  0.36820916068E+02  0.00000000000E+00 0. -1.
         11    1    4    4    0    0  0.53895325472E+01  0.60855042469E+01  0.24971922248E+01  0.85039045318E+01  0.51100000000E-03 0. -1.
        -11    1    4    4    0    0 -0.70894137724E+01 -0.24561798149E+02  0.33024915357E+02  0.41763461908E+02  0.51100000000E-03 0.  1.
         12    1    4    4    0    0 -0.35874406043E+00  0.36175523669E+01 -0.18953366686E+01  0.40997174921E+01  0.00000000000E+00 0. -1.
</event>
<event>
 8    1  0.2530183E-006  0.9118800E+02  0.7816164E-02  0.1184000E+00
        -11   -1    0    0    0    0  0.00000000000E+00  0.00000000000E+00  0.45593999997E+02  0.45594000000E+02  0.51100000000E-03 0.  1.
         11   -1    0    0    0    0 -0.00000000000E+00 -0.00000000000E+00 -0.45593999997E+02  0.45594000000E+02  0.51100000000E-03 0. -1.
         23    2    1    2    0    0 -0.17763568394E-14  0.00000000000E+00  0.00000000000E+00  0.91188000000E+02  0.91188000000E+02 0.  0.
    9900012    2    3    3    0    0  0.94235114129E+01  0.21717196611E+02 -0.28201770202E+02  0.54367095088E+02  0.40000024872E+02 0.  0.
        -12    1    3    3    0    0 -0.94235114129E+01 -0.21717196611E+02  0.28201770202E+02  0.36820904912E+02  0.00000000000E+00 0.  1.
         11    1    4    4    0    0  0.22452478315E+02  0.78735257080E+01 -0.12213433466E+02  0.26744609678E+02  0.51100000000E-03 0. -1.
        -11    1    4    4    0    0 -0.74561676911E+01  0.10208125519E+01 -0.18740372181E+01  0.77555470896E+01  0.51100000000E-03 0.  1.
         12    1    4    4    0    0 -0.55727992105E+01  0.12822858351E+02 -0.14114299518E+02  0.19866938321E+02  0.00000000000E+00 0. -1.
</event>
<event>
 8    1  0.2530183E-006  0.9118800E+02  0.7816164E-02  0.1184000E+00
        -11   -1    0    0    0    0  0.00000000000E+00  0.00000000000E+00  0.45593999997E+02  0.45594000000E+02  0.51100000000E-03 0.  1.
         11   -1    0    0    0    0 -0.00000000000E+00 -0.00000000000E+00 -0.45593999997E+02  0.45594000000E+02  0.51100000000E-03 0. -1.
         23    2    1    2    0    0  0.00000000000E+00 -0.35527136788E-14  0.00000000000E+00  0.91188000000E+02  0.91188000000E+02 0.  0.
    9900012    2    3    3    0    0  0.16274726182E+02  0.28800022639E+02  0.16170076967E+02  0.54367090106E+02  0.40000013514E+02 0.  0.
         12    1    3    3    0    0 -0.16274726182E+02 -0.28800022639E+02 -0.16170076967E+02  0.36820909894E+02  0.00000000000E+00 0. -1.
         11    1    4    4    0    0  0.45506938077E+01  0.14268518953E+02 -0.56164794761E+00  0.14987157700E+02  0.51100000000E-03 0. -1.
        -11    1    4    4    0    0  0.18820674548E+02  0.16650366105E+02  0.51786969013E+01  0.25656799951E+02  0.51100000000E-03 0.  1.
        -12    1    4    4    0    0 -0.70966421739E+01 -0.21188624191E+01  0.11553028013E+02  0.13723132455E+02  0.00000000000E+00 0.  1.
</event>
<event>
 8    1  0.2530183E-006  0.9118800E+02  0.7816164E-02  0.1184000E+00
        -11   -1    0    0    0    0  0.00000000000E+00  0.00000000000E+00  0.45593999997E+02  0.45594000000E+02  0.51100000000E-03 0.  1.
         11   -1    0    0    0    0 -0.00000000000E+00 -0.00000000000E+00 -0.45593999997E+02  0.45594000000E+02  0.51100000000E-03 0. -1.
         23    2    1    2    0    0  0.00000000000E+00  0.00000000000E+00  0.26645352591E-14  0.91188000000E+02  0.91188000000E+02 0.  0.
    9900012    2    3    3    0    0 -0.51293408239E+01 -0.36139518105E+02  0.48379399089E+01  0.54367074310E+02  0.39999977503E+02 0.  0.
        -12    1    3    3    0    0  0.51293408239E+01  0.36139518105E+02 -0.48379399089E+01  0.36820925690E+02  0.00000000000E+00 0.  1.
         11    1    4    4    0    0 -0.13104358111E+02 -0.25884864597E+02  0.13386279316E+02  0.31952196965E+02  0.51100000000E-03 0. -1.
        -11    1    4    4    0    0  0.44666695429E+01 -0.21848244904E+01  0.44802568890E+01  0.66930782837E+01  0.51100000000E-03 0.  1.
         12    1    4    4    0    0  0.35083477439E+01 -0.80698290176E+01 -0.13028596296E+02  0.15721799061E+02  0.00000000000E+00 0. -1.
</event>
<event>
 8    1  0.2530183E-006  0.9118800E+02  0.7816164E-02  0.1184000E+00
        -11   -1    0    0    0    0  0.00000000000E+00  0.00000000000E+00  0.45593999997E+02  0.45594000000E+02  0.51100000000E-03 0. -1.
         11   -1    0    0    0    0 -0.00000000000E+00 -0.00000000000E+00 -0.45593999997E+02  0.45594000000E+02  0.51100000000E-03 0.  1.
         23    2    1    2    0    0  0.00000000000E+00  0.00000000000E+00 -0.44408920985E-15  0.91188000000E+02  0.91188000000E+02 0.  0.
    9900012    2    3    3    0    0  0.20377947136E+02 -0.30555222880E+02  0.26266656953E+01  0.54367058304E+02  0.39999941016E+02 0.  0.
        -12    1    3    3    0    0 -0.20377947136E+02  0.30555222880E+02 -0.26266656953E+01  0.36820941696E+02  0.00000000000E+00 0.  1.
         11    1    4    4    0    0  0.74657732075E+01 -0.27692932713E+00 -0.39715738336E+01  0.84609608447E+01  0.51100000000E-03 0. -1.
        -11    1    4    4    0    0 -0.98726283541E+01 -0.13249020918E+02 -0.70558181480E+00  0.16537931910E+02  0.51100000000E-03 0.  1.
        -12    1    4    4    0    0  0.22784802282E+02 -0.17029272634E+02  0.73038213437E+01  0.29368165549E+02  0.00000000000E+00 0.  1.
</event>
<event>
 8    1  0.2530183E-006  0.9118800E+02  0.7816164E-02  0.1184000E+00
        -11   -1    0    0    0    0  0.00000000000E+00  0.00000000000E+00  0.45593999997E+02  0.45594000000E+02  0.51100000000E-03 0.  1.
         11   -1    0    0    0    0 -0.00000000000E+00 -0.00000000000E+00 -0.45593999997E+02  0.45594000000E+02  0.51100000000E-03 0. -1.
         23    2    1    2    0    0 -0.35527136788E-14 -0.88817841970E-15  0.35527136788E-14  0.91188000000E+02  0.91188000000E+02 0.  0.
    9900012    2    3    3    0    0  0.28025553806E+02 -0.73013952814E+01 -0.22738474912E+02  0.54367078223E+02  0.39999986426E+02 0.  0.
        -12    1    3    3    0    0 -0.28025553806E+02  0.73013952814E+01  0.22738474912E+02  0.36820921777E+02  0.00000000000E+00 0.  1.
         11    1    4    4    0    0  0.16474736196E+02 -0.67200978407E+01 -0.28068598256E+01  0.18012637510E+02  0.51100000000E-03 0. -1.
        -11    1    4    4    0    0  0.26584751681E+01  0.13493923663E+02 -0.91875104495E+01  0.16539764646E+02  0.51100000000E-03 0.  1.
         12    1    4    4    0    0  0.88923424419E+01 -0.14075221103E+02 -0.10744104637E+02  0.19814676067E+02  0.00000000000E+00 0. -1.
</event>
<event>
 8    1  0.2530183E-006  0.9118800E+02  0.7816164E-02  0.1184000E+00
        -11   -1    0    0    0    0  0.00000000000E+00  0.00000000000E+00  0.45593999997E+02  0.45594000000E+02  0.51100000000E-03 0. -1.
         11   -1    0    0    0    0 -0.00000000000E+00 -0.00000000000E+00 -0.45593999997E+02  0.45594000000E+02  0.51100000000E-03 0.  1.
         23    2    1    2    0    0  0.00000000000E+00  0.00000000000E+00  0.00000000000E+00  0.91188000000E+02  0.91188000000E+02 0.  0.
    9900012    2    3    3    0    0 -0.26653929878E+02 -0.10788213812E+02  0.22999172011E+02  0.54367089523E+02  0.40000012185E+02 0.  0.
        -12    1    3    3    0    0  0.26653929878E+02  0.10788213812E+02 -0.22999172011E+02  0.36820910477E+02  0.00000000000E+00 0.  1.
         11    1    4    4    0    0 -0.19093368746E+01 -0.60723979149E+01  0.14576335302E+02  0.15905632173E+02  0.51100000000E-03 0. -1.
        -11    1    4    4    0    0 -0.20284708935E+02 -0.97478954452E+01  0.16533705005E+02  0.27925871224E+02  0.51100000000E-03 0.  1.
        -12    1    4    4    0    0 -0.44598840684E+01  0.50320795486E+01 -0.81108682962E+01  0.10535586125E+02  0.00000000000E+00 0.  1.
</event>
<event>
 8    1  0.2530183E-006  0.9118800E+02  0.7816164E-02  0.1184000E+00
        -11   -1    0    0    0    0  0.00000000000E+00  0.00000000000E+00  0.45593999997E+02  0.45594000000E+02  0.51100000000E-03 0.  1.
         11   -1    0    0    0    0 -0.00000000000E+00 -0.00000000000E+00 -0.45593999997E+02  0.45594000000E+02  0.51100000000E-03 0. -1.
         23    2    1    2    0    0  0.00000000000E+00  0.00000000000E+00  0.00000000000E+00  0.91188000000E+02  0.91188000000E+02 0.  0.
    9900012    2    3    3    0    0  0.92876979640E+01  0.29415009510E+02 -0.20106614692E+02  0.54367081050E+02  0.39999992871E+02 0.  0.
        -12    1    3    3    0    0 -0.92876979640E+01 -0.29415009510E+02  0.20106614692E+02  0.36820918950E+02  0.00000000000E+00 0.  1.
         11    1    4    4    0    0  0.43831828500E+01  0.21688221298E+02 -0.15590822691E+02  0.27067785048E+02  0.51100000000E-03 0. -1.
        -11    1    4    4    0    0 -0.39584867723E+01 -0.65582753423E+01 -0.69125313439E+01  0.10318123998E+02  0.51100000000E-03 0.  1.
        -12    1    4    4    0    0  0.88630018862E+01  0.14285063554E+02  0.23967393428E+01  0.16981172004E+02  0.00000000000E+00 0.  1.
</event>
<event>
 8    1  0.2530183E-006  0.9118800E+02  0.7816164E-02  0.1184000E+00
        -11   -1    0    0    0    0  0.00000000000E+00  0.00000000000E+00  0.45593999997E+02  0.45594000000E+02  0.51100000000E-03 0.  1.
         11   -1    0    0    0    0 -0.00000000000E+00 -0.00000000000E+00 -0.45593999997E+02  0.45594000000E+02  0.51100000000E-03 0. -1.
         23    2    1    2    0    0  0.00000000000E+00  0.35527136788E-14 -0.35527136788E-14  0.91188000000E+02  0.91188000000E+02 0.  0.
    9900012    2    3    3    0    0  0.18949402877E+02 -0.12304132299E+02  0.29074140876E+02  0.54367119936E+02  0.40000081517E+02 0.  0.
         12    1    3    3    0    0 -0.18949402877E+02  0.12304132299E+02 -0.29074140876E+02  0.36820880064E+02  0.00000000000E+00 0. -1.
         11    1    4    4    0    0  0.22094114302E+01  0.10523621006E+02  0.39744568797E+01  0.11464048399E+02  0.51100000000E-03 0. -1.
        -11    1    4    4    0    0  0.82949117417E-01  0.30679730200E+01  0.58059556480E+01  0.65672262223E+01  0.51100000000E-03 0.  1.
        -12    1    4    4    0    0  0.16657042330E+02 -0.25895726326E+02  0.19293728348E+02  0.36335845314E+02  0.00000000000E+00 0.  1.
</event>
<event>
 8    1  0.2530183E-006  0.9118800E+02  0.7816164E-02  0.1184000E+00
        -11   -1    0    0    0    0  0.00000000000E+00  0.00000000000E+00  0.45593999997E+02  0.45594000000E+02  0.51100000000E-03 0.  1.
         11   -1    0    0    0    0 -0.00000000000E+00 -0.00000000000E+00 -0.45593999997E+02  0.45594000000E+02  0.51100000000E-03 0. -1.
         23    2    1    2    0    0  0.00000000000E+00 -0.17763568394E-14  0.00000000000E+00  0.91188000000E+02  0.91188000000E+02 0.  0.
    9900012    2    3    3    0    0  0.28524765566E+02 -0.14480917025E+02  0.18232408403E+02  0.54367083055E+02  0.39999997440E+02 0.  0.
         12    1    3    3    0    0 -0.28524765566E+02  0.14480917025E+02 -0.18232408403E+02  0.36820916945E+02  0.00000000000E+00 0. -1.
         11    1    4    4    0    0 -0.60433020934E+00 -0.13010270928E+01 -0.85963992621E+01  0.87152720573E+01  0.51100000000E-03 0. -1.
        -11    1    4    4    0    0  0.19473014007E+02 -0.91565757840E+00  0.21816614892E+02  0.29257501413E+02  0.51100000000E-03 0.  1.
        -12    1    4    4    0    0  0.96560817681E+01 -0.12264232354E+02  0.50121927735E+01  0.16394309584E+02  0.00000000000E+00 0.  1.
</event>
<event>
 8    1  0.2530183E-006  0.9118800E+02  0.7816164E-02  0.1184000E+00
        -11   -1    0    0    0    0  0.00000000000E+00  0.00000000000E+00  0.45593999997E+02  0.45594000000E+02  0.51100000000E-03 0. -1.
         11   -1    0    0    0    0 -0.00000000000E+00 -0.00000000000E+00 -0.45593999997E+02  0.45594000000E+02  0.51100000000E-03 0.  1.
         23    2    1    2    0    0  0.00000000000E+00  0.00000000000E+00 -0.35527136788E-14  0.91188000000E+02  0.91188000000E+02 0.  0.
    9900012    2    3    3    0    0  0.13580979574E+02 -0.18506118760E+02  0.28789926788E+02  0.54367091236E+02  0.40000016090E+02 0.  0.
        -12    1    3    3    0    0 -0.13580979574E+02  0.18506118760E+02 -0.28789926788E+02  0.36820908764E+02  0.00000000000E+00 0.  1.
         11    1    4    4    0    0  0.12724735504E+02 -0.22885147889E+02  0.10116827989E+02  0.28071321600E+02  0.51100000000E-03 0. -1.
        -11    1    4    4    0    0  0.61235648806E+01  0.72307272742E+01  0.17904193081E+02  0.20256890035E+02  0.51100000000E-03 0.  1.
        -12    1    4    4    0    0 -0.52673208103E+01 -0.28516981452E+01  0.76890571841E+00  0.60388796009E+01  0.00000000000E+00 0.  1.
</event>
<event>
 8    1  0.2530183E-006  0.9118800E+02  0.7816164E-02  0.1184000E+00
        -11   -1    0    0    0    0  0.00000000000E+00  0.00000000000E+00  0.45593999997E+02  0.45594000000E+02  0.51100000000E-03 0.  1.
         11   -1    0    0    0    0 -0.00000000000E+00 -0.00000000000E+00 -0.45593999997E+02  0.45594000000E+02  0.51100000000E-03 0. -1.
         23    2    1    2    0    0 -0.71054273576E-14  0.88817841970E-15  0.00000000000E+00  0.91188000000E+02  0.91188000000E+02 0.  0.
    9900012    2    3    3    0    0 -0.33096864847E+02  0.75755376438E+01  0.14247404017E+02  0.54367085366E+02  0.40000002708E+02 0.  0.
         12    1    3    3    0    0  0.33096864847E+02 -0.75755376438E+01 -0.14247404017E+02  0.36820914634E+02  0.00000000000E+00 0. -1.
         11    1    4    4    0    0 -0.17118868868E+02 -0.47739549351E+01  0.70915942592E+01  0.19134707378E+02  0.51100000000E-03 0. -1.
        -11    1    4    4    0    0  0.49480651748E+01 -0.47761924889E+01  0.41327653008E+01  0.80234103072E+01  0.51100000000E-03 0.  1.
        -12    1    4    4    0    0 -0.20926061153E+02  0.17125685068E+02  0.30230444572E+01  0.27208967680E+02  0.00000000000E+00 0.  1.
</event>
<event>
 8    1  0.2530183E-006  0.9118800E+02  0.7816164E-02  0.1184000E+00
        -11   -1    0    0    0    0  0.00000000000E+00  0.00000000000E+00  0.45593999997E+02  0.45594000000E+02  0.51100000000E-03 0.  1.
         11   -1    0    0    0    0 -0.00000000000E+00 -0.00000000000E+00 -0.45593999997E+02  0.45594000000E+02  0.51100000000E-03 0. -1.
         23    2    1    2    0    0  0.88817841970E-15  0.00000000000E+00  0.00000000000E+00  0.91188000000E+02  0.91188000000E+02 0.  0.
    9900012    2    3    3    0    0 -0.40294406558E+01 -0.28833662575E+02 -0.22542471282E+02  0.54367088808E+02  0.40000010555E+02 0.  0.
        -12    1    3    3    0    0  0.40294406558E+01  0.28833662575E+02  0.22542471282E+02  0.36820911192E+02  0.00000000000E+00 0.  1.
         11    1    4    4    0    0 -0.94752524282E+01 -0.92442856073E+01 -0.94065162189E+01  0.16239451118E+02  0.51100000000E-03 0. -1.
        -11    1    4    4    0    0  0.14297447628E+02 -0.15837063028E+02  0.61983920543E+00  0.21345111266E+02  0.51100000000E-03 0.  1.
        -12    1    4    4    0    0 -0.88516358559E+01 -0.37523139402E+01 -0.13755794269E+02  0.16782526425E+02  0.00000000000E+00 0.  1.
</event>
<event>
 8    1  0.2530183E-006  0.9118800E+02  0.7816164E-02  0.1184000E+00
        -11   -1    0    0    0    0  0.00000000000E+00  0.00000000000E+00  0.45593999997E+02  0.45594000000E+02  0.51100000000E-03 0.  1.
         11   -1    0    0    0    0 -0.00000000000E+00 -0.00000000000E+00 -0.45593999997E+02  0.45594000000E+02  0.51100000000E-03 0. -1.
         23    2    1    2    0    0  0.17763568394E-14  0.35527136788E-14 -0.35527136788E-14  0.91188000000E+02  0.91188000000E+02 0.  0.
    9900012    2    3    3    0    0  0.15614665663E+02 -0.24583373064E+02  0.22530411432E+02  0.54367089443E+02  0.40000012003E+02 0.  0.
        -12    1    3    3    0    0 -0.15614665663E+02  0.24583373064E+02 -0.22530411432E+02  0.36820910557E+02  0.00000000000E+00 0.  1.
         11    1    4    4    0    0  0.15316776675E+02 -0.21182210370E+02  0.15818271807E+02  0.30553353451E+02  0.51100000000E-03 0. -1.
        -11    1    4    4    0    0  0.23654822845E+01 -0.10374208905E+02  0.11054079167E+02  0.15343154283E+02  0.51100000000E-03 0.  1.
        -12    1    4    4    0    0 -0.20675932972E+01  0.69730462115E+01 -0.43419395417E+01  0.84705817093E+01  0.00000000000E+00 0.  1.
</event>
<event>
 8    1  0.2530183E-006  0.9118800E+02  0.7816164E-02  0.1184000E+00
        -11   -1    0    0    0    0  0.00000000000E+00  0.00000000000E+00  0.45593999997E+02  0.45594000000E+02  0.51100000000E-03 0.  1.
         11   -1    0    0    0    0 -0.00000000000E+00 -0.00000000000E+00 -0.45593999997E+02  0.45594000000E+02  0.51100000000E-03 0. -1.
         23    2    1    2    0    0 -0.35527136788E-14  0.00000000000E+00  0.00000000000E+00  0.91188000000E+02  0.91188000000E+02 0.  0.
    9900012    2    3    3    0    0  0.16522113526E+02 -0.32498418986E+02  0.51628300221E+01  0.54367050993E+02  0.39999924349E+02 0.  0.
         12    1    3    3    0    0 -0.16522113526E+02  0.32498418986E+02 -0.51628300221E+01  0.36820949007E+02  0.00000000000E+00 0. -1.
         11    1    4    4    0    0  0.20092664549E+02  0.11628034091E+01  0.27841385455E+01  0.20317940549E+02  0.51100000000E-03 0. -1.
        -11    1    4    4    0    0 -0.11774335828E+01 -0.18432489915E+02  0.13123718907E+00  0.18470524025E+02  0.51100000000E-03 0.  1.
         12    1    4    4    0    0 -0.23931174404E+01 -0.15228732480E+02  0.22474542876E+01  0.15578586419E+02  0.00000000000E+00 0. -1.
</event>
<event>
 8    1  0.2530183E-006  0.9118800E+02  0.7816164E-02  0.1184000E+00
        -11   -1    0    0    0    0  0.00000000000E+00  0.00000000000E+00  0.45593999997E+02  0.45594000000E+02  0.51100000000E-03 0.  1.
         11   -1    0    0    0    0 -0.00000000000E+00 -0.00000000000E+00 -0.45593999997E+02  0.45594000000E+02  0.51100000000E-03 0. -1.
         23    2    1    2    0    0  0.00000000000E+00  0.00000000000E+00 -0.17763568394E-14  0.91188000000E+02  0.91188000000E+02 0.  0.
    9900012    2    3    3    0    0  0.25176246577E+02  0.23672631179E+02  0.12710137519E+02  0.54367021545E+02  0.39999857216E+02 0.  0.
         12    1    3    3    0    0 -0.25176246577E+02 -0.23672631179E+02 -0.12710137519E+02  0.36820978455E+02  0.00000000000E+00 0. -1.
         11    1    4    4    0    0  0.21456722994E+02  0.57197150299E+01 -0.26767211680E+01  0.22366737315E+02  0.51100000000E-03 0. -1.
        -11    1    4    4    0    0  0.66195792492E+01  0.54283657953E+00  0.12445548542E+02  0.14106919570E+02  0.51100000000E-03 0.  1.
        -12    1    4    4    0    0 -0.29000556658E+01  0.17410079569E+02  0.29413101449E+01  0.17893364660E+02  0.00000000000E+00 0.  1.
</event>
<event>
 8    1  0.2530183E-006  0.9118800E+02  0.7816164E-02  0.1184000E+00
        -11   -1    0    0    0    0  0.00000000000E+00  0.00000000000E+00  0.45593999997E+02  0.45594000000E+02  0.51100000000E-03 0.  1.
         11   -1    0    0    0    0 -0.00000000000E+00 -0.00000000000E+00 -0.45593999997E+02  0.45594000000E+02  0.51100000000E-03 0. -1.
         23    2    1    2    0    0  0.44408920985E-15  0.35527136788E-14  0.00000000000E+00  0.91188000000E+02  0.91188000000E+02 0.  0.
    9900012    2    3    3    0    0  0.38504134748E+01  0.26822611642E+02 -0.24929924422E+02  0.54367091389E+02  0.40000016440E+02 0.  0.
        -12    1    3    3    0    0 -0.38504134748E+01 -0.26822611642E+02  0.24929924422E+02  0.36820908611E+02  0.00000000000E+00 0.  1.
         11    1    4    4    0    0  0.79012328834E+01 -0.67034809307E+01 -0.23322882200E+01  0.10621003073E+02  0.51100000000E-03 0. -1.
        -11    1    4    4    0    0 -0.10221847810E+02  0.21423810383E+02 -0.16138130176E+02  0.28703746616E+02  0.51100000000E-03 0.  1.
        -12    1    4    4    0    0  0.61710284009E+01  0.12102282190E+02 -0.64595060260E+01  0.15042341701E+02  0.00000000000E+00 0.  1.
</event>
<event>
 8    1  0.2530183E-006  0.9118800E+02  0.7816164E-02  0.1184000E+00
        -11   -1    0    0    0    0  0.00000000000E+00  0.00000000000E+00  0.45593999997E+02  0.45594000000E+02  0.51100000000E-03 0. -1.
         11   -1    0    0    0    0 -0.00000000000E+00 -0.00000000000E+00 -0.45593999997E+02  0.45594000000E+02  0.51100000000E-03 0.  1.
         23    2    1    2    0    0  0.00000000000E+00  0.00000000000E+00  0.17763568394E-14  0.91188000000E+02  0.91188000000E+02 0.  0.
    9900012    2    3    3    0    0  0.25117261944E+02  0.23350458656E+02  0.13403759231E+02  0.54367061276E+02  0.39999947791E+02 0.  0.
        -12    1    3    3    0    0 -0.25117261944E+02 -0.23350458656E+02 -0.13403759231E+02  0.36820938724E+02  0.00000000000E+00 0.  1.
         11    1    4    4    0    0  0.23670717217E+02  0.15802292202E+02  0.68713432542E+01  0.29278501512E+02  0.51100000000E-03 0. -1.
        -11    1    4    4    0    0 -0.60162601579E+01  0.13172869415E+02  0.17387863807E+01  0.14585720869E+02  0.51100000000E-03 0.  1.
        -12    1    4    4    0    0  0.74628048849E+01 -0.56247029619E+01  0.47936295960E+01  0.10502838895E+02  0.00000000000E+00 0.  1.
</event>
<event>
 8    1  0.2530183E-006  0.9118800E+02  0.7816164E-02  0.1184000E+00
        -11   -1    0    0    0    0  0.00000000000E+00  0.00000000000E+00  0.45593999997E+02  0.45594000000E+02  0.51100000000E-03 0.  1.
         11   -1    0    0    0    0 -0.00000000000E+00 -0.00000000000E+00 -0.45593999997E+02  0.45594000000E+02  0.51100000000E-03 0. -1.
         23    2    1    2    0    0 -0.35527136788E-14  0.00000000000E+00  0.00000000000E+00  0.91188000000E+02  0.91188000000E+02 0.  0.
    9900012    2    3    3    0    0  0.27630929599E+02 -0.50995993144E+01  0.23797170998E+02  0.54367088399E+02  0.40000009622E+02 0.  0.
         12    1    3    3    0    0 -0.27630929599E+02  0.50995993144E+01 -0.23797170998E+02  0.36820911601E+02  0.00000000000E+00 0. -1.
         11    1    4    4    0    0 -0.58766486413E+00 -0.35986173846E+01 -0.56684724332E+01  0.67399537877E+01  0.51100000000E-03 0. -1.
        -11    1    4    4    0    0  0.10298269267E+02 -0.19125404030E+01 -0.26887261635E+01  0.10813945133E+02  0.51100000000E-03 0.  1.
        -12    1    4    4    0    0  0.17920325195E+02  0.41155847314E+00  0.32154369595E+02  0.36813189478E+02  0.00000000000E+00 0.  1.
</event>
<event>
 8    1  0.2530183E-006  0.9118800E+02  0.7816164E-02  0.1184000E+00
        -11   -1    0    0    0    0  0.00000000000E+00  0.00000000000E+00  0.45593999997E+02  0.45594000000E+02  0.51100000000E-03 0.  1.
         11   -1    0    0    0    0 -0.00000000000E+00 -0.00000000000E+00 -0.45593999997E+02  0.45594000000E+02  0.51100000000E-03 0. -1.
         23    2    1    2    0    0  0.00000000000E+00  0.17763568394E-14  0.00000000000E+00  0.91188000000E+02  0.91188000000E+02 0.  0.
    9900012    2    3    3    0    0  0.22030845745E+02 -0.10780008082E+02  0.27462847881E+02  0.54367153294E+02  0.40000157563E+02 0.  0.
         12    1    3    3    0    0 -0.22030845745E+02  0.10780008082E+02 -0.27462847881E+02  0.36820846706E+02  0.00000000000E+00 0. -1.
         11    1    4    4    0    0 -0.10518793206E+01 -0.44903995559E+01  0.18129354300E+02  0.18706780211E+02  0.51100000000E-03 0. -1.
        -11    1    4    4    0    0  0.13063770427E+02 -0.13786518746E+02  0.12519382042E+02  0.22747859765E+02  0.51100000000E-03 0.  1.
         12    1    4    4    0    0  0.10018954639E+02  0.74969102205E+01 -0.31858884607E+01  0.12912513318E+02  0.00000000000E+00 0. -1.
</event>
<event>
 8    1  0.2530183E-006  0.9118800E+02  0.7816164E-02  0.1184000E+00
        -11   -1    0    0    0    0  0.00000000000E+00  0.00000000000E+00  0.45593999997E+02  0.45594000000E+02  0.51100000000E-03 0.  1.
         11   -1    0    0    0    0 -0.00000000000E+00 -0.00000000000E+00 -0.45593999997E+02  0.45594000000E+02  0.51100000000E-03 0. -1.
         23    2    1    2    0    0  0.00000000000E+00  0.88817841970E-15 -0.35527136788E-14  0.91188000000E+02  0.91188000000E+02 0.  0.
    9900012    2    3    3    0    0 -0.32793851059E+02 -0.46525215209E+01  0.16084028864E+02  0.54367100931E+02  0.40000038192E+02 0.  0.
         12    1    3    3    0    0  0.32793851059E+02  0.46525215209E+01 -0.16084028864E+02  0.36820899069E+02  0.00000000000E+00 0. -1.
         11    1    4    4    0    0 -0.11192305614E+02 -0.61642460781E+01  0.45686300900E+01  0.13569746343E+02  0.51100000000E-03 0.  1.
        -11    1    4    4    0    0 -0.18473988051E+02  0.15924362070E+02  0.72613288355E+01  0.25447994785E+02  0.51100000000E-03 0. -1.
         12    1    4    4    0    0 -0.31275573941E+01 -0.14412637513E+02  0.42540699386E+01  0.15349359803E+02  0.00000000000E+00 0. -1.
</event>
<event>
 8    1  0.2530183E-006  0.9118800E+02  0.7816164E-02  0.1184000E+00
        -11   -1    0    0    0    0  0.00000000000E+00  0.00000000000E+00  0.45593999997E+02  0.45594000000E+02  0.51100000000E-03 0. -1.
         11   -1    0    0    0    0 -0.00000000000E+00 -0.00000000000E+00 -0.45593999997E+02  0.45594000000E+02  0.51100000000E-03 0.  1.
         23    2    1    2    0    0  0.00000000000E+00  0.00000000000E+00 -0.35527136788E-14  0.91188000000E+02  0.91188000000E+02 0.  0.
    9900012    2    3    3    0    0 -0.12549966407E+02  0.16721057522E+02  0.30309815394E+02  0.54367077541E+02  0.39999984871E+02 0.  0.
        -12    1    3    3    0    0  0.12549966407E+02 -0.16721057522E+02 -0.30309815394E+02  0.36820922459E+02  0.00000000000E+00 0.  1.
         11    1    4    4    0    0 -0.56821519676E+01 -0.67991117861E+01 -0.26761550796E+00  0.88648965242E+01  0.51100000000E-03 0.  1.
        -11    1    4    4    0    0  0.46265943403E+01 -0.24534535964E+01  0.57516905677E+01  0.77786087694E+01  0.51100000000E-03 0. -1.
         12    1    4    4    0    0 -0.11494408779E+02  0.25973622904E+02  0.24825740335E+02  0.37723572248E+02  0.00000000000E+00 0. -1.
</event>
<event>
 8    1  0.2530183E-006  0.9118800E+02  0.7816164E-02  0.1184000E+00
        -11   -1    0    0    0    0  0.00000000000E+00  0.00000000000E+00  0.45593999997E+02  0.45594000000E+02  0.51100000000E-03 0.  1.
         11   -1    0    0    0    0 -0.00000000000E+00 -0.00000000000E+00 -0.45593999997E+02  0.45594000000E+02  0.51100000000E-03 0. -1.
         23    2    1    2    0    0 -0.88817841970E-15  0.35527136788E-14  0.00000000000E+00  0.91188000000E+02  0.91188000000E+02 0.  0.
    9900012    2    3    3    0    0  0.69401178499E+01  0.31810207537E+02  0.17196666052E+02  0.54367083897E+02  0.39999999360E+02 0.  0.
        -12    1    3    3    0    0 -0.69401178499E+01 -0.31810207537E+02 -0.17196666052E+02  0.36820916103E+02  0.00000000000E+00 0.  1.
         11    1    4    4    0    0  0.32349689941E+01  0.11692070495E+02 -0.58297573795E+00  0.12145344698E+02  0.51100000000E-03 0. -1.
        -11    1    4    4    0    0 -0.12821871297E+02  0.17110817765E+02  0.11577191463E+02  0.24314847944E+02  0.51100000000E-03 0.  1.
         12    1    4    4    0    0  0.16527020152E+02  0.30073192779E+01  0.62024503277E+01  0.17906891255E+02  0.00000000000E+00 0. -1.
</event>
<event>
 8    1  0.2530183E-006  0.9118800E+02  0.7816164E-02  0.1184000E+00
        -11   -1    0    0    0    0  0.00000000000E+00  0.00000000000E+00  0.45593999997E+02  0.45594000000E+02  0.51100000000E-03 0.  1.
         11   -1    0    0    0    0 -0.00000000000E+00 -0.00000000000E+00 -0.45593999997E+02  0.45594000000E+02  0.51100000000E-03 0. -1.
         23    2    1    2    0    0  0.00000000000E+00  0.00000000000E+00 -0.88817841970E-15  0.91188000000E+02  0.91188000000E+02 0.  0.
    9900012    2    3    3    0    0  0.32179017052E+02  0.16946462396E+02  0.57539869281E+01  0.54367080786E+02  0.39999992268E+02 0.  0.
         12    1    3    3    0    0 -0.32179017052E+02 -0.16946462396E+02 -0.57539869281E+01  0.36820919214E+02  0.00000000000E+00 0. -1.
         11    1    4    4    0    0  0.15360298391E+02 -0.10093666729E+02  0.74859915100E+01  0.19845930158E+02  0.51100000000E-03 0. -1.
        -11    1    4    4    0    0  0.42512579351E+01  0.18777757186E+02  0.79857598761E+00  0.19269537691E+02  0.51100000000E-03 0.  1.
         12    1    4    4    0    0  0.12567460726E+02  0.82623719391E+01 -0.25305805694E+01  0.15251612937E+02  0.00000000000E+00 0. -1.
</event>
<event>
 8    1  0.2530183E-006  0.9118800E+02  0.7816164E-02  0.1184000E+00
        -11   -1    0    0    0    0  0.00000000000E+00  0.00000000000E+00  0.45593999997E+02  0.45594000000E+02  0.51100000000E-03 0.  1.
         11   -1    0    0    0    0 -0.00000000000E+00 -0.00000000000E+00 -0.45593999997E+02  0.45594000000E+02  0.51100000000E-03 0. -1.
         23    2    1    2    0    0 -0.88817841970E-15  0.00000000000E+00 -0.35527136788E-14  0.91188000000E+02  0.91188000000E+02 0.  0.
    9900012    2    3    3    0    0  0.26941417516E+01 -0.23152888917E+02 -0.28503836470E+02  0.54367036426E+02  0.39999891141E+02 0.  0.
        -12    1    3    3    0    0 -0.26941417516E+01  0.23152888917E+02  0.28503836470E+02  0.36820963574E+02  0.00000000000E+00 0.  1.
         11    1    4    4    0    0 -0.38060468381E+01 -0.30504912054E+02 -0.13494069644E+02  0.33572690803E+02  0.51100000000E-03 0. -1.
        -11    1    4    4    0    0 -0.29143705416E+01  0.14302223268E+01 -0.38945726496E+01  0.50701861841E+01  0.51100000000E-03 0.  1.
         12    1    4    4    0    0  0.94145591313E+01  0.59218008101E+01 -0.11115194177E+02  0.15724159439E+02  0.00000000000E+00 0. -1.
</event>
<event>
 8    1  0.2530183E-006  0.9118800E+02  0.7816164E-02  0.1184000E+00
        -11   -1    0    0    0    0  0.00000000000E+00  0.00000000000E+00  0.45593999997E+02  0.45594000000E+02  0.51100000000E-03 0. -1.
         11   -1    0    0    0    0 -0.00000000000E+00 -0.00000000000E+00 -0.45593999997E+02  0.45594000000E+02  0.51100000000E-03 0.  1.
         23    2    1    2    0    0  0.00000000000E+00  0.00000000000E+00 -0.35527136788E-14  0.91188000000E+02  0.91188000000E+02 0.  0.
    9900012    2    3    3    0    0 -0.23172788387E+02  0.10160858828E+02 -0.26749944411E+02  0.54367072530E+02  0.39999973447E+02 0.  0.
         12    1    3    3    0    0  0.23172788387E+02 -0.10160858828E+02  0.26749944411E+02  0.36820927470E+02  0.00000000000E+00 0. -1.
         11    1    4    4    0    0 -0.12091400675E+02  0.13560924993E+00 -0.12825913474E+01  0.12159991817E+02  0.51100000000E-03 0. -1.
        -11    1    4    4    0    0 -0.15851978760E+02 -0.38857534071E+01 -0.51278289940E+01  0.17107861953E+02  0.51100000000E-03 0.  1.
         12    1    4    4    0    0  0.47705910485E+01  0.13911002985E+02 -0.20339524069E+02  0.25099218760E+02  0.00000000000E+00 0. -1.
</event>
<event>
 8    1  0.2530183E-006  0.9118800E+02  0.7816164E-02  0.1184000E+00
        -11   -1    0    0    0    0  0.00000000000E+00  0.00000000000E+00  0.45593999997E+02  0.45594000000E+02  0.51100000000E-03 0. -1.
         11   -1    0    0    0    0 -0.00000000000E+00 -0.00000000000E+00 -0.45593999997E+02  0.45594000000E+02  0.51100000000E-03 0.  1.
         23    2    1    2    0    0  0.71054273576E-14  0.00000000000E+00  0.00000000000E+00  0.91188000000E+02  0.91188000000E+02 0.  0.
    9900012    2    3    3    0    0 -0.33738078511E+02  0.12047296013E+01 -0.14699277431E+02  0.54367108212E+02  0.40000054792E+02 0.  0.
         12    1    3    3    0    0  0.33738078511E+02 -0.12047296013E+01  0.14699277431E+02  0.36820891788E+02  0.00000000000E+00 0. -1.
         11    1    4    4    0    0 -0.17193838329E+02 -0.21789922186E+01  0.60949117283E+01  0.18371827150E+02  0.51100000000E-03 0. -1.
        -11    1    4    4    0    0 -0.21114758212E+02  0.16110400304E+01 -0.22411165541E+02  0.30833241891E+02  0.51100000000E-03 0.  1.
         12    1    4    4    0    0  0.45705180304E+01  0.17726817895E+01  0.16169763814E+01  0.51620391718E+01  0.00000000000E+00 0. -1.
</event>
<event>
 8    1  0.2530183E-006  0.9118800E+02  0.7816164E-02  0.1184000E+00
        -11   -1    0    0    0    0  0.00000000000E+00  0.00000000000E+00  0.45593999997E+02  0.45594000000E+02  0.51100000000E-03 0.  1.
         11   -1    0    0    0    0 -0.00000000000E+00 -0.00000000000E+00 -0.45593999997E+02  0.45594000000E+02  0.51100000000E-03 0. -1.
         23    2    1    2    0    0  0.35527136788E-14 -0.35527136788E-14  0.88817841970E-15  0.91188000000E+02  0.91188000000E+02 0.  0.
    9900012    2    3    3    0    0 -0.29937790769E+02 -0.20431325200E+02 -0.64861013403E+01  0.54367083714E+02  0.39999998943E+02 0.  0.
        -12    1    3    3    0    0  0.29937790769E+02  0.20431325200E+02  0.64861013403E+01  0.36820916286E+02  0.00000000000E+00 0.  1.
         11    1    4    4    0    0 -0.80904548413E+01 -0.15562582215E+02 -0.72156064357E+01  0.18966138280E+02  0.51100000000E-03 0. -1.
        -11    1    4    4    0    0  0.49883441310E+00 -0.33986490944E+01 -0.99965726368E+01  0.10570294044E+02  0.51100000000E-03 0.  1.
        -12    1    4    4    0    0 -0.22346170341E+02 -0.14700938904E+01  0.10726077732E+02  0.24830651390E+02  0.00000000000E+00 0.  1.
</event>
<event>
 8    1  0.2530183E-006  0.9118800E+02  0.7816164E-02  0.1184000E+00
        -11   -1    0    0    0    0  0.00000000000E+00  0.00000000000E+00  0.45593999997E+02  0.45594000000E+02  0.51100000000E-03 0.  1.
         11   -1    0    0    0    0 -0.00000000000E+00 -0.00000000000E+00 -0.45593999997E+02  0.45594000000E+02  0.51100000000E-03 0. -1.
         23    2    1    2    0    0  0.00000000000E+00 -0.17763568394E-14  0.35527136788E-14  0.91188000000E+02  0.91188000000E+02 0.  0.
    9900012    2    3    3    0    0 -0.21324730670E+02 -0.15871639011E+02  0.25477973157E+02  0.54367079598E+02  0.39999989560E+02 0.  0.
         12    1    3    3    0    0  0.21324730670E+02  0.15871639011E+02 -0.25477973157E+02  0.36820920402E+02  0.00000000000E+00 0. -1.
         11    1    4    4    0    0  0.61859836727E+01  0.63297531400E+01  0.10138224069E+02  0.13457925410E+02  0.51100000000E-03 0. -1.
        -11    1    4    4    0    0 -0.56139823264E+01 -0.10883579714E+02  0.75661329124E+00  0.12269538250E+02  0.51100000000E-03 0.  1.
        -12    1    4    4    0    0 -0.21896732016E+02 -0.11317812438E+02  0.14583135796E+02  0.28639615937E+02  0.00000000000E+00 0.  1.
</event>
<event>
 8    1  0.2530183E-006  0.9118800E+02  0.7816164E-02  0.1184000E+00
        -11   -1    0    0    0    0  0.00000000000E+00  0.00000000000E+00  0.45593999997E+02  0.45594000000E+02  0.51100000000E-03 0.  1.
         11   -1    0    0    0    0 -0.00000000000E+00 -0.00000000000E+00 -0.45593999997E+02  0.45594000000E+02  0.51100000000E-03 0. -1.
         23    2    1    2    0    0 -0.35527136788E-14  0.00000000000E+00 -0.35527136788E-14  0.91188000000E+02  0.91188000000E+02 0.  0.
    9900012    2    3    3    0    0 -0.25388353472E+02  0.20604198669E+02  0.16931540832E+02  0.54367101453E+02  0.40000039383E+02 0.  0.
         12    1    3    3    0    0  0.25388353472E+02 -0.20604198669E+02 -0.16931540832E+02  0.36820898547E+02  0.00000000000E+00 0. -1.
         11    1    4    4    0    0  0.42970872892E+01 -0.45034640268E+01 -0.10925723865E+01  0.63197992130E+01  0.51100000000E-03 0. -1.
        -11    1    4    4    0    0 -0.46237718908E+01  0.17041038416E+02  0.10982433012E+02  0.20793991726E+02  0.51100000000E-03 0.  1.
         12    1    4    4    0    0 -0.25061668871E+02  0.80666242798E+01  0.70416802069E+01  0.27253310514E+02  0.00000000000E+00 0. -1.
</event>
<event>
 8    1  0.2530183E-006  0.9118800E+02  0.7816164E-02  0.1184000E+00
        -11   -1    0    0    0    0  0.00000000000E+00  0.00000000000E+00  0.45593999997E+02  0.45594000000E+02  0.51100000000E-03 0.  1.
         11   -1    0    0    0    0 -0.00000000000E+00 -0.00000000000E+00 -0.45593999997E+02  0.45594000000E+02  0.51100000000E-03 0. -1.
         23    2    1    2    0    0  0.71054273576E-14  0.88817841970E-15  0.00000000000E+00  0.91188000000E+02  0.91188000000E+02 0.  0.
    9900012    2    3    3    0    0  0.22865161680E+02  0.56110742527E+01  0.28310421404E+02  0.54367085658E+02  0.40000003375E+02 0.  0.
         12    1    3    3    0    0 -0.22865161680E+02 -0.56110742527E+01 -0.28310421404E+02  0.36820914342E+02  0.00000000000E+00 0. -1.
         11    1    4    4    0    0  0.87624463337E+01  0.79094586761E+01  0.14067436719E+02  0.18363898780E+02  0.51100000000E-03 0. -1.
        -11    1    4    4    0    0  0.18643226657E+02 -0.28055785152E+01  0.20760687558E+02  0.28043668076E+02  0.51100000000E-03 0.  1.
         12    1    4    4    0    0 -0.45405113116E+01  0.50719409174E+00 -0.65177028735E+01  0.79595188024E+01  0.00000000000E+00 0. -1.
</event>
<event>
 8    1  0.2530183E-006  0.9118800E+02  0.7816164E-02  0.1184000E+00
        -11   -1    0    0    0    0  0.00000000000E+00  0.00000000000E+00  0.45593999997E+02  0.45594000000E+02  0.51100000000E-03 0.  1.
         11   -1    0    0    0    0 -0.00000000000E+00 -0.00000000000E+00 -0.45593999997E+02  0.45594000000E+02  0.51100000000E-03 0. -1.
         23    2    1    2    0    0  0.35527136788E-14  0.17763568394E-14  0.00000000000E+00  0.91188000000E+02  0.91188000000E+02 0.  0.
    9900012    2    3    3    0    0  0.28342957086E+02  0.14308835630E+02 -0.18647089882E+02  0.54367082650E+02  0.39999996516E+02 0.  0.
        -12    1    3    3    0    0 -0.28342957086E+02 -0.14308835630E+02  0.18647089882E+02  0.36820917350E+02  0.00000000000E+00 0.  1.
         11    1    4    4    0    0  0.13717220492E+02  0.76334096616E+00 -0.17935385183E+02  0.22592540126E+02  0.51100000000E-03 0. -1.
        -11    1    4    4    0    0 -0.54150961562E+01  0.16920606637E+01  0.52605778796E+01  0.77369254591E+01  0.51100000000E-03 0.  1.
        -12    1    4    4    0    0  0.20040832750E+02  0.11853434000E+02 -0.59722825788E+01  0.24037617064E+02  0.00000000000E+00 0.  1.
</event>
<event>
 8    1  0.2530183E-006  0.9118800E+02  0.7816164E-02  0.1184000E+00
        -11   -1    0    0    0    0  0.00000000000E+00  0.00000000000E+00  0.45593999997E+02  0.45594000000E+02  0.51100000000E-03 0.  1.
         11   -1    0    0    0    0 -0.00000000000E+00 -0.00000000000E+00 -0.45593999997E+02  0.45594000000E+02  0.51100000000E-03 0. -1.
         23    2    1    2    0    0  0.00000000000E+00  0.00000000000E+00 -0.88817841970E-15  0.91188000000E+02  0.91188000000E+02 0.  0.
    9900012    2    3    3    0    0 -0.22767008589E+02  0.28465327762E+02 -0.52122616308E+01  0.54367092406E+02  0.40000018759E+02 0.  0.
         12    1    3    3    0    0  0.22767008589E+02 -0.28465327762E+02  0.52122616308E+01  0.36820907594E+02  0.00000000000E+00 0. -1.
         11    1    4    4    0    0  0.27826989443E+00 -0.56441865616E+01 -0.37739162905E+01  0.67953455030E+01  0.51100000000E-03 0. -1.
        -11    1    4    4    0    0 -0.11582328365E+02  0.29801842442E+02  0.69609457887E+01  0.32722391566E+02  0.51100000000E-03 0.  1.
        -12    1    4    4    0    0 -0.11462950119E+02  0.43076718821E+01 -0.83992911289E+01  0.14849355337E+02  0.00000000000E+00 0.  1.
</event>
<event>
 8    1  0.2530183E-006  0.9118800E+02  0.7816164E-02  0.1184000E+00
        -11   -1    0    0    0    0  0.00000000000E+00  0.00000000000E+00  0.45593999997E+02  0.45594000000E+02  0.51100000000E-03 0.  1.
         11   -1    0    0    0    0 -0.00000000000E+00 -0.00000000000E+00 -0.45593999997E+02  0.45594000000E+02  0.51100000000E-03 0. -1.
         23    2    1    2    0    0  0.00000000000E+00  0.00000000000E+00  0.71054273576E-14  0.91188000000E+02  0.91188000000E+02 0.  0.
    9900012    2    3    3    0    0 -0.20590586506E+02 -0.21086671797E+02 -0.22071660028E+02  0.54367107065E+02  0.40000052176E+02 0.  0.
        -12    1    3    3    0    0  0.20590586506E+02  0.21086671797E+02  0.22071660028E+02  0.36820892935E+02  0.00000000000E+00 0.  1.
         11    1    4    4    0    0  0.41532812313E+01 -0.66408118096E+01 -0.43136853902E+01  0.89419241992E+01  0.51100000000E-03 0. -1.
        -11    1    4    4    0    0  0.69417964223E+01  0.39907515808E-01 -0.35829339818E+01  0.78120129517E+01  0.51100000000E-03 0.  1.
         12    1    4    4    0    0 -0.31685664159E+02 -0.14485767504E+02 -0.14175040656E+02  0.37613169914E+02  0.00000000000E+00 0. -1.
</event>
<event>
 8    1  0.2530183E-006  0.9118800E+02  0.7816164E-02  0.1184000E+00
        -11   -1    0    0    0    0  0.00000000000E+00  0.00000000000E+00  0.45593999997E+02  0.45594000000E+02  0.51100000000E-03 0.  1.
         11   -1    0    0    0    0 -0.00000000000E+00 -0.00000000000E+00 -0.45593999997E+02  0.45594000000E+02  0.51100000000E-03 0. -1.
         23    2    1    2    0    0  0.00000000000E+00  0.00000000000E+00  0.00000000000E+00  0.91188000000E+02  0.91188000000E+02 0.  0.
    9900012    2    3    3    0    0  0.23552571884E+02  0.10502137423E+02  0.26282344161E+02  0.54367080030E+02  0.39999990545E+02 0.  0.
         12    1    3    3    0    0 -0.23552571884E+02 -0.10502137423E+02 -0.26282344161E+02  0.36820919970E+02  0.00000000000E+00 0. -1.
         11    1    4    4    0    0  0.16083263937E+02  0.31558753038E+01 -0.49792205199E+00  0.16397525863E+02  0.51100000000E-03 0. -1.
        -11    1    4    4    0    0  0.45606462634E+01 -0.59017746825E+01 -0.52916411119E+00  0.74773293134E+01  0.51100000000E-03 0.  1.
        -12    1    4    4    0    0  0.29086616835E+01  0.13248036802E+02  0.27309430324E+02  0.30492224854E+02  0.00000000000E+00 0.  1.
</event>
<event>
 8    1  0.2530183E-006  0.9118800E+02  0.7816164E-02  0.1184000E+00
        -11   -1    0    0    0    0  0.00000000000E+00  0.00000000000E+00  0.45593999997E+02  0.45594000000E+02  0.51100000000E-03 0.  1.
         11   -1    0    0    0    0 -0.00000000000E+00 -0.00000000000E+00 -0.45593999997E+02  0.45594000000E+02  0.51100000000E-03 0. -1.
         23    2    1    2    0    0  0.00000000000E+00 -0.17763568394E-14  0.00000000000E+00  0.91188000000E+02  0.91188000000E+02 0.  0.
    9900012    2    3    3    0    0 -0.31356702272E+02  0.15760994282E+02  0.11141123471E+02  0.54367131592E+02  0.40000108090E+02 0.  0.
        -12    1    3    3    0    0  0.31356702272E+02 -0.15760994282E+02 -0.11141123471E+02  0.36820868408E+02  0.00000000000E+00 0.  1.
         11    1    4    4    0    0 -0.16722227914E+02  0.54964860900E+01 -0.32698847847E+01  0.17903530727E+02  0.51100000000E-03 0. -1.
        -11    1    4    4    0    0 -0.22338014087E+02  0.31743039366E+01  0.69542044179E+01  0.23609829271E+02  0.51100000000E-03 0.  1.
        -12    1    4    4    0    0  0.77035397283E+01  0.70902042552E+01  0.74568038374E+01  0.12853771594E+02  0.00000000000E+00 0.  1.
</event>
<event>
 8    1  0.2530183E-006  0.9118800E+02  0.7816164E-02  0.1184000E+00
        -11   -1    0    0    0    0  0.00000000000E+00  0.00000000000E+00  0.45593999997E+02  0.45594000000E+02  0.51100000000E-03 0.  1.
         11   -1    0    0    0    0 -0.00000000000E+00 -0.00000000000E+00 -0.45593999997E+02  0.45594000000E+02  0.51100000000E-03 0. -1.
         23    2    1    2    0    0  0.00000000000E+00  0.00000000000E+00  0.00000000000E+00  0.91188000000E+02  0.91188000000E+02 0.  0.
    9900012    2    3    3    0    0  0.12311955557E+02  0.17730308269E+02 -0.29830066574E+02  0.54367069094E+02  0.39999965615E+02 0.  0.
        -12    1    3    3    0    0 -0.12311955557E+02 -0.17730308269E+02  0.29830066574E+02  0.36820930906E+02  0.00000000000E+00 0.  1.
         11    1    4    4    0    0 -0.21747073100E+01  0.18151434479E+02 -0.21945126020E+02  0.28562081189E+02  0.51100000000E-03 0. -1.
        -11    1    4    4    0    0 -0.43286745729E+01  0.31595165246E+01 -0.24721185135E+01  0.59018080648E+01  0.51100000000E-03 0.  1.
         12    1    4    4    0    0  0.18815337440E+02 -0.35806427338E+01 -0.54128220398E+01  0.19903179841E+02  0.00000000000E+00 0. -1.
</event>
<event>
 8    1  0.2530183E-006  0.9118800E+02  0.7816164E-02  0.1184000E+00
        -11   -1    0    0    0    0  0.00000000000E+00  0.00000000000E+00  0.45593999997E+02  0.45594000000E+02  0.51100000000E-03 0.  1.
         11   -1    0    0    0    0 -0.00000000000E+00 -0.00000000000E+00 -0.45593999997E+02  0.45594000000E+02  0.51100000000E-03 0. -1.
         23    2    1    2    0    0 -0.35527136788E-14  0.88817841970E-15  0.00000000000E+00  0.91188000000E+02  0.91188000000E+02 0.  0.
    9900012    2    3    3    0    0  0.24761713118E+02  0.59048754503E+01 -0.26603880650E+02  0.54367130154E+02  0.40000104811E+02 0.  0.
        -12    1    3    3    0    0 -0.24761713118E+02 -0.59048754503E+01  0.26603880650E+02  0.36820869846E+02  0.00000000000E+00 0.  1.
         11    1    4    4    0    0  0.16788709844E+02 -0.15871832972E+01 -0.69760274088E+01  0.18249517465E+02  0.51100000000E-03 0. -1.
        -11    1    4    4    0    0  0.48479817906E+01 -0.77185031635E+01 -0.18408622740E+02  0.20541558119E+02  0.51100000000E-03 0.  1.
        -12    1    4    4    0    0  0.31250214831E+01  0.15210561911E+02 -0.12192305010E+01  0.15576054569E+02  0.00000000000E+00 0.  1.
</event>
<event>
 8    1  0.2530183E-006  0.9118800E+02  0.7816164E-02  0.1184000E+00
        -11   -1    0    0    0    0  0.00000000000E+00  0.00000000000E+00  0.45593999997E+02  0.45594000000E+02  0.51100000000E-03 0.  1.
         11   -1    0    0    0    0 -0.00000000000E+00 -0.00000000000E+00 -0.45593999997E+02  0.45594000000E+02  0.51100000000E-03 0. -1.
         23    2    1    2    0    0  0.00000000000E+00  0.35527136788E-14 -0.35527136788E-14  0.91188000000E+02  0.91188000000E+02 0.  0.
    9900012    2    3    3    0    0  0.10340481944E+02 -0.31249875096E+02  0.16501500206E+02  0.54367085163E+02  0.40000002247E+02 0.  0.
        -12    1    3    3    0    0 -0.10340481944E+02  0.31249875096E+02 -0.16501500206E+02  0.36820914837E+02  0.00000000000E+00 0.  1.
         11    1    4    4    0    0 -0.34492517430E+00 -0.23501010240E+02  0.10490252688E+02  0.25738334394E+02  0.51100000000E-03 0. -1.
        -11    1    4    4    0    0  0.13740113881E+02 -0.13721350495E+02 -0.29674814694E+00  0.19420459536E+02  0.51100000000E-03 0.  1.
        -12    1    4    4    0    0 -0.30547067618E+01  0.59724856396E+01  0.63079956654E+01  0.92082912329E+01  0.00000000000E+00 0.  1.
</event>
<event>
 8    1  0.2530183E-006  0.9118800E+02  0.7816164E-02  0.1184000E+00
        -11   -1    0    0    0    0  0.00000000000E+00  0.00000000000E+00  0.45593999997E+02  0.45594000000E+02  0.51100000000E-03 0.  1.
         11   -1    0    0    0    0 -0.00000000000E+00 -0.00000000000E+00 -0.45593999997E+02  0.45594000000E+02  0.51100000000E-03 0. -1.
         23    2    1    2    0    0  0.00000000000E+00 -0.44408920985E-15 -0.17763568394E-14  0.91188000000E+02  0.91188000000E+02 0.  0.
    9900012    2    3    3    0    0 -0.34269281278E+02 -0.24622421116E+01  0.13241385159E+02  0.54367074476E+02  0.39999977882E+02 0.  0.
         12    1    3    3    0    0  0.34269281278E+02  0.24622421116E+01 -0.13241385159E+02  0.36820925524E+02  0.00000000000E+00 0. -1.
         11    1    4    4    0    0 -0.60656601085E+00 -0.22936375605E+01  0.73336041327E+01  0.77078171632E+01  0.51100000000E-03 0. -1.
        -11    1    4    4    0    0 -0.96260182068E+01 -0.50825997155E+01  0.16637153552E+02  0.19881849133E+02  0.51100000000E-03 0.  1.
         12    1    4    4    0    0 -0.24036697060E+02  0.49139951644E+01 -0.10729372525E+02  0.26777408180E+02  0.00000000000E+00 0. -1.
</event>
<event>
 8    1  0.2530183E-006  0.9118800E+02  0.7816164E-02  0.1184000E+00
        -11   -1    0    0    0    0  0.00000000000E+00  0.00000000000E+00  0.45593999997E+02  0.45594000000E+02  0.51100000000E-03 0. -1.
         11   -1    0    0    0    0 -0.00000000000E+00 -0.00000000000E+00 -0.45593999997E+02  0.45594000000E+02  0.51100000000E-03 0.  1.
         23    2    1    2    0    0  0.88817841970E-15  0.00000000000E+00  0.71054273576E-14  0.91188000000E+02  0.91188000000E+02 0.  0.
    9900012    2    3    3    0    0  0.21223274597E+01  0.71888846411E+01 -0.36049906716E+02  0.54367080532E+02  0.39999991690E+02 0.  0.
         12    1    3    3    0    0 -0.21223274597E+01 -0.71888846411E+01  0.36049906716E+02  0.36820919468E+02  0.00000000000E+00 0. -1.
         11    1    4    4    0    0 -0.12450200430E+01 -0.32118390428E+01  0.57335739422E+01  0.66887857908E+01  0.51100000000E-03 0. -1.
        -11    1    4    4    0    0 -0.57054996817E+01  0.46222124903E+01 -0.39346851484E+01  0.83306255709E+01  0.51100000000E-03 0.  1.
         12    1    4    4    0    0  0.90728471844E+01  0.57785111935E+01 -0.37848795509E+02  0.39347669171E+02  0.00000000000E+00 0. -1.
</event>
<event>
 8    1  0.2530183E-006  0.9118800E+02  0.7816164E-02  0.1184000E+00
        -11   -1    0    0    0    0  0.00000000000E+00  0.00000000000E+00  0.45593999997E+02  0.45594000000E+02  0.51100000000E-03 0. -1.
         11   -1    0    0    0    0 -0.00000000000E+00 -0.00000000000E+00 -0.45593999997E+02  0.45594000000E+02  0.51100000000E-03 0.  1.
         23    2    1    2    0    0 -0.35527136788E-14  0.17763568394E-14  0.00000000000E+00  0.91188000000E+02  0.91188000000E+02 0.  0.
    9900012    2    3    3    0    0 -0.24761187109E+02  0.77305926352E+01 -0.26132471156E+02  0.54367020949E+02  0.39999855857E+02 0.  0.
         12    1    3    3    0    0  0.24761187109E+02 -0.77305926352E+01  0.26132471156E+02  0.36820979051E+02  0.00000000000E+00 0. -1.
         11    1    4    4    0    0  0.63583534803E+00 -0.10922519345E+02 -0.14803280608E+02  0.18407684060E+02  0.51100000000E-03 0. -1.
        -11    1    4    4    0    0 -0.41240530777E+01  0.93346733345E+01 -0.20241543073E+00  0.10207101073E+02  0.51100000000E-03 0.  1.
         12    1    4    4    0    0 -0.21272969380E+02  0.93184386457E+01 -0.11126775117E+02  0.25752235816E+02  0.00000000000E+00 0. -1.
</event>
<event>
 8    1  0.2530183E-006  0.9118800E+02  0.7816164E-02  0.1184000E+00
        -11   -1    0    0    0    0  0.00000000000E+00  0.00000000000E+00  0.45593999997E+02  0.45594000000E+02  0.51100000000E-03 0.  1.
         11   -1    0    0    0    0 -0.00000000000E+00 -0.00000000000E+00 -0.45593999997E+02  0.45594000000E+02  0.51100000000E-03 0. -1.
         23    2    1    2    0    0  0.00000000000E+00  0.00000000000E+00  0.00000000000E+00  0.91188000000E+02  0.91188000000E+02 0.  0.
    9900012    2    3    3    0    0 -0.64803024193E+01  0.35673269208E+02 -0.64192883960E+01  0.54367031532E+02  0.39999879983E+02 0.  0.
         12    1    3    3    0    0  0.64803024193E+01 -0.35673269208E+02  0.64192883960E+01  0.36820968468E+02  0.00000000000E+00 0. -1.
         11    1    4    4    0    0  0.34194651753E+01  0.51539883513E+01 -0.16111139419E+02  0.17257611412E+02  0.51100000000E-03 0. -1.
        -11    1    4    4    0    0 -0.13078506458E+02  0.27898420679E+02  0.56262628327E+01  0.31321303314E+02  0.51100000000E-03 0.  1.
         12    1    4    4    0    0  0.31787388631E+01  0.26208601778E+01  0.40655881900E+01  0.57881168062E+01  0.00000000000E+00 0. -1.
</event>
<event>
 8    1  0.2530183E-006  0.9118800E+02  0.7816164E-02  0.1184000E+00
        -11   -1    0    0    0    0  0.00000000000E+00  0.00000000000E+00  0.45593999997E+02  0.45594000000E+02  0.51100000000E-03 0. -1.
         11   -1    0    0    0    0 -0.00000000000E+00 -0.00000000000E+00 -0.45593999997E+02  0.45594000000E+02  0.51100000000E-03 0.  1.
         23    2    1    2    0    0  0.88817841970E-15  0.00000000000E+00  0.00000000000E+00  0.91188000000E+02  0.91188000000E+02 0.  0.
    9900012    2    3    3    0    0 -0.55125396519E+01  0.33191363373E+02  0.14957438058E+02  0.54367086795E+02  0.40000005967E+02 0.  0.
        -12    1    3    3    0    0  0.55125396519E+01 -0.33191363373E+02 -0.14957438058E+02  0.36820913205E+02  0.00000000000E+00 0.  1.
         11    1    4    4    0    0  0.11549606165E+01  0.14327938128E+02 -0.54363910139E+00  0.14384689387E+02  0.51100000000E-03 0. -1.
        -11    1    4    4    0    0 -0.10706199149E+02  0.13696483862E+02 -0.52981313936E+01  0.18173787908E+02  0.51100000000E-03 0.  1.
         12    1    4    4    0    0  0.40386988806E+01  0.51669413829E+01  0.20799208553E+02  0.21808609500E+02  0.00000000000E+00 0. -1.
</event>
<event>
 8    1  0.2530183E-006  0.9118800E+02  0.7816164E-02  0.1184000E+00
        -11   -1    0    0    0    0  0.00000000000E+00  0.00000000000E+00  0.45593999997E+02  0.45594000000E+02  0.51100000000E-03 0. -1.
         11   -1    0    0    0    0 -0.00000000000E+00 -0.00000000000E+00 -0.45593999997E+02  0.45594000000E+02  0.51100000000E-03 0.  1.
         23    2    1    2    0    0 -0.35527136788E-14  0.00000000000E+00 -0.35527136788E-14  0.91188000000E+02  0.91188000000E+02 0.  0.
    9900012    2    3    3    0    0  0.19519249369E+02  0.58882528978E+01  0.30661158102E+02  0.54367092430E+02  0.40000018813E+02 0.  0.
        -12    1    3    3    0    0 -0.19519249369E+02 -0.58882528978E+01 -0.30661158102E+02  0.36820907570E+02  0.00000000000E+00 0.  1.
         11    1    4    4    0    0  0.15435941699E+02  0.75164940018E+01  0.22075271017E+02  0.27965757078E+02  0.51100000000E-03 0.  1.
        -11    1    4    4    0    0 -0.17854047340E+01  0.19247074716E+00  0.16379003931E+02  0.16477150393E+02  0.51100000000E-03 0. -1.
        -12    1    4    4    0    0  0.58687124040E+01 -0.18207118512E+01 -0.77931168456E+01  0.99241849587E+01  0.00000000000E+00 0.  1.
</event>
<event>
 8    1  0.2530183E-006  0.9118800E+02  0.7816164E-02  0.1184000E+00
        -11   -1    0    0    0    0  0.00000000000E+00  0.00000000000E+00  0.45593999997E+02  0.45594000000E+02  0.51100000000E-03 0.  1.
         11   -1    0    0    0    0 -0.00000000000E+00 -0.00000000000E+00 -0.45593999997E+02  0.45594000000E+02  0.51100000000E-03 0. -1.
         23    2    1    2    0    0 -0.22204460493E-15  0.00000000000E+00  0.35527136788E-14  0.91188000000E+02  0.91188000000E+02 0.  0.
    9900012    2    3    3    0    0  0.75724455059E+00 -0.33868025525E+02  0.14427840074E+02  0.54367093691E+02  0.40000021686E+02 0.  0.
         12    1    3    3    0    0 -0.75724455059E+00  0.33868025525E+02 -0.14427840074E+02  0.36820906309E+02  0.00000000000E+00 0. -1.
         11    1    4    4    0    0  0.93975323355E+01 -0.75861607980E+01  0.50936764634E+01  0.13107592831E+02  0.51100000000E-03 0. -1.
        -11    1    4    4    0    0 -0.17445027721E+02 -0.75639498849E+01  0.12659885648E+01  0.19056365271E+02  0.51100000000E-03 0.  1.
        -12    1    4    4    0    0  0.88047399362E+01 -0.18717914842E+02  0.80681750463E+01  0.22203135588E+02  0.00000000000E+00 0.  1.
</event>
<event>
 8    1  0.2530183E-006  0.9118800E+02  0.7816164E-02  0.1184000E+00
        -11   -1    0    0    0    0  0.00000000000E+00  0.00000000000E+00  0.45593999997E+02  0.45594000000E+02  0.51100000000E-03 0. -1.
         11   -1    0    0    0    0 -0.00000000000E+00 -0.00000000000E+00 -0.45593999997E+02  0.45594000000E+02  0.51100000000E-03 0.  1.
         23    2    1    2    0    0  0.00000000000E+00  0.00000000000E+00  0.00000000000E+00  0.91188000000E+02  0.91188000000E+02 0.  0.
    9900012    2    3    3    0    0 -0.12568801370E+02 -0.18536929592E+02  0.29226496422E+02  0.54367073617E+02  0.39999975924E+02 0.  0.
        -12    1    3    3    0    0  0.12568801370E+02  0.18536929592E+02 -0.29226496422E+02  0.36820926383E+02  0.00000000000E+00 0.  1.
         11    1    4    4    0    0  0.33307645720E+01 -0.26800291584E+02  0.17852819938E+02  0.32373952517E+02  0.51100000000E-03 0. -1.
        -11    1    4    4    0    0 -0.83370079901E+01  0.23405224674E+01  0.27535366621E+01  0.90865676720E+01  0.51100000000E-03 0.  1.
         12    1    4    4    0    0 -0.75625579523E+01  0.59228395243E+01  0.86201398226E+01  0.12906553427E+02  0.00000000000E+00 0. -1.
</event>
<event>
 8    1  0.2530183E-006  0.9118800E+02  0.7816164E-02  0.1184000E+00
        -11   -1    0    0    0    0  0.00000000000E+00  0.00000000000E+00  0.45593999997E+02  0.45594000000E+02  0.51100000000E-03 0.  1.
         11   -1    0    0    0    0 -0.00000000000E+00 -0.00000000000E+00 -0.45593999997E+02  0.45594000000E+02  0.51100000000E-03 0. -1.
         23    2    1    2    0    0  0.00000000000E+00  0.17763568394E-14  0.00000000000E+00  0.91188000000E+02  0.91188000000E+02 0.  0.
    9900012    2    3    3    0    0  0.34810373286E+02 -0.92071294653E+01 -0.76968281744E+01  0.54367156918E+02  0.40000165826E+02 0.  0.
        -12    1    3    3    0    0 -0.34810373286E+02  0.92071294653E+01  0.76968281744E+01  0.36820843082E+02  0.00000000000E+00 0.  1.
         11    1    4    4    0    0  0.11366615417E+02 -0.10500276781E+02 -0.88198157044E+01  0.17811370184E+02  0.51100000000E-03 0. -1.
        -11    1    4    4    0    0  0.81849688794E+01  0.14009704556E+02 -0.23392958033E+01  0.16393225504E+02  0.51100000000E-03 0.  1.
         12    1    4    4    0    0  0.15258788990E+02 -0.12716557240E+02  0.34622833332E+01  0.20162561230E+02  0.00000000000E+00 0. -1.
</event>
<event>
 8    1  0.2530183E-006  0.9118800E+02  0.7816164E-02  0.1184000E+00
        -11   -1    0    0    0    0  0.00000000000E+00  0.00000000000E+00  0.45593999997E+02  0.45594000000E+02  0.51100000000E-03 0.  1.
         11   -1    0    0    0    0 -0.00000000000E+00 -0.00000000000E+00 -0.45593999997E+02  0.45594000000E+02  0.51100000000E-03 0. -1.
         23    2    1    2    0    0  0.00000000000E+00  0.00000000000E+00  0.00000000000E+00  0.91188000000E+02  0.91188000000E+02 0.  0.
    9900012    2    3    3    0    0  0.22566641503E+02  0.20109476632E+02 -0.21027020280E+02  0.54367082833E+02  0.39999996935E+02 0.  0.
        -12    1    3    3    0    0 -0.22566641503E+02 -0.20109476632E+02  0.21027020280E+02  0.36820917167E+02  0.00000000000E+00 0.  1.
         11    1    4    4    0    0 -0.39549321798E+01  0.23971290501E+01 -0.68172312696E+01  0.82378612925E+01  0.51100000000E-03 0. -1.
        -11    1    4    4    0    0  0.31662751752E+02  0.11617062994E+02 -0.16886605840E+02  0.37717946102E+02  0.51100000000E-03 0.  1.
        -12    1    4    4    0    0 -0.51411780697E+01  0.60952845887E+01  0.26768168300E+01  0.84112754385E+01  0.00000000000E+00 0.  1.
</event>
<event>
 8    1  0.2530183E-006  0.9118800E+02  0.7816164E-02  0.1184000E+00
        -11   -1    0    0    0    0  0.00000000000E+00  0.00000000000E+00  0.45593999997E+02  0.45594000000E+02  0.51100000000E-03 0. -1.
         11   -1    0    0    0    0 -0.00000000000E+00 -0.00000000000E+00 -0.45593999997E+02  0.45594000000E+02  0.51100000000E-03 0.  1.
         23    2    1    2    0    0  0.00000000000E+00 -0.35527136788E-14 -0.27755575616E-14  0.91188000000E+02  0.91188000000E+02 0.  0.
    9900012    2    3    3    0    0 -0.19430926973E+02 -0.31270869091E+02  0.59269039120E+00  0.54367089384E+02  0.40000011868E+02 0.  0.
         12    1    3    3    0    0  0.19430926973E+02  0.31270869091E+02 -0.59269039120E+00  0.36820910616E+02  0.00000000000E+00 0. -1.
         11    1    4    4    0    0 -0.51703177729E+01 -0.19700742334E+01 -0.99555381763E+01  0.11389737442E+02  0.51100000000E-03 0.  1.
        -11    1    4    4    0    0 -0.18037504713E+02 -0.25997436318E+02  0.16092949708E+02  0.35499314105E+02  0.51100000000E-03 0. -1.
         12    1    4    4    0    0  0.37768955134E+01 -0.33033585394E+01 -0.55447211404E+01  0.74780378365E+01  0.00000000000E+00 0. -1.
</event>
<event>
 8    1  0.2530183E-006  0.9118800E+02  0.7816164E-02  0.1184000E+00
        -11   -1    0    0    0    0  0.00000000000E+00  0.00000000000E+00  0.45593999997E+02  0.45594000000E+02  0.51100000000E-03 0.  1.
         11   -1    0    0    0    0 -0.00000000000E+00 -0.00000000000E+00 -0.45593999997E+02  0.45594000000E+02  0.51100000000E-03 0. -1.
         23    2    1    2    0    0  0.00000000000E+00  0.00000000000E+00  0.71054273576E-14  0.91188000000E+02  0.91188000000E+02 0.  0.
    9900012    2    3    3    0    0  0.88356553349E+01 -0.69342655505E+01 -0.35066034292E+02  0.54367087398E+02  0.40000007341E+02 0.  0.
        -12    1    3    3    0    0 -0.88356553349E+01  0.69342655505E+01  0.35066034292E+02  0.36820912602E+02  0.00000000000E+00 0.  1.
         11    1    4    4    0    0  0.79948460302E+01 -0.84247866777E+01 -0.36225649135E+02  0.38041980090E+02  0.51100000000E-03 0. -1.
        -11    1    4    4    0    0  0.12585288972E+01  0.88228117314E+01  0.16296930084E+00  0.89136110015E+01  0.51100000000E-03 0.  1.
         12    1    4    4    0    0 -0.41771959247E+00 -0.73322906041E+01  0.99664554308E+00  0.74114963064E+01  0.00000000000E+00 0. -1.
</event>
<event>
 8    1  0.2530183E-006  0.9118800E+02  0.7816164E-02  0.1184000E+00
        -11   -1    0    0    0    0  0.00000000000E+00  0.00000000000E+00  0.45593999997E+02  0.45594000000E+02  0.51100000000E-03 0. -1.
         11   -1    0    0    0    0 -0.00000000000E+00 -0.00000000000E+00 -0.45593999997E+02  0.45594000000E+02  0.51100000000E-03 0.  1.
         23    2    1    2    0    0  0.71054273576E-14  0.00000000000E+00  0.44408920985E-15  0.91188000000E+02  0.91188000000E+02 0.  0.
    9900012    2    3    3    0    0 -0.35719493430E+02  0.87729154677E+01  0.17126580762E+01  0.54367089441E+02  0.40000011999E+02 0.  0.
        -12    1    3    3    0    0  0.35719493430E+02 -0.87729154677E+01 -0.17126580762E+01  0.36820910559E+02  0.00000000000E+00 0.  1.
         11    1    4    4    0    0 -0.14465517145E+02  0.95786310480E+01 -0.58962320773E+01  0.18323943680E+02  0.51100000000E-03 0. -1.
        -11    1    4    4    0    0 -0.43824891915E+01  0.28912718513E+01 -0.10051946434E+02  0.11340515500E+02  0.51100000000E-03 0.  1.
         12    1    4    4    0    0 -0.16871487094E+02 -0.36969874316E+01  0.17660836588E+02  0.24702630261E+02  0.00000000000E+00 0. -1.
</event>
<event>
 8    1  0.2530183E-006  0.9118800E+02  0.7816164E-02  0.1184000E+00
        -11   -1    0    0    0    0  0.00000000000E+00  0.00000000000E+00  0.45593999997E+02  0.45594000000E+02  0.51100000000E-03 0. -1.
         11   -1    0    0    0    0 -0.00000000000E+00 -0.00000000000E+00 -0.45593999997E+02  0.45594000000E+02  0.51100000000E-03 0.  1.
         23    2    1    2    0    0  0.35527136788E-14  0.17763568394E-14 -0.35527136788E-14  0.91188000000E+02  0.91188000000E+02 0.  0.
    9900012    2    3    3    0    0  0.26491064590E+02  0.66532615369E+01  0.24692840123E+02  0.54367099067E+02  0.40000033943E+02 0.  0.
        -12    1    3    3    0    0 -0.26491064590E+02 -0.66532615369E+01 -0.24692840123E+02  0.36820900933E+02  0.00000000000E+00 0.  1.
         11    1    4    4    0    0  0.92907923335E+01  0.10741955821E+02  0.75545140361E+01  0.16086613056E+02  0.51100000000E-03 0.  1.
        -11    1    4    4    0    0  0.12765354742E+02  0.99219717652E+01  0.17170753255E+02  0.23584625777E+02  0.51100000000E-03 0. -1.
         12    1    4    4    0    0  0.44349175141E+01 -0.14010666049E+02 -0.32427168401E-01  0.14695860234E+02  0.00000000000E+00 0. -1.
</event>
<event>
 8    1  0.2530183E-006  0.9118800E+02  0.7816164E-02  0.1184000E+00
        -11   -1    0    0    0    0  0.00000000000E+00  0.00000000000E+00  0.45593999997E+02  0.45594000000E+02  0.51100000000E-03 0.  1.
         11   -1    0    0    0    0 -0.00000000000E+00 -0.00000000000E+00 -0.45593999997E+02  0.45594000000E+02  0.51100000000E-03 0. -1.
         23    2    1    2    0    0  0.00000000000E+00  0.35527136788E-14 -0.35527136788E-14  0.91188000000E+02  0.91188000000E+02 0.  0.
    9900012    2    3    3    0    0  0.23983828977E+02  0.20810079983E+02 -0.18641265505E+02  0.54367078489E+02  0.39999987031E+02 0.  0.
        -12    1    3    3    0    0 -0.23983828977E+02 -0.20810079983E+02  0.18641265505E+02  0.36820921511E+02  0.00000000000E+00 0.  1.
         11    1    4    4    0    0  0.16258273161E+02  0.27987829825E+02 -0.80921365559E+01  0.33363643968E+02  0.51100000000E-03 0. -1.
        -11    1    4    4    0    0  0.53688676363E+01 -0.14107417394E+01 -0.13133688210E+02  0.14258635917E+02  0.51100000000E-03 0.  1.
         12    1    4    4    0    0  0.23566881798E+01 -0.57670081025E+01  0.25845592612E+01  0.67447986038E+01  0.00000000000E+00 0. -1.
</event>
<event>
 8    1  0.2530183E-006  0.9118800E+02  0.7816164E-02  0.1184000E+00
        -11   -1    0    0    0    0  0.00000000000E+00  0.00000000000E+00  0.45593999997E+02  0.45594000000E+02  0.51100000000E-03 0.  1.
         11   -1    0    0    0    0 -0.00000000000E+00 -0.00000000000E+00 -0.45593999997E+02  0.45594000000E+02  0.51100000000E-03 0. -1.
         23    2    1    2    0    0 -0.35527136788E-14  0.35527136788E-14  0.17763568394E-14  0.91188000000E+02  0.91188000000E+02 0.  0.
    9900012    2    3    3    0    0  0.25058859400E+02 -0.22788436622E+02  0.14440090185E+02  0.54367143375E+02  0.40000134951E+02 0.  0.
         12    1    3    3    0    0 -0.25058859400E+02  0.22788436622E+02 -0.14440090185E+02  0.36820856625E+02  0.00000000000E+00 0. -1.
         11    1    4    4    0    0  0.89465502936E+01 -0.21129249953E+02 -0.30075382231E+01  0.23141548180E+02  0.51100000000E-03 0. -1.
        -11    1    4    4    0    0  0.41882081317E+01 -0.89245919481E+01  0.14061206957E+01  0.99582430412E+01  0.51100000000E-03 0.  1.
         12    1    4    4    0    0  0.11924100974E+02  0.72654052796E+01  0.16041507712E+02  0.21267352153E+02  0.00000000000E+00 0. -1.
</event>
<event>
 8    1  0.2530183E-006  0.9118800E+02  0.7816164E-02  0.1184000E+00
        -11   -1    0    0    0    0  0.00000000000E+00  0.00000000000E+00  0.45593999997E+02  0.45594000000E+02  0.51100000000E-03 0.  1.
         11   -1    0    0    0    0 -0.00000000000E+00 -0.00000000000E+00 -0.45593999997E+02  0.45594000000E+02  0.51100000000E-03 0. -1.
         23    2    1    2    0    0  0.00000000000E+00  0.00000000000E+00  0.00000000000E+00  0.91188000000E+02  0.91188000000E+02 0.  0.
    9900012    2    3    3    0    0 -0.18874144449E+02 -0.17528826200E+02  0.26311304408E+02  0.54367111685E+02  0.40000062708E+02 0.  0.
         12    1    3    3    0    0  0.18874144449E+02  0.17528826200E+02 -0.26311304408E+02  0.36820888315E+02  0.00000000000E+00 0. -1.
         11    1    4    4    0    0 -0.34857883021E+01  0.19881802362E+01 -0.39496416399E+01  0.56305639224E+01  0.51100000000E-03 0. -1.
        -11    1    4    4    0    0 -0.88691822150E+00 -0.19031165019E+02  0.28270689267E+02  0.34091109366E+02  0.51100000000E-03 0.  1.
        -12    1    4    4    0    0 -0.14501437925E+02 -0.48584141774E+00  0.19902567812E+01  0.14645438397E+02  0.00000000000E+00 0.  1.
</event>
<event>
 8    1  0.2530183E-006  0.9118800E+02  0.7816164E-02  0.1184000E+00
        -11   -1    0    0    0    0  0.00000000000E+00  0.00000000000E+00  0.45593999997E+02  0.45594000000E+02  0.51100000000E-03 0. -1.
         11   -1    0    0    0    0 -0.00000000000E+00 -0.00000000000E+00 -0.45593999997E+02  0.45594000000E+02  0.51100000000E-03 0.  1.
         23    2    1    2    0    0 -0.44408920985E-15  0.00000000000E+00  0.00000000000E+00  0.91188000000E+02  0.91188000000E+02 0.  0.
    9900012    2    3    3    0    0  0.13002633985E+01 -0.28088516612E+02 -0.23772279899E+02  0.54367126274E+02  0.40000095966E+02 0.  0.
         12    1    3    3    0    0 -0.13002633985E+01  0.28088516612E+02  0.23772279899E+02  0.36820873726E+02  0.00000000000E+00 0. -1.
         11    1    4    4    0    0  0.13178522883E+02 -0.18318173274E+02 -0.26025478130E+01  0.22715681651E+02  0.51100000000E-03 0. -1.
        -11    1    4    4    0    0 -0.11976699994E+02 -0.13178008360E+02 -0.21837462491E+02  0.28177580013E+02  0.51100000000E-03 0.  1.
        -12    1    4    4    0    0  0.98440509386E-01  0.34076650219E+01  0.66773040442E+00  0.34738646099E+01  0.00000000000E+00 0.  1.
</event>
<event>
 8    1  0.2530183E-006  0.9118800E+02  0.7816164E-02  0.1184000E+00
        -11   -1    0    0    0    0  0.00000000000E+00  0.00000000000E+00  0.45593999997E+02  0.45594000000E+02  0.51100000000E-03 0. -1.
         11   -1    0    0    0    0 -0.00000000000E+00 -0.00000000000E+00 -0.45593999997E+02  0.45594000000E+02  0.51100000000E-03 0.  1.
         23    2    1    2    0    0  0.00000000000E+00  0.00000000000E+00  0.00000000000E+00  0.91188000000E+02  0.91188000000E+02 0.  0.
    9900012    2    3    3    0    0  0.47079733105E+01  0.18080793580E+02 -0.31728527318E+02  0.54367088076E+02  0.40000008887E+02 0.  0.
         12    1    3    3    0    0 -0.47079733105E+01 -0.18080793580E+02  0.31728527318E+02  0.36820911924E+02  0.00000000000E+00 0. -1.
         11    1    4    4    0    0  0.87881529083E+01 -0.58977481432E+01 -0.20936020786E+01  0.10788801353E+02  0.51100000000E-03 0. -1.
        -11    1    4    4    0    0  0.53244693241E+01  0.10802297564E+02 -0.30025422900E+01  0.12411884092E+02  0.51100000000E-03 0.  1.
        -12    1    4    4    0    0 -0.94046489218E+01  0.13176244159E+02 -0.26632382949E+02  0.31166402632E+02  0.00000000000E+00 0.  1.
</event>
<event>
 8    1  0.2530183E-006  0.9118800E+02  0.7816164E-02  0.1184000E+00
        -11   -1    0    0    0    0  0.00000000000E+00  0.00000000000E+00  0.45593999997E+02  0.45594000000E+02  0.51100000000E-03 0.  1.
         11   -1    0    0    0    0 -0.00000000000E+00 -0.00000000000E+00 -0.45593999997E+02  0.45594000000E+02  0.51100000000E-03 0. -1.
         23    2    1    2    0    0  0.00000000000E+00  0.17763568394E-14  0.00000000000E+00  0.91188000000E+02  0.91188000000E+02 0.  0.
    9900012    2    3    3    0    0 -0.16311173911E+02  0.11079651419E+02 -0.31096077337E+02  0.54367094312E+02  0.40000023103E+02 0.  0.
        -12    1    3    3    0    0  0.16311173911E+02 -0.11079651419E+02  0.31096077337E+02  0.36820905688E+02  0.00000000000E+00 0.  1.
         11    1    4    4    0    0 -0.98789679050E+01  0.11141355125E+02 -0.26131004778E+02  0.30075791126E+02  0.51100000000E-03 0. -1.
        -11    1    4    4    0    0 -0.77516280481E+00  0.94905688023E+01  0.36923430727E+01  0.10212990316E+02  0.51100000000E-03 0.  1.
         12    1    4    4    0    0 -0.56570432012E+01 -0.95522725082E+01 -0.86574156323E+01  0.14078312871E+02  0.00000000000E+00 0. -1.
</event>
<event>
 8    1  0.2530183E-006  0.9118800E+02  0.7816164E-02  0.1184000E+00
        -11   -1    0    0    0    0  0.00000000000E+00  0.00000000000E+00  0.45593999997E+02  0.45594000000E+02  0.51100000000E-03 0.  1.
         11   -1    0    0    0    0 -0.00000000000E+00 -0.00000000000E+00 -0.45593999997E+02  0.45594000000E+02  0.51100000000E-03 0. -1.
         23    2    1    2    0    0  0.22204460493E-15  0.00000000000E+00 -0.88817841970E-15  0.91188000000E+02  0.91188000000E+02 0.  0.
    9900012    2    3    3    0    0  0.19973576176E+01  0.36331014884E+02 -0.56433208449E+01  0.54367093573E+02  0.40000021417E+02 0.  0.
         12    1    3    3    0    0 -0.19973576176E+01 -0.36331014884E+02  0.56433208449E+01  0.36820906427E+02  0.00000000000E+00 0. -1.
         11    1    4    4    0    0 -0.24530517614E+01  0.32986986906E+02  0.71410284687E-01  0.33078147889E+02  0.51100000000E-03 0. -1.
        -11    1    4    4    0    0  0.56124632152E+01  0.10847835317E+02 -0.61667423248E+01  0.13682250750E+02  0.51100000000E-03 0.  1.
         12    1    4    4    0    0 -0.11620538362E+01 -0.75038073389E+01  0.45201119514E+00  0.76066949340E+01  0.00000000000E+00 0. -1.
</event>
<event>
 8    1  0.2530183E-006  0.9118800E+02  0.7816164E-02  0.1184000E+00
        -11   -1    0    0    0    0  0.00000000000E+00  0.00000000000E+00  0.45593999997E+02  0.45594000000E+02  0.51100000000E-03 0.  1.
         11   -1    0    0    0    0 -0.00000000000E+00 -0.00000000000E+00 -0.45593999997E+02  0.45594000000E+02  0.51100000000E-03 0. -1.
         23    2    1    2    0    0  0.00000000000E+00 -0.35527136788E-14  0.00000000000E+00  0.91188000000E+02  0.91188000000E+02 0.  0.
    9900012    2    3    3    0    0  0.16391197384E+02  0.30128742234E+02 -0.13392834869E+02  0.54367075431E+02  0.39999980061E+02 0.  0.
         12    1    3    3    0    0 -0.16391197384E+02 -0.30128742234E+02  0.13392834869E+02  0.36820924569E+02  0.00000000000E+00 0. -1.
         11    1    4    4    0    0 -0.20139386356E+01 -0.39867553742E+01 -0.19067666756E+01  0.48565344288E+01  0.51100000000E-03 0. -1.
        -11    1    4    4    0    0  0.26622130464E+01  0.24777741830E+02  0.43618284097E+01  0.25299197929E+02  0.51100000000E-03 0.  1.
        -12    1    4    4    0    0  0.15742922973E+02  0.93377557778E+01 -0.15847896603E+02  0.24211343074E+02  0.00000000000E+00 0.  1.
</event>
<event>
 8    1  0.2530183E-006  0.9118800E+02  0.7816164E-02  0.1184000E+00
        -11   -1    0    0    0    0  0.00000000000E+00  0.00000000000E+00  0.45593999997E+02  0.45594000000E+02  0.51100000000E-03 0.  1.
         11   -1    0    0    0    0 -0.00000000000E+00 -0.00000000000E+00 -0.45593999997E+02  0.45594000000E+02  0.51100000000E-03 0. -1.
         23    2    1    2    0    0 -0.71054273576E-14 -0.88817841970E-15  0.35527136788E-14  0.91188000000E+02  0.91188000000E+02 0.  0.
    9900012    2    3    3    0    0 -0.30645504486E+02  0.43950918611E+01  0.19932757929E+02  0.54367100821E+02  0.40000037942E+02 0.  0.
         12    1    3    3    0    0  0.30645504486E+02 -0.43950918611E+01 -0.19932757929E+02  0.36820899179E+02  0.00000000000E+00 0. -1.
         11    1    4    4    0    0  0.40258158082E+01 -0.72288681177E+01  0.91015345983E+00  0.83241880545E+01  0.51100000000E-03 0. -1.
        -11    1    4    4    0    0 -0.10103972104E+02  0.27436306532E+01 -0.40143832577E+01  0.11213074272E+02  0.51100000000E-03 0.  1.
        -12    1    4    4    0    0 -0.24567348191E+02  0.88803293256E+01  0.23036987727E+02  0.34829838495E+02  0.00000000000E+00 0.  1.
</event>
<event>
 8    1  0.2530183E-006  0.9118800E+02  0.7816164E-02  0.1184000E+00
        -11   -1    0    0    0    0  0.00000000000E+00  0.00000000000E+00  0.45593999997E+02  0.45594000000E+02  0.51100000000E-03 0.  1.
         11   -1    0    0    0    0 -0.00000000000E+00 -0.00000000000E+00 -0.45593999997E+02  0.45594000000E+02  0.51100000000E-03 0. -1.
         23    2    1    2    0    0 -0.26645352591E-14  0.00000000000E+00  0.35527136788E-14  0.91188000000E+02  0.91188000000E+02 0.  0.
    9900012    2    3    3    0    0  0.56352697079E+01  0.29945118669E+02 -0.20671691118E+02  0.54367011278E+02  0.39999833809E+02 0.  0.
        -12    1    3    3    0    0 -0.56352697079E+01 -0.29945118669E+02  0.20671691118E+02  0.36820988722E+02  0.00000000000E+00 0.  1.
         11    1    4    4    0    0 -0.17891351316E+01 -0.20569009543E+01  0.14509878907E+01  0.30882377135E+01  0.51100000000E-03 0. -1.
        -11    1    4    4    0    0  0.12880011008E+01  0.32319571670E+02 -0.45511257784E+01  0.32663839423E+02  0.51100000000E-03 0.  1.
         12    1    4    4    0    0  0.61364037388E+01 -0.31755204610E+00 -0.17571553231E+02  0.18614934141E+02  0.00000000000E+00 0. -1.
</event>
<event>
 8    1  0.2530183E-006  0.9118800E+02  0.7816164E-02  0.1184000E+00
        -11   -1    0    0    0    0  0.00000000000E+00  0.00000000000E+00  0.45593999997E+02  0.45594000000E+02  0.51100000000E-03 0.  1.
         11   -1    0    0    0    0 -0.00000000000E+00 -0.00000000000E+00 -0.45593999997E+02  0.45594000000E+02  0.51100000000E-03 0. -1.
         23    2    1    2    0    0  0.00000000000E+00  0.66613381478E-15  0.00000000000E+00  0.91188000000E+02  0.91188000000E+02 0.  0.
    9900012    2    3    3    0    0  0.24611647667E+02  0.10537111098E+01 -0.27366698114E+02  0.54367086463E+02  0.40000005210E+02 0.  0.
        -12    1    3    3    0    0 -0.24611647667E+02 -0.10537111098E+01  0.27366698114E+02  0.36820913537E+02  0.00000000000E+00 0.  1.
         11    1    4    4    0    0  0.13932838672E+02  0.19056142745E+00  0.97804226157E+00  0.13968424179E+02  0.51100000000E-03 0. -1.
        -11    1    4    4    0    0  0.18303489641E+02 -0.19216698263E+01 -0.26172923688E+02  0.31995819767E+02  0.51100000000E-03 0.  1.
        -12    1    4    4    0    0 -0.76246806454E+01  0.27848195087E+01 -0.21718166884E+01  0.84028425172E+01  0.00000000000E+00 0.  1.
</event>
<event>
 8    1  0.2530183E-006  0.9118800E+02  0.7816164E-02  0.1184000E+00
        -11   -1    0    0    0    0  0.00000000000E+00  0.00000000000E+00  0.45593999997E+02  0.45594000000E+02  0.51100000000E-03 0. -1.
         11   -1    0    0    0    0 -0.00000000000E+00 -0.00000000000E+00 -0.45593999997E+02  0.45594000000E+02  0.51100000000E-03 0.  1.
         23    2    1    2    0    0  0.00000000000E+00  0.44408920985E-15  0.71054273576E-14  0.91188000000E+02  0.91188000000E+02 0.  0.
    9900012    2    3    3    0    0 -0.10012813439E+02 -0.21671478740E+01 -0.35367028878E+02  0.54367086180E+02  0.40000004565E+02 0.  0.
         12    1    3    3    0    0  0.10012813439E+02  0.21671478740E+01  0.35367028878E+02  0.36820913820E+02  0.00000000000E+00 0. -1.
         11    1    4    4    0    0 -0.12011969046E+02  0.17460093289E+01 -0.87342070861E+01  0.14954006908E+02  0.51100000000E-03 0. -1.
        -11    1    4    4    0    0 -0.12166585808E+02 -0.76857073620E+01 -0.12919238794E+02  0.19339147839E+02  0.51100000000E-03 0.  1.
        -12    1    4    4    0    0  0.14165741415E+02  0.37725501591E+01 -0.13713582998E+02  0.20073931433E+02  0.00000000000E+00 0.  1.
</event>
<event>
 8    1  0.2530183E-006  0.9118800E+02  0.7816164E-02  0.1184000E+00
        -11   -1    0    0    0    0  0.00000000000E+00  0.00000000000E+00  0.45593999997E+02  0.45594000000E+02  0.51100000000E-03 0. -1.
         11   -1    0    0    0    0 -0.00000000000E+00 -0.00000000000E+00 -0.45593999997E+02  0.45594000000E+02  0.51100000000E-03 0.  1.
         23    2    1    2    0    0 -0.17763568394E-14  0.00000000000E+00 -0.35527136788E-14  0.91188000000E+02  0.91188000000E+02 0.  0.
    9900012    2    3    3    0    0 -0.49583073939E+01  0.17862094923E+02 -0.31814154057E+02  0.54367086844E+02  0.40000006078E+02 0.  0.
         12    1    3    3    0    0  0.49583073939E+01 -0.17862094923E+02  0.31814154057E+02  0.36820913156E+02  0.00000000000E+00 0. -1.
         11    1    4    4    0    0 -0.15071624346E+02  0.52631512591E+01 -0.80020094748E+01  0.17857401197E+02  0.51100000000E-03 0. -1.
        -11    1    4    4    0    0 -0.46187263305E+01  0.92521548454E+01 -0.29529528348E+01  0.10754298346E+02  0.51100000000E-03 0.  1.
         12    1    4    4    0    0  0.14732043283E+02  0.33467888188E+01 -0.20859191748E+02  0.25755387302E+02  0.00000000000E+00 0. -1.
</event>
<event>
 8    1  0.2530183E-006  0.9118800E+02  0.7816164E-02  0.1184000E+00
        -11   -1    0    0    0    0  0.00000000000E+00  0.00000000000E+00  0.45593999997E+02  0.45594000000E+02  0.51100000000E-03 0.  1.
         11   -1    0    0    0    0 -0.00000000000E+00 -0.00000000000E+00 -0.45593999997E+02  0.45594000000E+02  0.51100000000E-03 0. -1.
         23    2    1    2    0    0  0.13322676296E-14  0.00000000000E+00  0.00000000000E+00  0.91188000000E+02  0.91188000000E+02 0.  0.
    9900012    2    3    3    0    0  0.29667523864E+01 -0.18933052158E+02  0.31440663991E+02  0.54367116850E+02  0.40000074483E+02 0.  0.
         12    1    3    3    0    0 -0.29667523864E+01  0.18933052158E+02 -0.31440663991E+02  0.36820883150E+02  0.00000000000E+00 0. -1.
         11    1    4    4    0    0  0.72242364728E+01 -0.51675974918E+01  0.45606270285E+01  0.99846369792E+01  0.51100000000E-03 0. -1.
        -11    1    4    4    0    0 -0.72169686042E+01 -0.23125546603E+02  0.24118902612E+02  0.34184748134E+02  0.51100000000E-03 0.  1.
         12    1    4    4    0    0  0.29594845177E+01  0.93600919364E+01  0.27611343502E+01  0.10197731736E+02  0.00000000000E+00 0. -1.
</event>
<event>
 8    1  0.2530183E-006  0.9118800E+02  0.7816164E-02  0.1184000E+00
        -11   -1    0    0    0    0  0.00000000000E+00  0.00000000000E+00  0.45593999997E+02  0.45594000000E+02  0.51100000000E-03 0.  1.
         11   -1    0    0    0    0 -0.00000000000E+00 -0.00000000000E+00 -0.45593999997E+02  0.45594000000E+02  0.51100000000E-03 0. -1.
         23    2    1    2    0    0  0.00000000000E+00  0.00000000000E+00  0.35527136788E-14  0.91188000000E+02  0.91188000000E+02 0.  0.
    9900012    2    3    3    0    0 -0.17633159293E+02  0.50971541278E+01  0.31919759577E+02  0.54367077438E+02  0.39999984635E+02 0.  0.
         12    1    3    3    0    0  0.17633159293E+02 -0.50971541278E+01 -0.31919759577E+02  0.36820922562E+02  0.00000000000E+00 0. -1.
         11    1    4    4    0    0 -0.18033603147E+02  0.18863008895E+01  0.22272569152E+02  0.28719963621E+02  0.51100000000E-03 0. -1.
        -11    1    4    4    0    0 -0.30447111414E+01 -0.57930748320E+01  0.13705002140E+02  0.15187398258E+02  0.51100000000E-03 0.  1.
         12    1    4    4    0    0  0.34451549951E+01  0.90039280703E+01 -0.40578117151E+01  0.10459715558E+02  0.00000000000E+00 0. -1.
</event>
<event>
 8    1  0.2530183E-006  0.9118800E+02  0.7816164E-02  0.1184000E+00
        -11   -1    0    0    0    0  0.00000000000E+00  0.00000000000E+00  0.45593999997E+02  0.45594000000E+02  0.51100000000E-03 0.  1.
         11   -1    0    0    0    0 -0.00000000000E+00 -0.00000000000E+00 -0.45593999997E+02  0.45594000000E+02  0.51100000000E-03 0. -1.
         23    2    1    2    0    0  0.00000000000E+00  0.00000000000E+00  0.71054273576E-14  0.91188000000E+02  0.91188000000E+02 0.  0.
    9900012    2    3    3    0    0  0.20114406757E+02 -0.16400092966E+02  0.26119484570E+02  0.54367083625E+02  0.39999998740E+02 0.  0.
         12    1    3    3    0    0 -0.20114406757E+02  0.16400092966E+02 -0.26119484570E+02  0.36820916375E+02  0.00000000000E+00 0. -1.
         11    1    4    4    0    0  0.64315662893E+00 -0.18551299813E+02  0.13236597476E+02  0.22798506271E+02  0.51100000000E-03 0. -1.
        -11    1    4    4    0    0  0.51552097721E+00 -0.73919853164E+01  0.49535749010E+01  0.89131988285E+01  0.51100000000E-03 0.  1.
        -12    1    4    4    0    0  0.18955729151E+02  0.95431921625E+01  0.79293121923E+01  0.22655378525E+02  0.00000000000E+00 0.  1.
</event>
<event>
 8    1  0.2530183E-006  0.9118800E+02  0.7816164E-02  0.1184000E+00
        -11   -1    0    0    0    0  0.00000000000E+00  0.00000000000E+00  0.45593999997E+02  0.45594000000E+02  0.51100000000E-03 0.  1.
         11   -1    0    0    0    0 -0.00000000000E+00 -0.00000000000E+00 -0.45593999997E+02  0.45594000000E+02  0.51100000000E-03 0. -1.
         23    2    1    2    0    0  0.71054273576E-14  0.88817841970E-15  0.00000000000E+00  0.91188000000E+02  0.91188000000E+02 0.  0.
    9900012    2    3    3    0    0 -0.35010675117E+02 -0.74562813312E+01  0.86276236989E+01  0.54367090260E+02  0.40000013865E+02 0.  0.
        -12    1    3    3    0    0  0.35010675117E+02  0.74562813312E+01 -0.86276236989E+01  0.36820909740E+02  0.00000000000E+00 0.  1.
         11    1    4    4    0    0 -0.24085337617E+02 -0.13176603225E+02 -0.20582924135E+01  0.27531126541E+02  0.51100000000E-03 0. -1.
        -11    1    4    4    0    0 -0.64615202962E+01  0.11006301037E+02 -0.14718785449E+01  0.12847425180E+02  0.51100000000E-03 0.  1.
        -12    1    4    4    0    0 -0.44638172030E+01 -0.52859791431E+01  0.12157794657E+02  0.13988538539E+02  0.00000000000E+00 0.  1.
</event>
<event>
 8    1  0.2530183E-006  0.9118800E+02  0.7816164E-02  0.1184000E+00
        -11   -1    0    0    0    0  0.00000000000E+00  0.00000000000E+00  0.45593999997E+02  0.45594000000E+02  0.51100000000E-03 0. -1.
         11   -1    0    0    0    0 -0.00000000000E+00 -0.00000000000E+00 -0.45593999997E+02  0.45594000000E+02  0.51100000000E-03 0.  1.
         23    2    1    2    0    0 -0.26645352591E-14  0.00000000000E+00  0.35527136788E-14  0.91188000000E+02  0.91188000000E+02 0.  0.
    9900012    2    3    3    0    0 -0.31173743081E+01  0.32456007019E+02 -0.17107606020E+02  0.54367073912E+02  0.39999976598E+02 0.  0.
         12    1    3    3    0    0  0.31173743081E+01 -0.32456007019E+02  0.17107606020E+02  0.36820926088E+02  0.00000000000E+00 0. -1.
         11    1    4    4    0    0 -0.55775516740E+01  0.66914343738E+01  0.30102899760E+01  0.92166275099E+01  0.51100000000E-03 0.  1.
        -11    1    4    4    0    0  0.85908528786E+01  0.11612162429E+02  0.53275188422E+01  0.15395698319E+02  0.51100000000E-03 0. -1.
        -12    1    4    4    0    0 -0.61306755127E+01  0.14152410216E+02 -0.25445414839E+02  0.29754748083E+02  0.00000000000E+00 0.  1.
</event>
<event>
 8    1  0.2530183E-006  0.9118800E+02  0.7816164E-02  0.1184000E+00
        -11   -1    0    0    0    0  0.00000000000E+00  0.00000000000E+00  0.45593999997E+02  0.45594000000E+02  0.51100000000E-03 0.  1.
         11   -1    0    0    0    0 -0.00000000000E+00 -0.00000000000E+00 -0.45593999997E+02  0.45594000000E+02  0.51100000000E-03 0. -1.
         23    2    1    2    0    0 -0.17763568394E-14  0.00000000000E+00  0.00000000000E+00  0.91188000000E+02  0.91188000000E+02 0.  0.
    9900012    2    3    3    0    0  0.88102733879E+01 -0.31435457414E+02 -0.17028513177E+02  0.54367093425E+02  0.40000021080E+02 0.  0.
        -12    1    3    3    0    0 -0.88102733879E+01  0.31435457414E+02  0.17028513177E+02  0.36820906575E+02  0.00000000000E+00 0.  1.
         11    1    4    4    0    0  0.57226174188E+01 -0.11612833253E+01 -0.14832550254E+01  0.60246970724E+01  0.51100000000E-03 0. -1.
        -11    1    4    4    0    0 -0.13733628833E+02 -0.71685226803E+01  0.62558613979E+00  0.15504568250E+02  0.51100000000E-03 0.  1.
        -12    1    4    4    0    0  0.16821284802E+02 -0.23105651409E+02 -0.16170844291E+02  0.32837828103E+02  0.00000000000E+00 0.  1.
</event>
<event>
 8    1  0.2530183E-006  0.9118800E+02  0.7816164E-02  0.1184000E+00
        -11   -1    0    0    0    0  0.00000000000E+00  0.00000000000E+00  0.45593999997E+02  0.45594000000E+02  0.51100000000E-03 0. -1.
         11   -1    0    0    0    0 -0.00000000000E+00 -0.00000000000E+00 -0.45593999997E+02  0.45594000000E+02  0.51100000000E-03 0.  1.
         23    2    1    2    0    0  0.00000000000E+00  0.00000000000E+00  0.17763568394E-14  0.91188000000E+02  0.91188000000E+02 0.  0.
    9900012    2    3    3    0    0 -0.12356180409E+02 -0.32601854958E+02 -0.11841607130E+02  0.54367084743E+02  0.40000001288E+02 0.  0.
         12    1    3    3    0    0  0.12356180409E+02  0.32601854958E+02  0.11841607130E+02  0.36820915257E+02  0.00000000000E+00 0. -1.
         11    1    4    4    0    0 -0.10549284679E+02 -0.53773125567E+01  0.84554267103E+01  0.14549815761E+02  0.51100000000E-03 0. -1.
        -11    1    4    4    0    0 -0.11212634572E+02 -0.14463348694E+02 -0.12403139182E+02  0.22107679465E+02  0.51100000000E-03 0.  1.
         12    1    4    4    0    0  0.94057388415E+01 -0.12761193707E+02 -0.78938946585E+01  0.17709589517E+02  0.00000000000E+00 0. -1.
</event>
<event>
 8    1  0.2530183E-006  0.9118800E+02  0.7816164E-02  0.1184000E+00
        -11   -1    0    0    0    0  0.00000000000E+00  0.00000000000E+00  0.45593999997E+02  0.45594000000E+02  0.51100000000E-03 0. -1.
         11   -1    0    0    0    0 -0.00000000000E+00 -0.00000000000E+00 -0.45593999997E+02  0.45594000000E+02  0.51100000000E-03 0.  1.
         23    2    1    2    0    0  0.88817841970E-15 -0.71054273576E-14  0.00000000000E+00  0.91188000000E+02  0.91188000000E+02 0.  0.
    9900012    2    3    3    0    0  0.46234358920E+01 -0.23683048968E+02 -0.27812156192E+02  0.54367095613E+02  0.40000026068E+02 0.  0.
         12    1    3    3    0    0 -0.46234358920E+01  0.23683048968E+02  0.27812156192E+02  0.36820904387E+02  0.00000000000E+00 0. -1.
         11    1    4    4    0    0  0.63077527795E+01 -0.51972258654E+00  0.68158030394E+01  0.93012379836E+01  0.51100000000E-03 0. -1.
        -11    1    4    4    0    0  0.54981115852E+01 -0.19624249193E+02 -0.28224291877E+02  0.34813087189E+02  0.51100000000E-03 0.  1.
         12    1    4    4    0    0 -0.71824284727E+01 -0.35390771880E+01 -0.64036673547E+01  0.10252770440E+02  0.00000000000E+00 0. -1.
</event>
<event>
 8    1  0.2530183E-006  0.9118800E+02  0.7816164E-02  0.1184000E+00
        -11   -1    0    0    0    0  0.00000000000E+00  0.00000000000E+00  0.45593999997E+02  0.45594000000E+02  0.51100000000E-03 0. -1.
         11   -1    0    0    0    0 -0.00000000000E+00 -0.00000000000E+00 -0.45593999997E+02  0.45594000000E+02  0.51100000000E-03 0.  1.
         23    2    1    2    0    0 -0.11102230246E-15 -0.35527136788E-14  0.35527136788E-14  0.91188000000E+02  0.91188000000E+02 0.  0.
    9900012    2    3    3    0    0  0.45388992397E+00  0.23212023303E+02 -0.28579284788E+02  0.54367087995E+02  0.40000008703E+02 0.  0.
        -12    1    3    3    0    0 -0.45388992397E+00 -0.23212023303E+02  0.28579284788E+02  0.36820912005E+02  0.00000000000E+00 0.  1.
         11    1    4    4    0    0  0.59426104855E+01  0.12460030828E+02 -0.16052514873E+02  0.21171920593E+02  0.51100000000E-03 0.  1.
        -11    1    4    4    0    0 -0.59230796084E+01  0.10952079577E+02  0.65796866215E+01  0.14082726846E+02  0.51100000000E-03 0. -1.
         12    1    4    4    0    0  0.43435904692E+00 -0.20008710178E+00 -0.19106456537E+02  0.19112440556E+02  0.00000000000E+00 0. -1.
</event>
<event>
 8    1  0.2530183E-006  0.9118800E+02  0.7816164E-02  0.1184000E+00
        -11   -1    0    0    0    0  0.00000000000E+00  0.00000000000E+00  0.45593999997E+02  0.45594000000E+02  0.51100000000E-03 0.  1.
         11   -1    0    0    0    0 -0.00000000000E+00 -0.00000000000E+00 -0.45593999997E+02  0.45594000000E+02  0.51100000000E-03 0. -1.
         23    2    1    2    0    0  0.26645352591E-14  0.00000000000E+00 -0.88817841970E-15  0.91188000000E+02  0.91188000000E+02 0.  0.
    9900012    2    3    3    0    0  0.46580135557E+01 -0.36361357965E+02  0.34546307712E+01  0.54367083158E+02  0.39999997675E+02 0.  0.
        -12    1    3    3    0    0 -0.46580135557E+01  0.36361357965E+02 -0.34546307712E+01  0.36820916842E+02  0.00000000000E+00 0.  1.
         11    1    4    4    0    0 -0.11421191572E+02 -0.98044772714E+01 -0.49875298427E+01  0.15857075571E+02  0.51100000000E-03 0. -1.
        -11    1    4    4    0    0 -0.47091304327E+01 -0.31784487671E+01  0.39154195760E+01  0.68999243992E+01  0.51100000000E-03 0.  1.
         12    1    4    4    0    0  0.20788335560E+02 -0.23378431926E+02  0.45267410378E+01  0.31610083187E+02  0.00000000000E+00 0. -1.
</event>
<event>
 8    1  0.2530183E-006  0.9118800E+02  0.7816164E-02  0.1184000E+00
        -11   -1    0    0    0    0  0.00000000000E+00  0.00000000000E+00  0.45593999997E+02  0.45594000000E+02  0.51100000000E-03 0. -1.
         11   -1    0    0    0    0 -0.00000000000E+00 -0.00000000000E+00 -0.45593999997E+02  0.45594000000E+02  0.51100000000E-03 0.  1.
         23    2    1    2    0    0  0.66613381478E-15 -0.17763568394E-14  0.00000000000E+00  0.91188000000E+02  0.91188000000E+02 0.  0.
    9900012    2    3    3    0    0 -0.15521403443E+01  0.88882009641E+01 -0.35698328718E+02  0.54367082992E+02  0.39999997297E+02 0.  0.
         12    1    3    3    0    0  0.15521403443E+01 -0.88882009641E+01  0.35698328718E+02  0.36820917008E+02  0.00000000000E+00 0. -1.
         11    1    4    4    0    0  0.62942214882E+01 -0.66467204007E+01  0.19840127085E+01  0.93665587553E+01  0.51100000000E-03 0. -1.
        -11    1    4    4    0    0 -0.46567514628E+01 -0.13583504362E-02 -0.63358454891E+00  0.46996559100E+01  0.51100000000E-03 0.  1.
        -12    1    4    4    0    0 -0.31896103698E+01  0.15536279715E+02 -0.37048756878E+02  0.40300868327E+02  0.00000000000E+00 0.  1.
</event>
<event>
 8    1  0.2530183E-006  0.9118800E+02  0.7816164E-02  0.1184000E+00
        -11   -1    0    0    0    0  0.00000000000E+00  0.00000000000E+00  0.45593999997E+02  0.45594000000E+02  0.51100000000E-03 0.  1.
         11   -1    0    0    0    0 -0.00000000000E+00 -0.00000000000E+00 -0.45593999997E+02  0.45594000000E+02  0.51100000000E-03 0. -1.
         23    2    1    2    0    0 -0.35527136788E-14 -0.94368957093E-15  0.00000000000E+00  0.91188000000E+02  0.91188000000E+02 0.  0.
    9900012    2    3    3    0    0  0.21744168294E+02 -0.39059387147E+00  0.29712254052E+02  0.54367089376E+02  0.40000011850E+02 0.  0.
         12    1    3    3    0    0 -0.21744168294E+02  0.39059387147E+00 -0.29712254052E+02  0.36820910624E+02  0.00000000000E+00 0. -1.
         11    1    4    4    0    0  0.26038122318E+02 -0.12905531233E+02  0.12722259004E+02  0.31723688699E+02  0.51100000000E-03 0. -1.
        -11    1    4    4    0    0 -0.52768939300E+01  0.48748237784E+01  0.93825376943E+01  0.11817001746E+02  0.51100000000E-03 0.  1.
         12    1    4    4    0    0  0.98293990644E+00  0.76401135832E+01  0.76074573533E+01  0.10826398931E+02  0.00000000000E+00 0. -1.
</event>
<event>
 8    1  0.2530183E-006  0.9118800E+02  0.7816164E-02  0.1184000E+00
        -11   -1    0    0    0    0  0.00000000000E+00  0.00000000000E+00  0.45593999997E+02  0.45594000000E+02  0.51100000000E-03 0. -1.
         11   -1    0    0    0    0 -0.00000000000E+00 -0.00000000000E+00 -0.45593999997E+02  0.45594000000E+02  0.51100000000E-03 0.  1.
         23    2    1    2    0    0  0.00000000000E+00  0.00000000000E+00  0.00000000000E+00  0.91188000000E+02  0.91188000000E+02 0.  0.
    9900012    2    3    3    0    0 -0.15528209992E+02  0.86198231275E+01  0.32254521640E+02  0.54367070863E+02  0.39999969646E+02 0.  0.
         12    1    3    3    0    0  0.15528209992E+02 -0.86198231275E+01 -0.32254521640E+02  0.36820929137E+02  0.00000000000E+00 0. -1.
         11    1    4    4    0    0 -0.40659902397E+00 -0.96460310879E+01  0.85647570106E+01  0.12906056773E+02  0.51100000000E-03 0. -1.
        -11    1    4    4    0    0 -0.95255567439E+01 -0.29170292244E+01  0.11515569282E+01  0.10028528027E+02  0.51100000000E-03 0.  1.
        -12    1    4    4    0    0 -0.55960542242E+01  0.21182883440E+02  0.22538207701E+02  0.31432486063E+02  0.00000000000E+00 0.  1.
</event>
<event>
 8    1  0.2530183E-006  0.9118800E+02  0.7816164E-02  0.1184000E+00
        -11   -1    0    0    0    0  0.00000000000E+00  0.00000000000E+00  0.45593999997E+02  0.45594000000E+02  0.51100000000E-03 0.  1.
         11   -1    0    0    0    0 -0.00000000000E+00 -0.00000000000E+00 -0.45593999997E+02  0.45594000000E+02  0.51100000000E-03 0. -1.
         23    2    1    2    0    0  0.35527136788E-14  0.71054273576E-14  0.17763568394E-14  0.91188000000E+02  0.91188000000E+02 0.  0.
    9900012    2    3    3    0    0  0.22464639161E+02  0.26850480380E+02  0.11409368638E+02  0.54367054847E+02  0.39999933134E+02 0.  0.
         12    1    3    3    0    0 -0.22464639161E+02 -0.26850480380E+02 -0.11409368638E+02  0.36820945153E+02  0.00000000000E+00 0. -1.
         11    1    4    4    0    0  0.11840379504E+02  0.26344771552E+02  0.16004464396E+02  0.33020969940E+02  0.51100000000E-03 0. -1.
        -11    1    4    4    0    0 -0.27940671762E+01  0.45906977914E+01 -0.49625306917E+01  0.73149182309E+01  0.51100000000E-03 0.  1.
        -12    1    4    4    0    0  0.13418326834E+02 -0.40849889637E+01  0.36743493323E+00  0.14031166676E+02  0.00000000000E+00 0.  1.
</event>
<event>
 8    1  0.2530183E-006  0.9118800E+02  0.7816164E-02  0.1184000E+00
        -11   -1    0    0    0    0  0.00000000000E+00  0.00000000000E+00  0.45593999997E+02  0.45594000000E+02  0.51100000000E-03 0. -1.
         11   -1    0    0    0    0 -0.00000000000E+00 -0.00000000000E+00 -0.45593999997E+02  0.45594000000E+02  0.51100000000E-03 0.  1.
         23    2    1    2    0    0  0.00000000000E+00  0.88817841970E-15  0.14210854715E-13  0.91188000000E+02  0.91188000000E+02 0.  0.
    9900012    2    3    3    0    0  0.65069541547E+01  0.57587278372E+01  0.35780945665E+02  0.54367089210E+02  0.40000011473E+02 0.  0.
        -12    1    3    3    0    0 -0.65069541547E+01 -0.57587278372E+01 -0.35780945665E+02  0.36820910790E+02  0.00000000000E+00 0.  1.
         11    1    4    4    0    0 -0.81284791050E+00 -0.21259235302E+01  0.55876185640E+00  0.23436056953E+01  0.51100000000E-03 0. -1.
        -11    1    4    4    0    0 -0.46083418960E+01  0.11770140124E+01 -0.65341326656E+01  0.80818974856E+01  0.51100000000E-03 0.  1.
         12    1    4    4    0    0  0.11928143961E+02  0.67076373550E+01  0.41756316475E+02  0.43941586029E+02  0.00000000000E+00 0. -1.
</event>
<event>
 8    1  0.2530183E-006  0.9118800E+02  0.7816164E-02  0.1184000E+00
        -11   -1    0    0    0    0  0.00000000000E+00  0.00000000000E+00  0.45593999997E+02  0.45594000000E+02  0.51100000000E-03 0.  1.
         11   -1    0    0    0    0 -0.00000000000E+00 -0.00000000000E+00 -0.45593999997E+02  0.45594000000E+02  0.51100000000E-03 0. -1.
         23    2    1    2    0    0 -0.35527136788E-14  0.00000000000E+00  0.00000000000E+00  0.91188000000E+02  0.91188000000E+02 0.  0.
    9900012    2    3    3    0    0  0.22160150428E+02  0.12241739404E+02  0.26736622381E+02  0.54367089813E+02  0.40000012847E+02 0.  0.
         12    1    3    3    0    0 -0.22160150428E+02 -0.12241739404E+02 -0.26736622381E+02  0.36820910187E+02  0.00000000000E+00 0. -1.
         11    1    4    4    0    0  0.11879596219E+01  0.89979605425E+01 -0.12633731702E+01  0.91635502954E+01  0.51100000000E-03 0. -1.
        -11    1    4    4    0    0  0.10040801718E+01  0.12334464167E+02  0.48035067264E+01  0.13274820542E+02  0.51100000000E-03 0.  1.
        -12    1    4    4    0    0  0.19968110635E+02 -0.90906853052E+01  0.23196488825E+02  0.31928718976E+02  0.00000000000E+00 0.  1.
</event>
<event>
 8    1  0.2530183E-006  0.9118800E+02  0.7816164E-02  0.1184000E+00
        -11   -1    0    0    0    0  0.00000000000E+00  0.00000000000E+00  0.45593999997E+02  0.45594000000E+02  0.51100000000E-03 0.  1.
         11   -1    0    0    0    0 -0.00000000000E+00 -0.00000000000E+00 -0.45593999997E+02  0.45594000000E+02  0.51100000000E-03 0. -1.
         23    2    1    2    0    0  0.00000000000E+00  0.00000000000E+00 -0.35527136788E-14  0.91188000000E+02  0.91188000000E+02 0.  0.
    9900012    2    3    3    0    0 -0.22058084760E+02  0.32752317358E+01  0.29300083899E+02  0.54367066244E+02  0.39999959116E+02 0.  0.
         12    1    3    3    0    0  0.22058084760E+02 -0.32752317358E+01 -0.29300083899E+02  0.36820933756E+02  0.00000000000E+00 0. -1.
         11    1    4    4    0    0 -0.93777490343E+00  0.58244442326E+01 -0.25397284541E+01  0.64229115882E+01  0.51100000000E-03 0. -1.
        -11    1    4    4    0    0 -0.22777515817E+02 -0.11371164785E+02  0.28865111883E+02  0.38487833137E+02  0.51100000000E-03 0.  1.
        -12    1    4    4    0    0  0.16572059607E+01  0.88219522878E+01  0.29747004705E+01  0.94563215181E+01  0.00000000000E+00 0.  1.
</event>
<event>
 8    1  0.2530183E-006  0.9118800E+02  0.7816164E-02  0.1184000E+00
        -11   -1    0    0    0    0  0.00000000000E+00  0.00000000000E+00  0.45593999997E+02  0.45594000000E+02  0.51100000000E-03 0.  1.
         11   -1    0    0    0    0 -0.00000000000E+00 -0.00000000000E+00 -0.45593999997E+02  0.45594000000E+02  0.51100000000E-03 0. -1.
         23    2    1    2    0    0  0.00000000000E+00  0.00000000000E+00  0.35527136788E-14  0.91188000000E+02  0.91188000000E+02 0.  0.
    9900012    2    3    3    0    0 -0.10595987282E+02  0.31357320209E+02 -0.16131408511E+02  0.54367098086E+02  0.40000031708E+02 0.  0.
        -12    1    3    3    0    0  0.10595987282E+02 -0.31357320209E+02  0.16131408511E+02  0.36820901914E+02  0.00000000000E+00 0.  1.
         11    1    4    4    0    0 -0.12823506762E-01  0.14678467652E+02 -0.24643558174E+02  0.28683837553E+02  0.51100000000E-03 0. -1.
        -11    1    4    4    0    0 -0.13026021230E+02  0.84356457675E+01  0.66643774680E+01  0.16889383526E+02  0.51100000000E-03 0.  1.
        -12    1    4    4    0    0  0.24428574548E+01  0.82432067900E+01  0.18477721950E+01  0.87938770068E+01  0.00000000000E+00 0.  1.
</event>
<event>
 8    1  0.2530183E-006  0.9118800E+02  0.7816164E-02  0.1184000E+00
        -11   -1    0    0    0    0  0.00000000000E+00  0.00000000000E+00  0.45593999997E+02  0.45594000000E+02  0.51100000000E-03 0. -1.
         11   -1    0    0    0    0 -0.00000000000E+00 -0.00000000000E+00 -0.45593999997E+02  0.45594000000E+02  0.51100000000E-03 0.  1.
         23    2    1    2    0    0  0.13322676296E-14 -0.35527136788E-14 -0.71054273576E-14  0.91188000000E+02  0.91188000000E+02 0.  0.
    9900012    2    3    3    0    0  0.38021557827E+01 -0.23870719346E+02 -0.27776129085E+02  0.54367068757E+02  0.39999964844E+02 0.  0.
         12    1    3    3    0    0 -0.38021557827E+01  0.23870719346E+02  0.27776129085E+02  0.36820931243E+02  0.00000000000E+00 0. -1.
         11    1    4    4    0    0  0.36987074160E+01 -0.49135021232E+00  0.10560441591E+01  0.38777688311E+01  0.51100000000E-03 0. -1.
        -11    1    4    4    0    0  0.11506025006E+02 -0.21875909034E+02 -0.67996575078E+01  0.25635509552E+02  0.51100000000E-03 0.  1.
         12    1    4    4    0    0 -0.11402576639E+02 -0.15034600997E+01 -0.22032515736E+02  0.24853790374E+02  0.00000000000E+00 0. -1.
</event>
<event>
 8    1  0.2530183E-006  0.9118800E+02  0.7816164E-02  0.1184000E+00
        -11   -1    0    0    0    0  0.00000000000E+00  0.00000000000E+00  0.45593999997E+02  0.45594000000E+02  0.51100000000E-03 0.  1.
         11   -1    0    0    0    0 -0.00000000000E+00 -0.00000000000E+00 -0.45593999997E+02  0.45594000000E+02  0.51100000000E-03 0. -1.
         23    2    1    2    0    0  0.00000000000E+00  0.00000000000E+00  0.00000000000E+00  0.91188000000E+02  0.91188000000E+02 0.  0.
    9900012    2    3    3    0    0 -0.97040253829E+01 -0.28624542350E+02 -0.21029681515E+02  0.54367081516E+02  0.39999993931E+02 0.  0.
        -12    1    3    3    0    0  0.97040253829E+01  0.28624542350E+02  0.21029681515E+02  0.36820918484E+02  0.00000000000E+00 0.  1.
         11    1    4    4    0    0 -0.15976370494E+02 -0.56759670001E+01 -0.16778001670E+02  0.23852931808E+02  0.51100000000E-03 0. -1.
        -11    1    4    4    0    0 -0.19205730285E+01 -0.22427390890E+01  0.54704923620E+01  0.62164914802E+01  0.51100000000E-03 0.  1.
         12    1    4    4    0    0  0.81929181393E+01 -0.20705836261E+02 -0.97221722072E+01  0.24297658227E+02  0.00000000000E+00 0. -1.
</event>
<event>
 8    1  0.2530183E-006  0.9118800E+02  0.7816164E-02  0.1184000E+00
        -11   -1    0    0    0    0  0.00000000000E+00  0.00000000000E+00  0.45593999997E+02  0.45594000000E+02  0.51100000000E-03 0.  1.
         11   -1    0    0    0    0 -0.00000000000E+00 -0.00000000000E+00 -0.45593999997E+02  0.45594000000E+02  0.51100000000E-03 0. -1.
         23    2    1    2    0    0  0.17763568394E-14  0.00000000000E+00  0.00000000000E+00  0.91188000000E+02  0.91188000000E+02 0.  0.
    9900012    2    3    3    0    0  0.15165217919E+02 -0.20470242163E+02 -0.26585057031E+02  0.54367083308E+02  0.39999998016E+02 0.  0.
        -12    1    3    3    0    0 -0.15165217919E+02  0.20470242163E+02  0.26585057031E+02  0.36820916692E+02  0.00000000000E+00 0.  1.
         11    1    4    4    0    0  0.65223334932E+01  0.10280543767E+02 -0.17017192345E+02  0.20924035221E+02  0.51100000000E-03 0. -1.
        -11    1    4    4    0    0  0.21151841795E+01 -0.11023365623E+02 -0.41699118212E+01  0.11974003451E+02  0.51100000000E-03 0.  1.
         12    1    4    4    0    0  0.65277002466E+01 -0.19727420306E+02 -0.53979528643E+01  0.21469044636E+02  0.00000000000E+00 0. -1.
</event>
<event>
 8    1  0.2530183E-006  0.9118800E+02  0.7816164E-02  0.1184000E+00
        -11   -1    0    0    0    0  0.00000000000E+00  0.00000000000E+00  0.45593999997E+02  0.45594000000E+02  0.51100000000E-03 0.  1.
         11   -1    0    0    0    0 -0.00000000000E+00 -0.00000000000E+00 -0.45593999997E+02  0.45594000000E+02  0.51100000000E-03 0. -1.
         23    2    1    2    0    0  0.88817841970E-15  0.00000000000E+00  0.88817841970E-15  0.91188000000E+02  0.91188000000E+02 0.  0.
    9900012    2    3    3    0    0 -0.13853470470E+01 -0.36117605092E+02  0.70272025643E+01  0.54367052702E+02  0.39999928244E+02 0.  0.
        -12    1    3    3    0    0  0.13853470470E+01  0.36117605092E+02 -0.70272025643E+01  0.36820947298E+02  0.00000000000E+00 0.  1.
         11    1    4    4    0    0 -0.27428453004E+01 -0.22981689256E+02 -0.73306539532E+00  0.23156394938E+02  0.51100000000E-03 0. -1.
        -11    1    4    4    0    0  0.69860352611E+01 -0.16069298839E+02 -0.38852880884E+01  0.17947771941E+02  0.51100000000E-03 0.  1.
        -12    1    4    4    0    0 -0.56285370077E+01  0.29333830024E+01  0.11645556048E+02  0.13262885823E+02  0.00000000000E+00 0.  1.
</event>
<event>
 8    1  0.2530183E-006  0.9118800E+02  0.7816164E-02  0.1184000E+00
        -11   -1    0    0    0    0  0.00000000000E+00  0.00000000000E+00  0.45593999997E+02  0.45594000000E+02  0.51100000000E-03 0.  1.
         11   -1    0    0    0    0 -0.00000000000E+00 -0.00000000000E+00 -0.45593999997E+02  0.45594000000E+02  0.51100000000E-03 0. -1.
         23    2    1    2    0    0  0.44408920985E-15  0.44408920985E-15  0.00000000000E+00  0.91188000000E+02  0.91188000000E+02 0.  0.
    9900012    2    3    3    0    0 -0.31578055792E+01  0.39439031051E+01 -0.36472767207E+02  0.54366961781E+02  0.39999720972E+02 0.  0.
        -12    1    3    3    0    0  0.31578055792E+01 -0.39439031051E+01  0.36472767207E+02  0.36821038219E+02  0.00000000000E+00 0.  1.
         11    1    4    4    0    0 -0.89531991867E+01  0.45072934673E+01 -0.22769261486E+02  0.24877997085E+02  0.51100000000E-03 0. -1.
        -11    1    4    4    0    0 -0.39565577136E+01  0.98978329173E+01 -0.16518782408E+01  0.10786572550E+02  0.51100000000E-03 0.  1.
         12    1    4    4    0    0  0.97519513211E+01 -0.10461223280E+02 -0.12051627480E+02  0.18702392146E+02  0.00000000000E+00 0. -1.
</event>
<event>
 8    1  0.2530183E-006  0.9118800E+02  0.7816164E-02  0.1184000E+00
        -11   -1    0    0    0    0  0.00000000000E+00  0.00000000000E+00  0.45593999997E+02  0.45594000000E+02  0.51100000000E-03 0.  1.
         11   -1    0    0    0    0 -0.00000000000E+00 -0.00000000000E+00 -0.45593999997E+02  0.45594000000E+02  0.51100000000E-03 0. -1.
         23    2    1    2    0    0  0.00000000000E+00 -0.71054273576E-14  0.00000000000E+00  0.91188000000E+02  0.91188000000E+02 0.  0.
    9900012    2    3    3    0    0 -0.72288045423E+01 -0.35515248663E+02 -0.64955689672E+01  0.54367069554E+02  0.39999966662E+02 0.  0.
         12    1    3    3    0    0  0.72288045423E+01  0.35515248663E+02  0.64955689672E+01  0.36820930446E+02  0.00000000000E+00 0. -1.
         11    1    4    4    0    0  0.55346307518E+00 -0.80256561502E-02 -0.64492046727E+01  0.64729148734E+01  0.51100000000E-03 0. -1.
        -11    1    4    4    0    0 -0.24074689484E+01  0.57127277279E+01 -0.11763352128E+01  0.63099072596E+01  0.51100000000E-03 0.  1.
        -12    1    4    4    0    0 -0.53747986691E+01 -0.41219950735E+02  0.11299709183E+01  0.41584247421E+02  0.00000000000E+00 0.  1.
</event>
<event>
 8    1  0.2530183E-006  0.9118800E+02  0.7816164E-02  0.1184000E+00
        -11   -1    0    0    0    0  0.00000000000E+00  0.00000000000E+00  0.45593999997E+02  0.45594000000E+02  0.51100000000E-03 0.  1.
         11   -1    0    0    0    0 -0.00000000000E+00 -0.00000000000E+00 -0.45593999997E+02  0.45594000000E+02  0.51100000000E-03 0. -1.
         23    2    1    2    0    0  0.17763568394E-14  0.35527136788E-14  0.00000000000E+00  0.91188000000E+02  0.91188000000E+02 0.  0.
    9900012    2    3    3    0    0  0.91780132187E+01  0.13382592382E+02 -0.33052232511E+02  0.54367085026E+02  0.40000001935E+02 0.  0.
        -12    1    3    3    0    0 -0.91780132187E+01 -0.13382592382E+02  0.33052232511E+02  0.36820914974E+02  0.00000000000E+00 0.  1.
         11    1    4    4    0    0 -0.57397857669E+01 -0.29905605599E+01 -0.25366861475E+02  0.26179500654E+02  0.51100000000E-03 0. -1.
        -11    1    4    4    0    0 -0.25409439071E+01  0.82345361913E-01  0.10644927967E+01  0.27561425712E+01  0.51100000000E-03 0.  1.
        -12    1    4    4    0    0  0.17458742893E+02  0.16290807580E+02 -0.87498638328E+01  0.25431441801E+02  0.00000000000E+00 0.  1.
</event>
