<event>
 8    1  0.2500956E-006  0.9118800E+02  0.7816164E-02  0.1184000E+00
        -11   -1    0    0    0    0  0.00000000000E+00  0.00000000000E+00  0.45593999997E+02  0.45594000000E+02  0.51100000000E-03 0.  1.
         11   -1    0    0    0    0 -0.00000000000E+00 -0.00000000000E+00 -0.45593999997E+02  0.45594000000E+02  0.51100000000E-03 0. -1.
         23    2    1    2    0    0 -0.35527136788E-14  0.35527136788E-14  0.00000000000E+00  0.91188000000E+02  0.91188000000E+02 0.  0.
    9900012    2    3    3    0    0  0.24399995458E+02 -0.14124967330E+02  0.23683446892E+02  0.54367080170E+02  0.39999990864E+02 0.  0.
         12    1    3    3    0    0 -0.24399995458E+02  0.14124967330E+02 -0.23683446892E+02  0.36820919830E+02  0.00000000000E+00 0. -1.
         11    1    4    4    0    0  0.20603567336E+02  0.81111334147E+01  0.15284655677E+02  0.26905727488E+02  0.51100000000E-03 0. -1.
        -11    1    4    4    0    0  0.33761641697E+01 -0.16536678359E+01  0.55138023240E+01  0.66734637290E+01  0.51100000000E-03 0.  1.
         12    1    4    4    0    0  0.42026395255E+00 -0.20582432909E+02  0.28849888908E+01  0.20787888953E+02  0.00000000000E+00 0. -1.
</event>
<event>
 8    1  0.2500956E-006  0.9118800E+02  0.7816164E-02  0.1184000E+00
        -11   -1    0    0    0    0  0.00000000000E+00  0.00000000000E+00  0.45593999997E+02  0.45594000000E+02  0.51100000000E-03 0.  1.
         11   -1    0    0    0    0 -0.00000000000E+00 -0.00000000000E+00 -0.45593999997E+02  0.45594000000E+02  0.51100000000E-03 0. -1.
         23    2    1    2    0    0  0.00000000000E+00  0.88817841970E-15  0.35527136788E-14  0.91188000000E+02  0.91188000000E+02 0.  0.
    9900012    2    3    3    0    0 -0.16890643526E+02  0.79328948714E+01  0.31741992888E+02  0.54367098704E+02  0.40000033115E+02 0.  0.
        -12    1    3    3    0    0  0.16890643526E+02 -0.79328948714E+01 -0.31741992888E+02  0.36820901296E+02  0.00000000000E+00 0.  1.
         11    1    4    4    0    0 -0.17209477132E+02  0.14096098762E+02  0.20026831147E+02  0.29932258009E+02  0.51100000000E-03 0. -1.
        -11    1    4    4    0    0 -0.10790091592E+01 -0.47635640406E+00  0.16701703871E+02  0.16743299813E+02  0.51100000000E-03 0.  1.
         12    1    4    4    0    0  0.13978427652E+01 -0.56868474863E+01 -0.49865421296E+01  0.76915408820E+01  0.00000000000E+00 0. -1.
</event>
<event>
 8    1  0.2500956E-006  0.9118800E+02  0.7816164E-02  0.1184000E+00
        -11   -1    0    0    0    0  0.00000000000E+00  0.00000000000E+00  0.45593999997E+02  0.45594000000E+02  0.51100000000E-03 0.  1.
         11   -1    0    0    0    0 -0.00000000000E+00 -0.00000000000E+00 -0.45593999997E+02  0.45594000000E+02  0.51100000000E-03 0. -1.
         23    2    1    2    0    0  0.00000000000E+00  0.00000000000E+00  0.00000000000E+00  0.91188000000E+02  0.91188000000E+02 0.  0.
    9900012    2    3    3    0    0  0.77686341212E+01  0.22841361594E+02 -0.27815453865E+02  0.54367096299E+02  0.40000027634E+02 0.  0.
        -12    1    3    3    0    0 -0.77686341212E+01 -0.22841361594E+02  0.27815453865E+02  0.36820903701E+02  0.00000000000E+00 0.  1.
         11    1    4    4    0    0  0.64615064036E+01  0.15516937556E+02 -0.11053083663E+02  0.20117084153E+02  0.51100000000E-03 0. -1.
        -11    1    4    4    0    0  0.10229835786E+02  0.10393505724E+02  0.48372145378E+00  0.14591384038E+02  0.51100000000E-03 0.  1.
         12    1    4    4    0    0 -0.89227080685E+01 -0.30690816852E+01 -0.17246091656E+02  0.19658628108E+02  0.00000000000E+00 0. -1.
</event>
<event>
 8    1  0.2500956E-006  0.9118800E+02  0.7816164E-02  0.1184000E+00
        -11   -1    0    0    0    0  0.00000000000E+00  0.00000000000E+00  0.45593999997E+02  0.45594000000E+02  0.51100000000E-03 0. -1.
         11   -1    0    0    0    0 -0.00000000000E+00 -0.00000000000E+00 -0.45593999997E+02  0.45594000000E+02  0.51100000000E-03 0.  1.
         23    2    1    2    0    0 -0.35527136788E-14  0.44408920985E-14  0.35527136788E-14  0.91188000000E+02  0.91188000000E+02 0.  0.
    9900012    2    3    3    0    0  0.22524562688E+02 -0.52374632951E+01  0.28652975792E+02  0.54367082470E+02  0.39999996106E+02 0.  0.
        -12    1    3    3    0    0 -0.22524562688E+02  0.52374632951E+01 -0.28652975792E+02  0.36820917530E+02  0.00000000000E+00 0.  1.
         11    1    4    4    0    0  0.15383099871E+01  0.11981164998E+02  0.13410441920E+02  0.18048674885E+02  0.51100000000E-03 0. -1.
        -11    1    4    4    0    0  0.30969353907E+01 -0.14365765638E+02  0.50914329906E+01  0.15552778573E+02  0.51100000000E-03 0.  1.
         12    1    4    4    0    0  0.17889317310E+02 -0.28528626548E+01  0.10151100881E+02  0.20765629011E+02  0.00000000000E+00 0. -1.
</event>
<event>
 8    1  0.2500956E-006  0.9118800E+02  0.7816164E-02  0.1184000E+00
        -11   -1    0    0    0    0  0.00000000000E+00  0.00000000000E+00  0.45593999997E+02  0.45594000000E+02  0.51100000000E-03 0.  1.
         11   -1    0    0    0    0 -0.00000000000E+00 -0.00000000000E+00 -0.45593999997E+02  0.45594000000E+02  0.51100000000E-03 0. -1.
         23    2    1    2    0    0  0.71054273576E-14  0.00000000000E+00  0.00000000000E+00  0.91188000000E+02  0.91188000000E+02 0.  0.
    9900012    2    3    3    0    0  0.34988242789E+02  0.66273974496E+01 -0.93638981494E+01  0.54367053258E+02  0.39999929513E+02 0.  0.
        -12    1    3    3    0    0 -0.34988242789E+02 -0.66273974496E+01  0.93638981494E+01  0.36820946742E+02  0.00000000000E+00 0.  1.
         11    1    4    4    0    0  0.19047361280E+02 -0.66464284256E+01 -0.14024304220E+02  0.24569454443E+02  0.51100000000E-03 0. -1.
        -11    1    4    4    0    0  0.82305691856E+01  0.13572455571E+02 -0.57123482503E+01  0.16869639656E+02  0.51100000000E-03 0.  1.
         12    1    4    4    0    0  0.77103123234E+01 -0.29862969539E+00  0.10372754321E+02  0.12927959159E+02  0.00000000000E+00 0. -1.
</event>
<event>
 8    1  0.2500956E-006  0.9118800E+02  0.7816164E-02  0.1184000E+00
        -11   -1    0    0    0    0  0.00000000000E+00  0.00000000000E+00  0.45593999997E+02  0.45594000000E+02  0.51100000000E-03 0.  1.
         11   -1    0    0    0    0 -0.00000000000E+00 -0.00000000000E+00 -0.45593999997E+02  0.45594000000E+02  0.51100000000E-03 0. -1.
         23    2    1    2    0    0  0.00000000000E+00  0.00000000000E+00  0.00000000000E+00  0.91188000000E+02  0.91188000000E+02 0.  0.
    9900012    2    3    3    0    0  0.18667861617E+02  0.23469901120E+02  0.21364779349E+02  0.54367094083E+02  0.40000022581E+02 0.  0.
         12    1    3    3    0    0 -0.18667861617E+02 -0.23469901120E+02 -0.21364779349E+02  0.36820905917E+02  0.00000000000E+00 0. -1.
         11    1    4    4    0    0 -0.52952550387E+01  0.20169741469E+02  0.31558380692E+01  0.21090697262E+02  0.51100000000E-03 0. -1.
        -11    1    4    4    0    0  0.20091870700E+02  0.26246902756E+01  0.70634945834E+01  0.21458453422E+02  0.51100000000E-03 0.  1.
         12    1    4    4    0    0  0.38712459556E+01  0.67546937586E+00  0.11145446696E+02  0.11817943399E+02  0.00000000000E+00 0. -1.
</event>
<event>
 8    1  0.2500956E-006  0.9118800E+02  0.7816164E-02  0.1184000E+00
        -11   -1    0    0    0    0  0.00000000000E+00  0.00000000000E+00  0.45593999997E+02  0.45594000000E+02  0.51100000000E-03 0. -1.
         11   -1    0    0    0    0 -0.00000000000E+00 -0.00000000000E+00 -0.45593999997E+02  0.45594000000E+02  0.51100000000E-03 0.  1.
         23    2    1    2    0    0  0.00000000000E+00  0.17763568394E-14  0.00000000000E+00  0.91188000000E+02  0.91188000000E+02 0.  0.
    9900012    2    3    3    0    0  0.66653782826E+01 -0.14569318389E+02 -0.33152481998E+02  0.54367090606E+02  0.40000014654E+02 0.  0.
         12    1    3    3    0    0 -0.66653782826E+01  0.14569318389E+02  0.33152481998E+02  0.36820909394E+02  0.00000000000E+00 0. -1.
         11    1    4    4    0    0  0.11158337672E+02 -0.67468556210E+01  0.44253381357E+01  0.13769973793E+02  0.51100000000E-03 0. -1.
        -11    1    4    4    0    0 -0.64699078672E+00 -0.98289683384E+01 -0.32282418360E+02  0.33751766637E+02  0.51100000000E-03 0.  1.
         12    1    4    4    0    0 -0.38459686026E+01  0.20065055701E+01 -0.52954017734E+01  0.68453501763E+01  0.00000000000E+00 0. -1.
</event>
<event>
 8    1  0.2500956E-006  0.9118800E+02  0.7816164E-02  0.1184000E+00
        -11   -1    0    0    0    0  0.00000000000E+00  0.00000000000E+00  0.45593999997E+02  0.45594000000E+02  0.51100000000E-03 0. -1.
         11   -1    0    0    0    0 -0.00000000000E+00 -0.00000000000E+00 -0.45593999997E+02  0.45594000000E+02  0.51100000000E-03 0.  1.
         23    2    1    2    0    0 -0.13322676296E-14 -0.71054273576E-14  0.88817841970E-15  0.91188000000E+02  0.91188000000E+02 0.  0.
    9900012    2    3    3    0    0 -0.36424728660E+01 -0.36354569118E+02  0.45671353815E+01  0.54367068046E+02  0.39999963225E+02 0.  0.
        -12    1    3    3    0    0  0.36424728660E+01  0.36354569118E+02 -0.45671353815E+01  0.36820931954E+02  0.00000000000E+00 0.  1.
         11    1    4    4    0    0  0.72135898660E+01 -0.10627348308E+02  0.12135823203E+02  0.17670727656E+02  0.51100000000E-03 0. -1.
        -11    1    4    4    0    0 -0.13340930795E+02 -0.14200975000E+02  0.43139269154E+01  0.19956404765E+02  0.51100000000E-03 0.  1.
        -12    1    4    4    0    0  0.24848680630E+01 -0.11526245810E+02 -0.11882614737E+02  0.16739935625E+02  0.00000000000E+00 0.  1.
</event>
<event>
 8    1  0.2500956E-006  0.9118800E+02  0.7816164E-02  0.1184000E+00
        -11   -1    0    0    0    0  0.00000000000E+00  0.00000000000E+00  0.45593999997E+02  0.45594000000E+02  0.51100000000E-03 0.  1.
         11   -1    0    0    0    0 -0.00000000000E+00 -0.00000000000E+00 -0.45593999997E+02  0.45594000000E+02  0.51100000000E-03 0. -1.
         23    2    1    2    0    0  0.00000000000E+00  0.00000000000E+00  0.00000000000E+00  0.91188000000E+02  0.91188000000E+02 0.  0.
    9900012    2    3    3    0    0 -0.50523004622E+01  0.21025348939E+01 -0.36411994234E+02  0.54367085875E+02  0.40000003869E+02 0.  0.
        -12    1    3    3    0    0  0.50523004622E+01 -0.21025348939E+01  0.36411994234E+02  0.36820914125E+02  0.00000000000E+00 0.  1.
         11    1    4    4    0    0  0.43954298789E+01  0.13652870020E+02 -0.30236824181E+01  0.14658216782E+02  0.51100000000E-03 0.  1.
        -11    1    4    4    0    0 -0.41702558986E+01 -0.95321404426E+01 -0.65775923815E+01  0.12309242766E+02  0.51100000000E-03 0. -1.
         12    1    4    4    0    0 -0.52774744426E+01 -0.20181946836E+01 -0.26810719434E+02  0.27399626327E+02  0.00000000000E+00 0. -1.
</event>
<event>
 8    1  0.2500956E-006  0.9118800E+02  0.7816164E-02  0.1184000E+00
        -11   -1    0    0    0    0  0.00000000000E+00  0.00000000000E+00  0.45593999997E+02  0.45594000000E+02  0.51100000000E-03 0. -1.
         11   -1    0    0    0    0 -0.00000000000E+00 -0.00000000000E+00 -0.45593999997E+02  0.45594000000E+02  0.51100000000E-03 0.  1.
         23    2    1    2    0    0 -0.88817841970E-15  0.00000000000E+00 -0.35527136788E-14  0.91188000000E+02  0.91188000000E+02 0.  0.
    9900012    2    3    3    0    0 -0.56247397636E+01 -0.35729069552E+02 -0.68976227825E+01  0.54367064264E+02  0.39999954603E+02 0.  0.
         12    1    3    3    0    0  0.56247397636E+01  0.35729069552E+02  0.68976227825E+01  0.36820935736E+02  0.00000000000E+00 0. -1.
         11    1    4    4    0    0 -0.15188173618E+02 -0.14956904534E+02 -0.56076773363E+01  0.22041679983E+02  0.51100000000E-03 0. -1.
        -11    1    4    4    0    0  0.65812976492E+01 -0.56575499704E+01  0.99885214413E+01  0.13232230018E+02  0.51100000000E-03 0.  1.
        -12    1    4    4    0    0  0.29821362054E+01 -0.15114615047E+02 -0.11278466887E+02  0.19093154263E+02  0.00000000000E+00 0.  1.
</event>
<event>
 8    1  0.2500956E-006  0.9118800E+02  0.7816164E-02  0.1184000E+00
        -11   -1    0    0    0    0  0.00000000000E+00  0.00000000000E+00  0.45593999997E+02  0.45594000000E+02  0.51100000000E-03 0.  1.
         11   -1    0    0    0    0 -0.00000000000E+00 -0.00000000000E+00 -0.45593999997E+02  0.45594000000E+02  0.51100000000E-03 0. -1.
         23    2    1    2    0    0  0.00000000000E+00  0.00000000000E+00 -0.71054273576E-14  0.91188000000E+02  0.91188000000E+02 0.  0.
    9900012    2    3    3    0    0 -0.16216895886E+02 -0.24894240231E+02 -0.21750150986E+02  0.54367082348E+02  0.39999995828E+02 0.  0.
         12    1    3    3    0    0  0.16216895886E+02  0.24894240231E+02  0.21750150986E+02  0.36820917652E+02  0.00000000000E+00 0. -1.
         11    1    4    4    0    0  0.67414970015E+01 -0.89202798837E+01 -0.48244259112E+01  0.12177613094E+02  0.51100000000E-03 0. -1.
        -11    1    4    4    0    0 -0.45689991782E+01  0.42793530679E+00  0.66545522444E+01  0.80834366424E+01  0.51100000000E-03 0.  1.
         12    1    4    4    0    0 -0.18389393709E+02 -0.16401895654E+02 -0.23580277319E+02  0.34106032611E+02  0.00000000000E+00 0. -1.
</event>
<event>
 8    1  0.2500956E-006  0.9118800E+02  0.7816164E-02  0.1184000E+00
        -11   -1    0    0    0    0  0.00000000000E+00  0.00000000000E+00  0.45593999997E+02  0.45594000000E+02  0.51100000000E-03 0.  1.
         11   -1    0    0    0    0 -0.00000000000E+00 -0.00000000000E+00 -0.45593999997E+02  0.45594000000E+02  0.51100000000E-03 0. -1.
         23    2    1    2    0    0  0.00000000000E+00 -0.17763568394E-14  0.00000000000E+00  0.91188000000E+02  0.91188000000E+02 0.  0.
    9900012    2    3    3    0    0 -0.33306677826E+02  0.14316583822E+02  0.64405434216E+01  0.54367082579E+02  0.39999996355E+02 0.  0.
         12    1    3    3    0    0  0.33306677826E+02 -0.14316583822E+02 -0.64405434216E+01  0.36820917421E+02  0.00000000000E+00 0. -1.
         11    1    4    4    0    0 -0.15879472097E+02 -0.39281224204E+01 -0.59673530904E+01  0.17412555326E+02  0.51100000000E-03 0. -1.
        -11    1    4    4    0    0 -0.12994314345E+02  0.70939756059E+01 -0.51613584716E+01  0.15678530439E+02  0.51100000000E-03 0.  1.
        -12    1    4    4    0    0 -0.44328913846E+01  0.11150730636E+02  0.17569254984E+02  0.21275996814E+02  0.00000000000E+00 0.  1.
</event>
<event>
 8    1  0.2500956E-006  0.9118800E+02  0.7816164E-02  0.1184000E+00
        -11   -1    0    0    0    0  0.00000000000E+00  0.00000000000E+00  0.45593999997E+02  0.45594000000E+02  0.51100000000E-03 0. -1.
         11   -1    0    0    0    0 -0.00000000000E+00 -0.00000000000E+00 -0.45593999997E+02  0.45594000000E+02  0.51100000000E-03 0.  1.
         23    2    1    2    0    0 -0.44408920985E-15  0.00000000000E+00 -0.35527136788E-14  0.91188000000E+02  0.91188000000E+02 0.  0.
    9900012    2    3    3    0    0  0.34959756704E+01 -0.33428464853E+02  0.15036500188E+02  0.54367075973E+02  0.39999981296E+02 0.  0.
        -12    1    3    3    0    0 -0.34959756704E+01  0.33428464853E+02 -0.15036500188E+02  0.36820924027E+02  0.00000000000E+00 0.  1.
         11    1    4    4    0    0  0.36567740379E+01  0.42819696267E+01 -0.92222215854E+00  0.57059402572E+01  0.51100000000E-03 0. -1.
        -11    1    4    4    0    0 -0.35066375922E+01 -0.60119802910E+01 -0.66155612672E+01  0.96023989379E+01  0.51100000000E-03 0.  1.
        -12    1    4    4    0    0  0.33458392247E+01 -0.31698454188E+02  0.22574283613E+02  0.39058736778E+02  0.00000000000E+00 0.  1.
</event>
<event>
 8    1  0.2500956E-006  0.9118800E+02  0.7816164E-02  0.1184000E+00
        -11   -1    0    0    0    0  0.00000000000E+00  0.00000000000E+00  0.45593999997E+02  0.45594000000E+02  0.51100000000E-03 0.  1.
         11   -1    0    0    0    0 -0.00000000000E+00 -0.00000000000E+00 -0.45593999997E+02  0.45594000000E+02  0.51100000000E-03 0. -1.
         23    2    1    2    0    0  0.35527136788E-14  0.35527136788E-14  0.00000000000E+00  0.91188000000E+02  0.91188000000E+02 0.  0.
    9900012    2    3    3    0    0  0.28288268540E+02  0.23015474078E+02  0.50834410496E+01  0.54367088048E+02  0.40000008823E+02 0.  0.
        -12    1    3    3    0    0 -0.28288268540E+02 -0.23015474078E+02 -0.50834410496E+01  0.36820911952E+02  0.00000000000E+00 0.  1.
         11    1    4    4    0    0  0.17185934349E+02  0.17201945343E+02 -0.11628097950E+02  0.26953217344E+02  0.51100000000E-03 0. -1.
        -11    1    4    4    0    0 -0.48219599938E+00 -0.33316584493E+01  0.11140794793E+02  0.11638288958E+02  0.51100000000E-03 0.  1.
        -12    1    4    4    0    0  0.11584530191E+02  0.91451871846E+01  0.55707442069E+01  0.15775581745E+02  0.00000000000E+00 0.  1.
</event>
<event>
 8    1  0.2500956E-006  0.9118800E+02  0.7816164E-02  0.1184000E+00
        -11   -1    0    0    0    0  0.00000000000E+00  0.00000000000E+00  0.45593999997E+02  0.45594000000E+02  0.51100000000E-03 0.  1.
         11   -1    0    0    0    0 -0.00000000000E+00 -0.00000000000E+00 -0.45593999997E+02  0.45594000000E+02  0.51100000000E-03 0. -1.
         23    2    1    2    0    0 -0.88817841970E-15  0.00000000000E+00  0.00000000000E+00  0.91188000000E+02  0.91188000000E+02 0.  0.
    9900012    2    3    3    0    0  0.47321308086E+01  0.26425931756E+02 -0.25200339123E+02  0.54367081719E+02  0.39999994394E+02 0.  0.
        -12    1    3    3    0    0 -0.47321308086E+01 -0.26425931756E+02  0.25200339123E+02  0.36820918281E+02  0.00000000000E+00 0.  1.
         11    1    4    4    0    0 -0.82392932092E+00  0.20500121869E+02 -0.11640918179E+02  0.23589082909E+02  0.51100000000E-03 0. -1.
        -11    1    4    4    0    0 -0.40203389644E+01  0.11301304252E+02 -0.15527530859E+02  0.19621080960E+02  0.51100000000E-03 0.  1.
         12    1    4    4    0    0  0.95763990939E+01 -0.53754943654E+01  0.19681099147E+01  0.11156917850E+02  0.00000000000E+00 0. -1.
</event>
<event>
 8    1  0.2500956E-006  0.9118800E+02  0.7816164E-02  0.1184000E+00
        -11   -1    0    0    0    0  0.00000000000E+00  0.00000000000E+00  0.45593999997E+02  0.45594000000E+02  0.51100000000E-03 0.  1.
         11   -1    0    0    0    0 -0.00000000000E+00 -0.00000000000E+00 -0.45593999997E+02  0.45594000000E+02  0.51100000000E-03 0. -1.
         23    2    1    2    0    0  0.00000000000E+00  0.00000000000E+00 -0.71054273576E-14  0.91188000000E+02  0.91188000000E+02 0.  0.
    9900012    2    3    3    0    0 -0.12758706794E+02 -0.10519186518E+02  0.32898968617E+02  0.54367081759E+02  0.39999994487E+02 0.  0.
         12    1    3    3    0    0  0.12758706794E+02  0.10519186518E+02 -0.32898968617E+02  0.36820918241E+02  0.00000000000E+00 0. -1.
         11    1    4    4    0    0 -0.60288781556E+01  0.43637662840E+00  0.14362815731E+01  0.62129462733E+01  0.51100000000E-03 0. -1.
        -11    1    4    4    0    0  0.31774413699E+00 -0.60200867601E+01  0.37282512390E+02  0.37766759675E+02  0.51100000000E-03 0.  1.
        -12    1    4    4    0    0 -0.70475727751E+01 -0.49354763861E+01 -0.58198253466E+01  0.10387375811E+02  0.00000000000E+00 0.  1.
</event>
<event>
 8    1  0.2500956E-006  0.9118800E+02  0.7816164E-02  0.1184000E+00
        -11   -1    0    0    0    0  0.00000000000E+00  0.00000000000E+00  0.45593999997E+02  0.45594000000E+02  0.51100000000E-03 0. -1.
         11   -1    0    0    0    0 -0.00000000000E+00 -0.00000000000E+00 -0.45593999997E+02  0.45594000000E+02  0.51100000000E-03 0.  1.
         23    2    1    2    0    0 -0.35527136788E-14 -0.44408920985E-15  0.00000000000E+00  0.91188000000E+02  0.91188000000E+02 0.  0.
    9900012    2    3    3    0    0  0.18319337235E+02  0.12645470258E+01 -0.31915236583E+02  0.54367088522E+02  0.40000009905E+02 0.  0.
         12    1    3    3    0    0 -0.18319337235E+02 -0.12645470258E+01  0.31915236583E+02  0.36820911478E+02  0.00000000000E+00 0. -1.
         11    1    4    4    0    0  0.76942454874E+01 -0.69309322596E+01  0.34380642740E+01  0.10911439952E+02  0.51100000000E-03 0. -1.
        -11    1    4    4    0    0 -0.29122185475E+01 -0.53218174100E+01 -0.99697792623E+01  0.11670443703E+02  0.51100000000E-03 0.  1.
        -12    1    4    4    0    0  0.13537310295E+02  0.13517296695E+02 -0.25383521594E+02  0.31785204868E+02  0.00000000000E+00 0.  1.
</event>
<event>
 8    1  0.2500956E-006  0.9118800E+02  0.7816164E-02  0.1184000E+00
        -11   -1    0    0    0    0  0.00000000000E+00  0.00000000000E+00  0.45593999997E+02  0.45594000000E+02  0.51100000000E-03 0. -1.
         11   -1    0    0    0    0 -0.00000000000E+00 -0.00000000000E+00 -0.45593999997E+02  0.45594000000E+02  0.51100000000E-03 0.  1.
         23    2    1    2    0    0 -0.35527136788E-14 -0.35527136788E-14  0.00000000000E+00  0.91188000000E+02  0.91188000000E+02 0.  0.
    9900012    2    3    3    0    0 -0.26473675747E+02  0.21835089986E+02 -0.13347419861E+02  0.54367078241E+02  0.39999986467E+02 0.  0.
         12    1    3    3    0    0  0.26473675747E+02 -0.21835089986E+02  0.13347419861E+02  0.36820921759E+02  0.00000000000E+00 0. -1.
         11    1    4    4    0    0  0.81743492852E+01 -0.12218572557E+01 -0.50592970017E+01  0.96906866528E+01  0.51100000000E-03 0. -1.
        -11    1    4    4    0    0 -0.21178235070E+02  0.20369299000E+02 -0.16745568772E+01  0.29431787636E+02  0.51100000000E-03 0.  1.
         12    1    4    4    0    0 -0.13469789962E+02  0.26876482417E+01 -0.66135659819E+01  0.15244603953E+02  0.00000000000E+00 0. -1.
</event>
<event>
 8    1  0.2500956E-006  0.9118800E+02  0.7816164E-02  0.1184000E+00
        -11   -1    0    0    0    0  0.00000000000E+00  0.00000000000E+00  0.45593999997E+02  0.45594000000E+02  0.51100000000E-03 0.  1.
         11   -1    0    0    0    0 -0.00000000000E+00 -0.00000000000E+00 -0.45593999997E+02  0.45594000000E+02  0.51100000000E-03 0. -1.
         23    2    1    2    0    0  0.00000000000E+00  0.35527136788E-14 -0.88817841970E-15  0.91188000000E+02  0.91188000000E+02 0.  0.
    9900012    2    3    3    0    0  0.29542050016E+02  0.20842886615E+02 -0.69729204930E+01  0.54367078478E+02  0.39999987005E+02 0.  0.
        -12    1    3    3    0    0 -0.29542050016E+02 -0.20842886615E+02  0.69729204930E+01  0.36820921522E+02  0.00000000000E+00 0.  1.
         11    1    4    4    0    0  0.53398234325E+01 -0.44828477306E+01 -0.24552475857E+01  0.73917439779E+01  0.51100000000E-03 0.  1.
        -11    1    4    4    0    0  0.19880657578E+01  0.11922353804E+02 -0.14764117888E+02  0.19080725955E+02  0.51100000000E-03 0. -1.
        -12    1    4    4    0    0  0.22214160825E+02  0.13403380541E+02  0.10246444981E+02  0.27894608544E+02  0.00000000000E+00 0.  1.
</event>
<event>
 8    1  0.2500956E-006  0.9118800E+02  0.7816164E-02  0.1184000E+00
        -11   -1    0    0    0    0  0.00000000000E+00  0.00000000000E+00  0.45593999997E+02  0.45594000000E+02  0.51100000000E-03 0. -1.
         11   -1    0    0    0    0 -0.00000000000E+00 -0.00000000000E+00 -0.45593999997E+02  0.45594000000E+02  0.51100000000E-03 0.  1.
         23    2    1    2    0    0 -0.88817841970E-15  0.71054273576E-14  0.00000000000E+00  0.91188000000E+02  0.91188000000E+02 0.  0.
    9900012    2    3    3    0    0  0.60269835208E+01 -0.32649823380E+02  0.15919956750E+02  0.54367074971E+02  0.39999979012E+02 0.  0.
        -12    1    3    3    0    0 -0.60269835208E+01  0.32649823380E+02 -0.15919956750E+02  0.36820925029E+02  0.00000000000E+00 0.  1.
         11    1    4    4    0    0  0.29126417341E+01 -0.15916413656E+02  0.17252473467E+02  0.23652981768E+02  0.51100000000E-03 0. -1.
        -11    1    4    4    0    0 -0.28095626782E+01 -0.25322476000E+01  0.10592092341E+02  0.11247148117E+02  0.51100000000E-03 0.  1.
        -12    1    4    4    0    0  0.59239044650E+01 -0.14201162123E+02 -0.11924609058E+02  0.19466945085E+02  0.00000000000E+00 0.  1.
</event>
<event>
 8    1  0.2500956E-006  0.9118800E+02  0.7816164E-02  0.1184000E+00
        -11   -1    0    0    0    0  0.00000000000E+00  0.00000000000E+00  0.45593999997E+02  0.45594000000E+02  0.51100000000E-03 0. -1.
         11   -1    0    0    0    0 -0.00000000000E+00 -0.00000000000E+00 -0.45593999997E+02  0.45594000000E+02  0.51100000000E-03 0.  1.
         23    2    1    2    0    0 -0.17763568394E-14 -0.88817841970E-15  0.00000000000E+00  0.91188000000E+02  0.91188000000E+02 0.  0.
    9900012    2    3    3    0    0 -0.15491386841E+02 -0.42472447291E+01  0.33132426662E+02  0.54367084061E+02  0.39999999734E+02 0.  0.
        -12    1    3    3    0    0  0.15491386841E+02  0.42472447291E+01 -0.33132426662E+02  0.36820915939E+02  0.00000000000E+00 0.  1.
         11    1    4    4    0    0 -0.18048565978E+02 -0.10476651174E+02  0.37011693290E+02  0.42489721041E+02  0.51100000000E-03 0. -1.
        -11    1    4    4    0    0  0.39578185141E+01  0.66594065677E+01 -0.17249764356E-01  0.77467619713E+01  0.51100000000E-03 0.  1.
         12    1    4    4    0    0 -0.14006393779E+01 -0.43000012315E+00 -0.38620168637E+01  0.41306010493E+01  0.00000000000E+00 0. -1.
</event>
<event>
 8    1  0.2500956E-006  0.9118800E+02  0.7816164E-02  0.1184000E+00
        -11   -1    0    0    0    0  0.00000000000E+00  0.00000000000E+00  0.45593999997E+02  0.45594000000E+02  0.51100000000E-03 0. -1.
         11   -1    0    0    0    0 -0.00000000000E+00 -0.00000000000E+00 -0.45593999997E+02  0.45594000000E+02  0.51100000000E-03 0.  1.
         23    2    1    2    0    0 -0.35527136788E-14  0.00000000000E+00  0.00000000000E+00  0.91188000000E+02  0.91188000000E+02 0.  0.
    9900012    2    3    3    0    0 -0.23955874705E+02  0.23359522414E+02 -0.15369766123E+02  0.54367069391E+02  0.39999966290E+02 0.  0.
         12    1    3    3    0    0  0.23955874705E+02 -0.23359522414E+02  0.15369766123E+02  0.36820930609E+02  0.00000000000E+00 0. -1.
         11    1    4    4    0    0  0.95726303252E+01  0.12881797037E+01 -0.28632930694E+01  0.10074378678E+02  0.51100000000E-03 0. -1.
        -11    1    4    4    0    0 -0.20787909930E+02  0.12455817962E+02 -0.14446720743E+02  0.28213336224E+02  0.51100000000E-03 0.  1.
        -12    1    4    4    0    0 -0.12740595100E+02  0.96155247478E+01  0.19402476898E+01  0.16079354489E+02  0.00000000000E+00 0.  1.
</event>
<event>
 8    1  0.2500956E-006  0.9118800E+02  0.7816164E-02  0.1184000E+00
        -11   -1    0    0    0    0  0.00000000000E+00  0.00000000000E+00  0.45593999997E+02  0.45594000000E+02  0.51100000000E-03 0. -1.
         11   -1    0    0    0    0 -0.00000000000E+00 -0.00000000000E+00 -0.45593999997E+02  0.45594000000E+02  0.51100000000E-03 0.  1.
         23    2    1    2    0    0  0.00000000000E+00 -0.35527136788E-14  0.35527136788E-14  0.91188000000E+02  0.91188000000E+02 0.  0.
    9900012    2    3    3    0    0 -0.10520658288E+02  0.31084166398E+02  0.16699422629E+02  0.54367077040E+02  0.39999983729E+02 0.  0.
        -12    1    3    3    0    0  0.10520658288E+02 -0.31084166398E+02 -0.16699422629E+02  0.36820922960E+02  0.00000000000E+00 0.  1.
         11    1    4    4    0    0 -0.30340708551E+01 -0.12166749165E+01  0.13175443166E+02  0.13574910191E+02  0.51100000000E-03 0.  1.
        -11    1    4    4    0    0  0.17287677062E+01  0.31065751108E+02  0.45231841817E+01  0.31440876659E+02  0.51100000000E-03 0. -1.
        -12    1    4    4    0    0 -0.92153551390E+01  0.12350902067E+01 -0.99920471885E+00  0.93512901904E+01  0.00000000000E+00 0.  1.
</event>
<event>
 8    1  0.2500956E-006  0.9118800E+02  0.7816164E-02  0.1184000E+00
        -11   -1    0    0    0    0  0.00000000000E+00  0.00000000000E+00  0.45593999997E+02  0.45594000000E+02  0.51100000000E-03 0. -1.
         11   -1    0    0    0    0 -0.00000000000E+00 -0.00000000000E+00 -0.45593999997E+02  0.45594000000E+02  0.51100000000E-03 0.  1.
         23    2    1    2    0    0  0.00000000000E+00  0.00000000000E+00  0.00000000000E+00  0.91188000000E+02  0.91188000000E+02 0.  0.
    9900012    2    3    3    0    0  0.35138451611E+02  0.60865572944E+01  0.91664641810E+01  0.54367068088E+02  0.39999963320E+02 0.  0.
        -12    1    3    3    0    0 -0.35138451611E+02 -0.60865572944E+01 -0.91664641810E+01  0.36820931912E+02  0.00000000000E+00 0.  1.
         11    1    4    4    0    0  0.33312942487E+02 -0.77082494288E+00  0.17817250405E+02  0.37786250416E+02  0.51100000000E-03 0. -1.
        -11    1    4    4    0    0  0.58780425078E+01  0.24769146331E+01 -0.84795677948E+01  0.10610822780E+02  0.51100000000E-03 0.  1.
         12    1    4    4    0    0 -0.40525333840E+01  0.43804676041E+01 -0.17121842875E+00  0.59699948919E+01  0.00000000000E+00 0. -1.
</event>
<event>
 8    1  0.2500956E-006  0.9118800E+02  0.7816164E-02  0.1184000E+00
        -11   -1    0    0    0    0  0.00000000000E+00  0.00000000000E+00  0.45593999997E+02  0.45594000000E+02  0.51100000000E-03 0. -1.
         11   -1    0    0    0    0 -0.00000000000E+00 -0.00000000000E+00 -0.45593999997E+02  0.45594000000E+02  0.51100000000E-03 0.  1.
         23    2    1    2    0    0  0.00000000000E+00  0.00000000000E+00  0.00000000000E+00  0.91188000000E+02  0.91188000000E+02 0.  0.
    9900012    2    3    3    0    0  0.10258539632E+02 -0.14755100574E+02 -0.32137673956E+02  0.54367072314E+02  0.39999972955E+02 0.  0.
         12    1    3    3    0    0 -0.10258539632E+02  0.14755100574E+02  0.32137673956E+02  0.36820927686E+02  0.00000000000E+00 0. -1.
         11    1    4    4    0    0 -0.31970560896E+01 -0.68647099170E+01 -0.15601963743E+02  0.17342626179E+02  0.51100000000E-03 0. -1.
        -11    1    4    4    0    0  0.14923944689E+02 -0.18861280648E+01 -0.23380581693E+02  0.27801676293E+02  0.51100000000E-03 0.  1.
         12    1    4    4    0    0 -0.14683489670E+01 -0.60042625923E+01  0.68448714807E+01  0.92227698417E+01  0.00000000000E+00 0. -1.
</event>
<event>
 8    1  0.2500956E-006  0.9118800E+02  0.7816164E-02  0.1184000E+00
        -11   -1    0    0    0    0  0.00000000000E+00  0.00000000000E+00  0.45593999997E+02  0.45594000000E+02  0.51100000000E-03 0.  1.
         11   -1    0    0    0    0 -0.00000000000E+00 -0.00000000000E+00 -0.45593999997E+02  0.45594000000E+02  0.51100000000E-03 0. -1.
         23    2    1    2    0    0  0.00000000000E+00  0.00000000000E+00  0.00000000000E+00  0.91188000000E+02  0.91188000000E+02 0.  0.
    9900012    2    3    3    0    0 -0.15945575369E+02 -0.28439818117E+02 -0.17108317974E+02  0.54367093272E+02  0.40000020732E+02 0.  0.
         12    1    3    3    0    0  0.15945575369E+02  0.28439818117E+02  0.17108317974E+02  0.36820906728E+02  0.00000000000E+00 0. -1.
         11    1    4    4    0    0 -0.18435195211E+01 -0.19033425162E+02 -0.14985025739E+02  0.24294460979E+02  0.51100000000E-03 0. -1.
        -11    1    4    4    0    0  0.77372544429E+00 -0.99461660474E+01 -0.92178546727E+01  0.13582846356E+02  0.51100000000E-03 0.  1.
         12    1    4    4    0    0 -0.14875781292E+02  0.53977309267E+00  0.70945624376E+01  0.16489785936E+02  0.00000000000E+00 0. -1.
</event>
<event>
 8    1  0.2500956E-006  0.9118800E+02  0.7816164E-02  0.1184000E+00
        -11   -1    0    0    0    0  0.00000000000E+00  0.00000000000E+00  0.45593999997E+02  0.45594000000E+02  0.51100000000E-03 0. -1.
         11   -1    0    0    0    0 -0.00000000000E+00 -0.00000000000E+00 -0.45593999997E+02  0.45594000000E+02  0.51100000000E-03 0.  1.
         23    2    1    2    0    0  0.00000000000E+00  0.00000000000E+00  0.00000000000E+00  0.91188000000E+02  0.91188000000E+02 0.  0.
    9900012    2    3    3    0    0 -0.85661528128E+01 -0.24555275269E+02 -0.26065960725E+02  0.54367152290E+02  0.40000155276E+02 0.  0.
         12    1    3    3    0    0  0.85661528128E+01  0.24555275269E+02  0.26065960725E+02  0.36820847710E+02  0.00000000000E+00 0. -1.
         11    1    4    4    0    0 -0.85757313841E+01 -0.11637330449E+02  0.18991963005E+01  0.14580040316E+02  0.51100000000E-03 0. -1.
        -11    1    4    4    0    0 -0.97553711056E+00 -0.16781541972E+01 -0.28428530278E+02  0.28494722462E+02  0.51100000000E-03 0.  1.
         12    1    4    4    0    0  0.98511568190E+00 -0.11239790622E+02  0.46337325221E+00  0.11292389513E+02  0.00000000000E+00 0. -1.
</event>
<event>
 8    1  0.2500956E-006  0.9118800E+02  0.7816164E-02  0.1184000E+00
        -11   -1    0    0    0    0  0.00000000000E+00  0.00000000000E+00  0.45593999997E+02  0.45594000000E+02  0.51100000000E-03 0.  1.
         11   -1    0    0    0    0 -0.00000000000E+00 -0.00000000000E+00 -0.45593999997E+02  0.45594000000E+02  0.51100000000E-03 0. -1.
         23    2    1    2    0    0  0.35527136788E-14  0.35527136788E-14  0.00000000000E+00  0.91188000000E+02  0.91188000000E+02 0.  0.
    9900012    2    3    3    0    0 -0.16479287139E+02 -0.27993349239E+02 -0.17337389171E+02  0.54367087878E+02  0.40000008436E+02 0.  0.
        -12    1    3    3    0    0  0.16479287139E+02  0.27993349239E+02  0.17337389171E+02  0.36820912122E+02  0.00000000000E+00 0.  1.
         11    1    4    4    0    0  0.28943362414E+01  0.48653138358E+00 -0.20385602893E+01  0.35734609806E+01  0.51100000000E-03 0. -1.
        -11    1    4    4    0    0  0.83575147122E+01 -0.53278130450E+01 -0.10351227169E+02  0.14331139109E+02  0.51100000000E-03 0.  1.
         12    1    4    4    0    0 -0.27731138093E+02 -0.23152067577E+02 -0.49476017130E+01  0.36462487788E+02  0.00000000000E+00 0. -1.
</event>
<event>
 8    1  0.2500956E-006  0.9118800E+02  0.7816164E-02  0.1184000E+00
        -11   -1    0    0    0    0  0.00000000000E+00  0.00000000000E+00  0.45593999997E+02  0.45594000000E+02  0.51100000000E-03 0.  1.
         11   -1    0    0    0    0 -0.00000000000E+00 -0.00000000000E+00 -0.45593999997E+02  0.45594000000E+02  0.51100000000E-03 0. -1.
         23    2    1    2    0    0  0.00000000000E+00 -0.35527136788E-14 -0.17763568394E-14  0.91188000000E+02  0.91188000000E+02 0.  0.
    9900012    2    3    3    0    0  0.29433787000E+02  0.15897877326E+02  0.15384736851E+02  0.54367075940E+02  0.39999981220E+02 0.  0.
         12    1    3    3    0    0 -0.29433787000E+02 -0.15897877326E+02 -0.15384736851E+02  0.36820924060E+02  0.00000000000E+00 0. -1.
         11    1    4    4    0    0  0.10153614522E+02 -0.99259645261E+01  0.36300452423E+01  0.14655984728E+02  0.51100000000E-03 0. -1.
        -11    1    4    4    0    0  0.21024786214E+02  0.21053640812E+02  0.15357744090E+02  0.33483693503E+02  0.51100000000E-03 0.  1.
        -12    1    4    4    0    0 -0.17446137353E+01  0.47702010398E+01 -0.36030524810E+01  0.62273977090E+01  0.00000000000E+00 0.  1.
</event>
<event>
 8    1  0.2500956E-006  0.9118800E+02  0.7816164E-02  0.1184000E+00
        -11   -1    0    0    0    0  0.00000000000E+00  0.00000000000E+00  0.45593999997E+02  0.45594000000E+02  0.51100000000E-03 0. -1.
         11   -1    0    0    0    0 -0.00000000000E+00 -0.00000000000E+00 -0.45593999997E+02  0.45594000000E+02  0.51100000000E-03 0.  1.
         23    2    1    2    0    0  0.44408920985E-15  0.00000000000E+00  0.00000000000E+00  0.91188000000E+02  0.91188000000E+02 0.  0.
    9900012    2    3    3    0    0 -0.18711994702E+01  0.33244862456E+02  0.15718050526E+02  0.54367090458E+02  0.40000014317E+02 0.  0.
        -12    1    3    3    0    0  0.18711994702E+01 -0.33244862456E+02 -0.15718050526E+02  0.36820909542E+02  0.00000000000E+00 0.  1.
         11    1    4    4    0    0 -0.14271372695E+02  0.38475862424E+01  0.90781318594E+01  0.17346137230E+02  0.51100000000E-03 0. -1.
        -11    1    4    4    0    0  0.50654448790E+01 -0.41162906322E+00  0.34827829543E+01  0.61610021649E+01  0.51100000000E-03 0.  1.
        -12    1    4    4    0    0  0.73347283461E+01  0.29808905277E+02  0.31571357121E+01  0.30859951063E+02  0.00000000000E+00 0.  1.
</event>
<event>
 8    1  0.2500956E-006  0.9118800E+02  0.7816164E-02  0.1184000E+00
        -11   -1    0    0    0    0  0.00000000000E+00  0.00000000000E+00  0.45593999997E+02  0.45594000000E+02  0.51100000000E-03 0. -1.
         11   -1    0    0    0    0 -0.00000000000E+00 -0.00000000000E+00 -0.45593999997E+02  0.45594000000E+02  0.51100000000E-03 0.  1.
         23    2    1    2    0    0  0.35527136788E-14  0.88817841970E-15  0.71054273576E-14  0.91188000000E+02  0.91188000000E+02 0.  0.
    9900012    2    3    3    0    0  0.26534981602E+02 -0.12977298443E+01  0.25494916762E+02  0.54367080239E+02  0.39999991020E+02 0.  0.
        -12    1    3    3    0    0 -0.26534981602E+02  0.12977298443E+01 -0.25494916762E+02  0.36820919761E+02  0.00000000000E+00 0.  1.
         11    1    4    4    0    0  0.14161337941E+02  0.53852056089E+01  0.17528114071E+02  0.23168485382E+02  0.51100000000E-03 0. -1.
        -11    1    4    4    0    0 -0.56016185487E+01 -0.66129492439E+01 -0.40604543111E+01  0.95706069578E+01  0.51100000000E-03 0.  1.
        -12    1    4    4    0    0  0.17975262210E+02 -0.69986209331E-01  0.12027257001E+02  0.21627987899E+02  0.00000000000E+00 0.  1.
</event>
<event>
 8    1  0.2500956E-006  0.9118800E+02  0.7816164E-02  0.1184000E+00
        -11   -1    0    0    0    0  0.00000000000E+00  0.00000000000E+00  0.45593999997E+02  0.45594000000E+02  0.51100000000E-03 0. -1.
         11   -1    0    0    0    0 -0.00000000000E+00 -0.00000000000E+00 -0.45593999997E+02  0.45594000000E+02  0.51100000000E-03 0.  1.
         23    2    1    2    0    0  0.00000000000E+00 -0.35527136788E-14  0.17763568394E-14  0.91188000000E+02  0.91188000000E+02 0.  0.
    9900012    2    3    3    0    0 -0.23176754251E+02  0.26379263918E+02 -0.11079425512E+02  0.54367066115E+02  0.39999958823E+02 0.  0.
        -12    1    3    3    0    0  0.23176754251E+02 -0.26379263918E+02  0.11079425512E+02  0.36820933885E+02  0.00000000000E+00 0.  1.
         11    1    4    4    0    0  0.19215888264E+01  0.94947460878E+01 -0.12237475367E+02  0.15607642695E+02  0.51100000000E-03 0. -1.
        -11    1    4    4    0    0 -0.21942097647E+02  0.92297567187E+01 -0.91811088289E+01  0.25513463462E+02  0.51100000000E-03 0.  1.
         12    1    4    4    0    0 -0.31562454300E+01  0.76547611117E+01  0.10339158684E+02  0.13245959957E+02  0.00000000000E+00 0. -1.
</event>
<event>
 8    1  0.2500956E-006  0.9118800E+02  0.7816164E-02  0.1184000E+00
        -11   -1    0    0    0    0  0.00000000000E+00  0.00000000000E+00  0.45593999997E+02  0.45594000000E+02  0.51100000000E-03 0.  1.
         11   -1    0    0    0    0 -0.00000000000E+00 -0.00000000000E+00 -0.45593999997E+02  0.45594000000E+02  0.51100000000E-03 0. -1.
         23    2    1    2    0    0  0.00000000000E+00  0.00000000000E+00  0.00000000000E+00  0.91188000000E+02  0.91188000000E+02 0.  0.
    9900012    2    3    3    0    0 -0.24471717049E+02  0.41581311641E+01 -0.27196054957E+02  0.54367076664E+02  0.39999982872E+02 0.  0.
        -12    1    3    3    0    0  0.24471717049E+02 -0.41581311641E+01  0.27196054957E+02  0.36820923336E+02  0.00000000000E+00 0.  1.
         11    1    4    4    0    0 -0.11967327230E+02  0.10647777755E+02 -0.18792162954E+02  0.24692862954E+02  0.51100000000E-03 0. -1.
        -11    1    4    4    0    0 -0.16363401165E+02  0.86406279694E+00  0.18373850944E+01  0.16488889789E+02  0.51100000000E-03 0.  1.
         12    1    4    4    0    0  0.38590113466E+01 -0.73537093874E+01 -0.10241277097E+02  0.13185323921E+02  0.00000000000E+00 0. -1.
</event>
<event>
 8    1  0.2500956E-006  0.9118800E+02  0.7816164E-02  0.1184000E+00
        -11   -1    0    0    0    0  0.00000000000E+00  0.00000000000E+00  0.45593999997E+02  0.45594000000E+02  0.51100000000E-03 0.  1.
         11   -1    0    0    0    0 -0.00000000000E+00 -0.00000000000E+00 -0.45593999997E+02  0.45594000000E+02  0.51100000000E-03 0. -1.
         23    2    1    2    0    0 -0.35527136788E-14 -0.35527136788E-14  0.00000000000E+00  0.91188000000E+02  0.91188000000E+02 0.  0.
    9900012    2    3    3    0    0 -0.27279223052E+02  0.16038407855E+02  0.18825363862E+02  0.54367070335E+02  0.39999968443E+02 0.  0.
        -12    1    3    3    0    0  0.27279223052E+02 -0.16038407855E+02 -0.18825363862E+02  0.36820929665E+02  0.00000000000E+00 0.  1.
         11    1    4    4    0    0 -0.24070032139E+02  0.87785403765E-01  0.16886424484E+02  0.29402814245E+02  0.51100000000E-03 0. -1.
        -11    1    4    4    0    0  0.34437265389E+01 -0.27873341549E+01 -0.17086849040E+01  0.47484827607E+01  0.51100000000E-03 0.  1.
        -12    1    4    4    0    0 -0.66529174521E+01  0.18737956606E+02  0.36476242822E+01  0.20215773330E+02  0.00000000000E+00 0.  1.
</event>
<event>
 8    1  0.2500956E-006  0.9118800E+02  0.7816164E-02  0.1184000E+00
        -11   -1    0    0    0    0  0.00000000000E+00  0.00000000000E+00  0.45593999997E+02  0.45594000000E+02  0.51100000000E-03 0.  1.
         11   -1    0    0    0    0 -0.00000000000E+00 -0.00000000000E+00 -0.45593999997E+02  0.45594000000E+02  0.51100000000E-03 0. -1.
         23    2    1    2    0    0  0.00000000000E+00  0.00000000000E+00 -0.35527136788E-14  0.91188000000E+02  0.91188000000E+02 0.  0.
    9900012    2    3    3    0    0 -0.17799169553E+02  0.19904275474E+02  0.25353291872E+02  0.54367081656E+02  0.39999994251E+02 0.  0.
         12    1    3    3    0    0  0.17799169553E+02 -0.19904275474E+02 -0.25353291872E+02  0.36820918344E+02  0.00000000000E+00 0. -1.
         11    1    4    4    0    0 -0.78637623466E+01 -0.38022304647E+01  0.84134277604E+01  0.12127715436E+02  0.51100000000E-03 0. -1.
        -11    1    4    4    0    0 -0.66747640859E+00  0.43256107033E+00  0.17168539937E+02  0.17186954287E+02  0.51100000000E-03 0.  1.
         12    1    4    4    0    0 -0.92679307980E+01  0.23273944869E+02 -0.22867582520E+00  0.25052411933E+02  0.00000000000E+00 0. -1.
</event>
<event>
 8    1  0.2500956E-006  0.9118800E+02  0.7816164E-02  0.1184000E+00
        -11   -1    0    0    0    0  0.00000000000E+00  0.00000000000E+00  0.45593999997E+02  0.45594000000E+02  0.51100000000E-03 0.  1.
         11   -1    0    0    0    0 -0.00000000000E+00 -0.00000000000E+00 -0.45593999997E+02  0.45594000000E+02  0.51100000000E-03 0. -1.
         23    2    1    2    0    0  0.17763568394E-14  0.00000000000E+00  0.00000000000E+00  0.91188000000E+02  0.91188000000E+02 0.  0.
    9900012    2    3    3    0    0 -0.68588198902E+01  0.13685361059E+02 -0.33488017363E+02  0.54367084415E+02  0.40000000541E+02 0.  0.
        -12    1    3    3    0    0  0.68588198902E+01 -0.13685361059E+02  0.33488017363E+02  0.36820915585E+02  0.00000000000E+00 0.  1.
         11    1    4    4    0    0 -0.51869031321E+01 -0.20609431409E+01  0.40892770594E+01  0.69190778187E+01  0.51100000000E-03 0.  1.
        -11    1    4    4    0    0 -0.12185192234E+02  0.83678080469E+01 -0.27113616256E+02  0.30881180483E+02  0.51100000000E-03 0. -1.
        -12    1    4    4    0    0  0.10513275476E+02  0.73784961528E+01 -0.10463678167E+02  0.16566826114E+02  0.00000000000E+00 0.  1.
</event>
<event>
 8    1  0.2500956E-006  0.9118800E+02  0.7816164E-02  0.1184000E+00
        -11   -1    0    0    0    0  0.00000000000E+00  0.00000000000E+00  0.45593999997E+02  0.45594000000E+02  0.51100000000E-03 0.  1.
         11   -1    0    0    0    0 -0.00000000000E+00 -0.00000000000E+00 -0.45593999997E+02  0.45594000000E+02  0.51100000000E-03 0. -1.
         23    2    1    2    0    0 -0.35527136788E-14  0.00000000000E+00 -0.35527136788E-14  0.91188000000E+02  0.91188000000E+02 0.  0.
    9900012    2    3    3    0    0 -0.16977368596E+02  0.23482517431E+02 -0.22718286486E+02  0.54367079177E+02  0.39999988601E+02 0.  0.
        -12    1    3    3    0    0  0.16977368596E+02 -0.23482517431E+02  0.22718286486E+02  0.36820920823E+02  0.00000000000E+00 0.  1.
         11    1    4    4    0    0  0.36228162499E+01  0.83902846705E+01 -0.15891781859E+02  0.18332223142E+02  0.51100000000E-03 0. -1.
        -11    1    4    4    0    0  0.36121005303E+00 -0.47574678902E+01 -0.52924945759E+01  0.71256208519E+01  0.51100000000E-03 0.  1.
        -12    1    4    4    0    0 -0.20961394899E+02  0.19849700651E+02 -0.15340100516E+01  0.28909235183E+02  0.00000000000E+00 0.  1.
</event>
<event>
 8    1  0.2500956E-006  0.9118800E+02  0.7816164E-02  0.1184000E+00
        -11   -1    0    0    0    0  0.00000000000E+00  0.00000000000E+00  0.45593999997E+02  0.45594000000E+02  0.51100000000E-03 0.  1.
         11   -1    0    0    0    0 -0.00000000000E+00 -0.00000000000E+00 -0.45593999997E+02  0.45594000000E+02  0.51100000000E-03 0. -1.
         23    2    1    2    0    0 -0.35527136788E-14  0.00000000000E+00 -0.35527136788E-14  0.91188000000E+02  0.91188000000E+02 0.  0.
    9900012    2    3    3    0    0 -0.21478249037E+02 -0.82684337917E+01 -0.28741910084E+02  0.54367087812E+02  0.40000008285E+02 0.  0.
        -12    1    3    3    0    0  0.21478249037E+02  0.82684337917E+01  0.28741910084E+02  0.36820912188E+02  0.00000000000E+00 0.  1.
         11    1    4    4    0    0 -0.18152177558E+02  0.13817953423E+02 -0.11126589235E+02  0.25381851295E+02  0.51100000000E-03 0. -1.
        -11    1    4    4    0    0 -0.18173634158E+01 -0.91753111952E+01 -0.10870097305E+02  0.14340437964E+02  0.51100000000E-03 0.  1.
        -12    1    4    4    0    0 -0.15087080634E+01 -0.12911076020E+02 -0.67452235439E+01  0.14644798553E+02  0.00000000000E+00 0.  1.
</event>
<event>
 8    1  0.2500956E-006  0.9118800E+02  0.7816164E-02  0.1184000E+00
        -11   -1    0    0    0    0  0.00000000000E+00  0.00000000000E+00  0.45593999997E+02  0.45594000000E+02  0.51100000000E-03 0.  1.
         11   -1    0    0    0    0 -0.00000000000E+00 -0.00000000000E+00 -0.45593999997E+02  0.45594000000E+02  0.51100000000E-03 0. -1.
         23    2    1    2    0    0  0.88817841970E-15  0.00000000000E+00  0.00000000000E+00  0.91188000000E+02  0.91188000000E+02 0.  0.
    9900012    2    3    3    0    0  0.52231028775E+01 -0.27256420590E+01 -0.36346525471E+02  0.54367084176E+02  0.39999999995E+02 0.  0.
        -12    1    3    3    0    0 -0.52231028775E+01  0.27256420590E+01  0.36346525471E+02  0.36820915824E+02  0.00000000000E+00 0.  1.
         11    1    4    4    0    0  0.11130101145E+02 -0.36981702396E+01 -0.10327209024E+02  0.15627119412E+02  0.51100000000E-03 0. -1.
        -11    1    4    4    0    0 -0.16528960525E+02  0.50771603539E+01 -0.16441552764E+02  0.23860191760E+02  0.51100000000E-03 0.  1.
        -12    1    4    4    0    0  0.10621962257E+02 -0.41046321733E+01 -0.95777636829E+01  0.14879773004E+02  0.00000000000E+00 0.  1.
</event>
<event>
 8    1  0.2500956E-006  0.9118800E+02  0.7816164E-02  0.1184000E+00
        -11   -1    0    0    0    0  0.00000000000E+00  0.00000000000E+00  0.45593999997E+02  0.45594000000E+02  0.51100000000E-03 0.  1.
         11   -1    0    0    0    0 -0.00000000000E+00 -0.00000000000E+00 -0.45593999997E+02  0.45594000000E+02  0.51100000000E-03 0. -1.
         23    2    1    2    0    0  0.00000000000E+00  0.00000000000E+00  0.22204460493E-15  0.91188000000E+02  0.91188000000E+02 0.  0.
    9900012    2    3    3    0    0  0.35111159376E+02  0.11084633308E+02  0.34356707787E+00  0.54367073251E+02  0.39999975091E+02 0.  0.
        -12    1    3    3    0    0 -0.35111159376E+02 -0.11084633308E+02 -0.34356707787E+00  0.36820926749E+02  0.00000000000E+00 0.  1.
         11    1    4    4    0    0  0.26396036269E+02 -0.42491821580E+01 -0.47656722085E+01  0.27157281005E+02  0.51100000000E-03 0. -1.
        -11    1    4    4    0    0  0.11282032757E+02  0.45737771527E+01 -0.40690401640E+01  0.12835917914E+02  0.51100000000E-03 0.  1.
        -12    1    4    4    0    0 -0.25669096502E+01  0.10760038313E+02  0.91782794504E+01  0.14373874332E+02  0.00000000000E+00 0.  1.
</event>
<event>
 8    1  0.2500956E-006  0.9118800E+02  0.7816164E-02  0.1184000E+00
        -11   -1    0    0    0    0  0.00000000000E+00  0.00000000000E+00  0.45593999997E+02  0.45594000000E+02  0.51100000000E-03 0.  1.
         11   -1    0    0    0    0 -0.00000000000E+00 -0.00000000000E+00 -0.45593999997E+02  0.45594000000E+02  0.51100000000E-03 0. -1.
         23    2    1    2    0    0  0.35527136788E-14 -0.35527136788E-14  0.00000000000E+00  0.91188000000E+02  0.91188000000E+02 0.  0.
    9900012    2    3    3    0    0 -0.25462889993E+02  0.23268844581E+02 -0.12883851682E+02  0.54366925476E+02  0.39999638206E+02 0.  0.
        -12    1    3    3    0    0  0.25462889993E+02 -0.23268844581E+02  0.12883851682E+02  0.36821074524E+02  0.00000000000E+00 0.  1.
         11    1    4    4    0    0 -0.71779880963E+00  0.88189488172E+01 -0.10508175250E+02  0.13737206438E+02  0.51100000000E-03 0. -1.
        -11    1    4    4    0    0 -0.21992776023E+02  0.17869590627E+02 -0.11439198867E+02  0.30559118726E+02  0.51100000000E-03 0.  1.
        -12    1    4    4    0    0 -0.27523151606E+01 -0.34196948626E+01  0.90635224356E+01  0.10070600312E+02  0.00000000000E+00 0.  1.
</event>
<event>
 8    1  0.2500956E-006  0.9118800E+02  0.7816164E-02  0.1184000E+00
        -11   -1    0    0    0    0  0.00000000000E+00  0.00000000000E+00  0.45593999997E+02  0.45594000000E+02  0.51100000000E-03 0.  1.
         11   -1    0    0    0    0 -0.00000000000E+00 -0.00000000000E+00 -0.45593999997E+02  0.45594000000E+02  0.51100000000E-03 0. -1.
         23    2    1    2    0    0  0.00000000000E+00 -0.17763568394E-14  0.00000000000E+00  0.91188000000E+02  0.91188000000E+02 0.  0.
    9900012    2    3    3    0    0  0.29747407367E+02  0.49317386299E+01 -0.21131695581E+02  0.54367097661E+02  0.40000030737E+02 0.  0.
        -12    1    3    3    0    0 -0.29747407367E+02 -0.49317386299E+01  0.21131695581E+02  0.36820902339E+02  0.00000000000E+00 0.  1.
         11    1    4    4    0    0  0.99875035204E+01  0.13831358916E+02 -0.42741790222E+01  0.17587646875E+02  0.51100000000E-03 0. -1.
        -11    1    4    4    0    0  0.11550971875E+02  0.38328038642E+01 -0.17842777202E+02  0.21598148886E+02  0.51100000000E-03 0.  1.
        -12    1    4    4    0    0  0.82089319707E+01 -0.12732424150E+02  0.98526064336E+00  0.15181301900E+02  0.00000000000E+00 0.  1.
</event>
<event>
 8    1  0.2500956E-006  0.9118800E+02  0.7816164E-02  0.1184000E+00
        -11   -1    0    0    0    0  0.00000000000E+00  0.00000000000E+00  0.45593999997E+02  0.45594000000E+02  0.51100000000E-03 0. -1.
         11   -1    0    0    0    0 -0.00000000000E+00 -0.00000000000E+00 -0.45593999997E+02  0.45594000000E+02  0.51100000000E-03 0.  1.
         23    2    1    2    0    0  0.00000000000E+00  0.00000000000E+00  0.17763568394E-14  0.91188000000E+02  0.91188000000E+02 0.  0.
    9900012    2    3    3    0    0  0.35901401513E+02  0.23342671834E+01  0.78370957064E+01  0.54367088781E+02  0.40000010493E+02 0.  0.
         12    1    3    3    0    0 -0.35901401513E+02 -0.23342671834E+01 -0.78370957064E+01  0.36820911219E+02  0.00000000000E+00 0. -1.
         11    1    4    4    0    0  0.12913029108E+02 -0.15630764340E+01  0.17418420484E+02  0.21739155942E+02  0.51100000000E-03 0. -1.
        -11    1    4    4    0    0  0.17820095887E+02  0.20441996401E+01 -0.16101624355E+02  0.24103876799E+02  0.51100000000E-03 0.  1.
        -12    1    4    4    0    0  0.51682765189E+01  0.18531439774E+01  0.65202995781E+01  0.85240560395E+01  0.00000000000E+00 0.  1.
</event>
<event>
 8    1  0.2500956E-006  0.9118800E+02  0.7816164E-02  0.1184000E+00
        -11   -1    0    0    0    0  0.00000000000E+00  0.00000000000E+00  0.45593999997E+02  0.45594000000E+02  0.51100000000E-03 0.  1.
         11   -1    0    0    0    0 -0.00000000000E+00 -0.00000000000E+00 -0.45593999997E+02  0.45594000000E+02  0.51100000000E-03 0. -1.
         23    2    1    2    0    0  0.00000000000E+00 -0.17763568394E-14  0.17763568394E-14  0.91188000000E+02  0.91188000000E+02 0.  0.
    9900012    2    3    3    0    0  0.33975458074E+02  0.97697759084E+01  0.10295608114E+02  0.54367084489E+02  0.40000000709E+02 0.  0.
         12    1    3    3    0    0 -0.33975458074E+02 -0.97697759084E+01 -0.10295608114E+02  0.36820915511E+02  0.00000000000E+00 0. -1.
         11    1    4    4    0    0  0.13450719147E+02 -0.93089491986E-01 -0.10659826787E+02  0.17162820823E+02  0.51100000000E-03 0. -1.
        -11    1    4    4    0    0  0.12048526228E+02  0.10595706439E+02  0.23381581793E+02  0.28357262678E+02  0.51100000000E-03 0.  1.
        -12    1    4    4    0    0  0.84762126997E+01 -0.73284103808E+00 -0.24261468923E+01  0.88470009869E+01  0.00000000000E+00 0.  1.
</event>
<event>
 8    1  0.2500956E-006  0.9118800E+02  0.7816164E-02  0.1184000E+00
        -11   -1    0    0    0    0  0.00000000000E+00  0.00000000000E+00  0.45593999997E+02  0.45594000000E+02  0.51100000000E-03 0.  1.
         11   -1    0    0    0    0 -0.00000000000E+00 -0.00000000000E+00 -0.45593999997E+02  0.45594000000E+02  0.51100000000E-03 0. -1.
         23    2    1    2    0    0 -0.35527136788E-14 -0.88817841970E-15  0.71054273576E-14  0.91188000000E+02  0.91188000000E+02 0.  0.
    9900012    2    3    3    0    0  0.14353844850E+02  0.62613787435E+01 -0.33324801618E+02  0.54367080285E+02  0.39999991127E+02 0.  0.
        -12    1    3    3    0    0 -0.14353844850E+02 -0.62613787435E+01  0.33324801618E+02  0.36820919715E+02  0.00000000000E+00 0.  1.
         11    1    4    4    0    0 -0.32932471381E+01  0.26624863984E+01 -0.53426092214E+01  0.68174617042E+01  0.51100000000E-03 0. -1.
        -11    1    4    4    0    0 -0.43093452071E+01  0.53681614008E+01 -0.24249919569E+02  0.25208058480E+02  0.51100000000E-03 0.  1.
         12    1    4    4    0    0  0.21956437196E+02 -0.17692690557E+01 -0.37322728273E+01  0.22341560102E+02  0.00000000000E+00 0. -1.
</event>
<event>
 8    1  0.2500956E-006  0.9118800E+02  0.7816164E-02  0.1184000E+00
        -11   -1    0    0    0    0  0.00000000000E+00  0.00000000000E+00  0.45593999997E+02  0.45594000000E+02  0.51100000000E-03 0. -1.
         11   -1    0    0    0    0 -0.00000000000E+00 -0.00000000000E+00 -0.45593999997E+02  0.45594000000E+02  0.51100000000E-03 0.  1.
         23    2    1    2    0    0  0.00000000000E+00  0.00000000000E+00 -0.71054273576E-14  0.91188000000E+02  0.91188000000E+02 0.  0.
    9900012    2    3    3    0    0  0.70896910831E+01 -0.13143946904E+02  0.33656329768E+02  0.54367141871E+02  0.40000131524E+02 0.  0.
        -12    1    3    3    0    0 -0.70896910831E+01  0.13143946904E+02 -0.33656329768E+02  0.36820858129E+02  0.00000000000E+00 0.  1.
         11    1    4    4    0    0  0.31451755711E+01 -0.87898576517E+01  0.38124262296E+02  0.39250644616E+02  0.51100000000E-03 0. -1.
        -11    1    4    4    0    0  0.55776858772E+01 -0.35880617612E+01  0.31112401625E+01  0.73256114118E+01  0.51100000000E-03 0.  1.
        -12    1    4    4    0    0 -0.16331703652E+01 -0.76602749134E+00 -0.75791726902E+01  0.77908858435E+01  0.00000000000E+00 0.  1.
</event>
<event>
 8    1  0.2500956E-006  0.9118800E+02  0.7816164E-02  0.1184000E+00
        -11   -1    0    0    0    0  0.00000000000E+00  0.00000000000E+00  0.45593999997E+02  0.45594000000E+02  0.51100000000E-03 0.  1.
         11   -1    0    0    0    0 -0.00000000000E+00 -0.00000000000E+00 -0.45593999997E+02  0.45594000000E+02  0.51100000000E-03 0. -1.
         23    2    1    2    0    0  0.00000000000E+00  0.00000000000E+00  0.00000000000E+00  0.91188000000E+02  0.91188000000E+02 0.  0.
    9900012    2    3    3    0    0 -0.35534180153E+02 -0.81894410743E+01 -0.51024026587E+01  0.54367089946E+02  0.40000013151E+02 0.  0.
        -12    1    3    3    0    0  0.35534180153E+02  0.81894410743E+01  0.51024026587E+01  0.36820910054E+02  0.00000000000E+00 0.  1.
         11    1    4    4    0    0 -0.51741182757E+01 -0.16114999105E+02 -0.32913744656E+01  0.17242327053E+02  0.51100000000E-03 0. -1.
        -11    1    4    4    0    0 -0.32595554959E+02  0.47810420253E+01 -0.20310578203E+00  0.32944951330E+02  0.51100000000E-03 0.  1.
        -12    1    4    4    0    0  0.22354930813E+01  0.31445160050E+01 -0.16079224110E+01  0.41798115630E+01  0.00000000000E+00 0.  1.
</event>
<event>
 8    1  0.2500956E-006  0.9118800E+02  0.7816164E-02  0.1184000E+00
        -11   -1    0    0    0    0  0.00000000000E+00  0.00000000000E+00  0.45593999997E+02  0.45594000000E+02  0.51100000000E-03 0.  1.
         11   -1    0    0    0    0 -0.00000000000E+00 -0.00000000000E+00 -0.45593999997E+02  0.45594000000E+02  0.51100000000E-03 0. -1.
         23    2    1    2    0    0 -0.35527136788E-14  0.00000000000E+00  0.13322676296E-14  0.91188000000E+02  0.91188000000E+02 0.  0.
    9900012    2    3    3    0    0 -0.29085268447E+02 -0.22544624926E+02  0.12514633769E+01  0.54367094060E+02  0.40000022528E+02 0.  0.
        -12    1    3    3    0    0  0.29085268447E+02  0.22544624926E+02 -0.12514633769E+01  0.36820905940E+02  0.00000000000E+00 0.  1.
         11    1    4    4    0    0 -0.76944850914E+01 -0.19053067702E+02 -0.20644902493E+01  0.20651552240E+02  0.51100000000E-03 0. -1.
        -11    1    4    4    0    0  0.12777164435E+01 -0.62118114693E+01 -0.63025897247E+01  0.89410177575E+01  0.51100000000E-03 0.  1.
         12    1    4    4    0    0 -0.22668499799E+02  0.27202542456E+01  0.96185433508E+01  0.24774524062E+02  0.00000000000E+00 0. -1.
</event>
<event>
 8    1  0.2500956E-006  0.9118800E+02  0.7816164E-02  0.1184000E+00
        -11   -1    0    0    0    0  0.00000000000E+00  0.00000000000E+00  0.45593999997E+02  0.45594000000E+02  0.51100000000E-03 0.  1.
         11   -1    0    0    0    0 -0.00000000000E+00 -0.00000000000E+00 -0.45593999997E+02  0.45594000000E+02  0.51100000000E-03 0. -1.
         23    2    1    2    0    0 -0.17763568394E-14  0.00000000000E+00  0.00000000000E+00  0.91188000000E+02  0.91188000000E+02 0.  0.
    9900012    2    3    3    0    0 -0.11589610391E+02 -0.10755573127E+02 -0.33253244911E+02  0.54367085842E+02  0.40000003794E+02 0.  0.
        -12    1    3    3    0    0  0.11589610391E+02  0.10755573127E+02  0.33253244911E+02  0.36820914158E+02  0.00000000000E+00 0.  1.
         11    1    4    4    0    0  0.61579294489E+01 -0.68843550034E+01 -0.30548317648E+01  0.97286400017E+01  0.51100000000E-03 0. -1.
        -11    1    4    4    0    0 -0.23609812739E+02 -0.83573281615E+01 -0.26192574030E+02  0.36239745117E+02  0.51100000000E-03 0.  1.
        -12    1    4    4    0    0  0.58622728992E+01  0.44861100379E+01 -0.40058391159E+01  0.83987007233E+01  0.00000000000E+00 0.  1.
</event>
<event>
 8    1  0.2500956E-006  0.9118800E+02  0.7816164E-02  0.1184000E+00
        -11   -1    0    0    0    0  0.00000000000E+00  0.00000000000E+00  0.45593999997E+02  0.45594000000E+02  0.51100000000E-03 0.  1.
         11   -1    0    0    0    0 -0.00000000000E+00 -0.00000000000E+00 -0.45593999997E+02  0.45594000000E+02  0.51100000000E-03 0. -1.
         23    2    1    2    0    0  0.00000000000E+00 -0.35527136788E-14 -0.17763568394E-14  0.91188000000E+02  0.91188000000E+02 0.  0.
    9900012    2    3    3    0    0 -0.34172384000E+02 -0.88983760414E+01  0.10433023808E+02  0.54367069672E+02  0.39999966932E+02 0.  0.
         12    1    3    3    0    0  0.34172384000E+02  0.88983760414E+01 -0.10433023808E+02  0.36820930328E+02  0.00000000000E+00 0. -1.
         11    1    4    4    0    0 -0.75465220461E+01 -0.18883038847E+02  0.24229495496E+01  0.20479009641E+02  0.51100000000E-03 0. -1.
        -11    1    4    4    0    0 -0.24422668213E+02  0.10086590846E+02  0.12237562088E+02  0.29119820804E+02  0.51100000000E-03 0.  1.
        -12    1    4    4    0    0 -0.22031937413E+01 -0.10192804062E+00 -0.42274878297E+01  0.47682392282E+01  0.00000000000E+00 0.  1.
</event>
<event>
 8    1  0.2500956E-006  0.9118800E+02  0.7816164E-02  0.1184000E+00
        -11   -1    0    0    0    0  0.00000000000E+00  0.00000000000E+00  0.45593999997E+02  0.45594000000E+02  0.51100000000E-03 0. -1.
         11   -1    0    0    0    0 -0.00000000000E+00 -0.00000000000E+00 -0.45593999997E+02  0.45594000000E+02  0.51100000000E-03 0.  1.
         23    2    1    2    0    0  0.35527136788E-14 -0.17763568394E-14  0.00000000000E+00  0.91188000000E+02  0.91188000000E+02 0.  0.
    9900012    2    3    3    0    0  0.18981815041E+02 -0.85428513958E+01 -0.30372524427E+02  0.54367084038E+02  0.39999999681E+02 0.  0.
         12    1    3    3    0    0 -0.18981815041E+02  0.85428513958E+01  0.30372524427E+02  0.36820915962E+02  0.00000000000E+00 0. -1.
         11    1    4    4    0    0  0.18211552175E+02 -0.59170534802E+01 -0.71078757848E+01  0.20425328711E+02  0.51100000000E-03 0. -1.
        -11    1    4    4    0    0 -0.67030545927E+01  0.11421587203E+01 -0.24549913343E+02  0.25474177373E+02  0.51100000000E-03 0.  1.
         12    1    4    4    0    0  0.74733174590E+01 -0.37679566360E+01  0.12852647009E+01  0.84675779539E+01  0.00000000000E+00 0. -1.
</event>
<event>
 8    1  0.2500956E-006  0.9118800E+02  0.7816164E-02  0.1184000E+00
        -11   -1    0    0    0    0  0.00000000000E+00  0.00000000000E+00  0.45593999997E+02  0.45594000000E+02  0.51100000000E-03 0. -1.
         11   -1    0    0    0    0 -0.00000000000E+00 -0.00000000000E+00 -0.45593999997E+02  0.45594000000E+02  0.51100000000E-03 0.  1.
         23    2    1    2    0    0 -0.17763568394E-14  0.00000000000E+00  0.71054273576E-14  0.91188000000E+02  0.91188000000E+02 0.  0.
    9900012    2    3    3    0    0  0.20549768806E+01 -0.10127014395E+02 -0.35341222361E+02  0.54367063721E+02  0.39999953364E+02 0.  0.
         12    1    3    3    0    0 -0.20549768806E+01  0.10127014395E+02  0.35341222361E+02  0.36820936279E+02  0.00000000000E+00 0. -1.
         11    1    4    4    0    0  0.96163792207E+01  0.62221480851E+01 -0.20440048570E+01  0.11634768250E+02  0.51100000000E-03 0. -1.
        -11    1    4    4    0    0 -0.10713709373E+02 -0.77715481595E+00 -0.11226091240E+02  0.15537459990E+02  0.51100000000E-03 0.  1.
        -12    1    4    4    0    0  0.31523070331E+01 -0.15572007664E+02 -0.22071126264E+02  0.27194835481E+02  0.00000000000E+00 0.  1.
</event>
<event>
 8    1  0.2500956E-006  0.9118800E+02  0.7816164E-02  0.1184000E+00
        -11   -1    0    0    0    0  0.00000000000E+00  0.00000000000E+00  0.45593999997E+02  0.45594000000E+02  0.51100000000E-03 0. -1.
         11   -1    0    0    0    0 -0.00000000000E+00 -0.00000000000E+00 -0.45593999997E+02  0.45594000000E+02  0.51100000000E-03 0.  1.
         23    2    1    2    0    0  0.00000000000E+00  0.35527136788E-14  0.00000000000E+00  0.91188000000E+02  0.91188000000E+02 0.  0.
    9900012    2    3    3    0    0  0.17548665347E+02 -0.28442079223E+02  0.15455452444E+02  0.54367101909E+02  0.40000040422E+02 0.  0.
        -12    1    3    3    0    0 -0.17548665347E+02  0.28442079223E+02 -0.15455452444E+02  0.36820898091E+02  0.00000000000E+00 0.  1.
         11    1    4    4    0    0  0.61705551369E+01 -0.33145009588E+02  0.15155416267E+02  0.36964226676E+02  0.51100000000E-03 0. -1.
        -11    1    4    4    0    0  0.12945878186E+02  0.12720886237E+01  0.21777843216E+01  0.13189265192E+02  0.51100000000E-03 0.  1.
        -12    1    4    4    0    0 -0.15677679761E+01  0.34308417417E+01 -0.18777481446E+01  0.42136100411E+01  0.00000000000E+00 0.  1.
</event>
<event>
 8    1  0.2500956E-006  0.9118800E+02  0.7816164E-02  0.1184000E+00
        -11   -1    0    0    0    0  0.00000000000E+00  0.00000000000E+00  0.45593999997E+02  0.45594000000E+02  0.51100000000E-03 0.  1.
         11   -1    0    0    0    0 -0.00000000000E+00 -0.00000000000E+00 -0.45593999997E+02  0.45594000000E+02  0.51100000000E-03 0. -1.
         23    2    1    2    0    0  0.00000000000E+00 -0.66613381478E-15 -0.35527136788E-14  0.91188000000E+02  0.91188000000E+02 0.  0.
    9900012    2    3    3    0    0 -0.27871086384E+02  0.19340698358E+01 -0.23984201856E+02  0.54367081746E+02  0.39999994457E+02 0.  0.
        -12    1    3    3    0    0  0.27871086384E+02 -0.19340698358E+01  0.23984201856E+02  0.36820918254E+02  0.00000000000E+00 0.  1.
         11    1    4    4    0    0 -0.14995632402E+02  0.87900356119E+01  0.13160559399E+00  0.17382492269E+02  0.51100000000E-03 0. -1.
        -11    1    4    4    0    0 -0.12211497794E+02 -0.72882749420E+01 -0.14387459947E+01  0.14293691626E+02  0.51100000000E-03 0.  1.
         12    1    4    4    0    0 -0.66395618881E+00  0.43230916583E+00 -0.22677061456E+02  0.22690897851E+02  0.00000000000E+00 0. -1.
</event>
<event>
 8    1  0.2500956E-006  0.9118800E+02  0.7816164E-02  0.1184000E+00
        -11   -1    0    0    0    0  0.00000000000E+00  0.00000000000E+00  0.45593999997E+02  0.45594000000E+02  0.51100000000E-03 0.  1.
         11   -1    0    0    0    0 -0.00000000000E+00 -0.00000000000E+00 -0.45593999997E+02  0.45594000000E+02  0.51100000000E-03 0. -1.
         23    2    1    2    0    0  0.00000000000E+00 -0.17763568394E-14  0.00000000000E+00  0.91188000000E+02  0.91188000000E+02 0.  0.
    9900012    2    3    3    0    0  0.21771361389E+02 -0.58558785273E+01  0.29111783930E+02  0.54367089451E+02  0.40000012021E+02 0.  0.
         12    1    3    3    0    0 -0.21771361389E+02  0.58558785273E+01 -0.29111783930E+02  0.36820910549E+02  0.00000000000E+00 0. -1.
         11    1    4    4    0    0  0.51983208868E+01 -0.16129038327E+02  0.17857748567E+01  0.17039877039E+02  0.51100000000E-03 0. -1.
        -11    1    4    4    0    0  0.95346062831E+01  0.43134331231E+00  0.22241150628E+02  0.24202552666E+02  0.51100000000E-03 0.  1.
         12    1    4    4    0    0  0.70384342195E+01  0.98418164876E+01  0.50848584450E+01  0.13124659746E+02  0.00000000000E+00 0. -1.
</event>
<event>
 8    1  0.2500956E-006  0.9118800E+02  0.7816164E-02  0.1184000E+00
        -11   -1    0    0    0    0  0.00000000000E+00  0.00000000000E+00  0.45593999997E+02  0.45594000000E+02  0.51100000000E-03 0.  1.
         11   -1    0    0    0    0 -0.00000000000E+00 -0.00000000000E+00 -0.45593999997E+02  0.45594000000E+02  0.51100000000E-03 0. -1.
         23    2    1    2    0    0 -0.17763568394E-14  0.00000000000E+00  0.71054273576E-14  0.91188000000E+02  0.91188000000E+02 0.  0.
    9900012    2    3    3    0    0  0.15914678959E+02  0.59989255643E+01 -0.32657547623E+02  0.54367088400E+02  0.40000009625E+02 0.  0.
        -12    1    3    3    0    0 -0.15914678959E+02 -0.59989255643E+01  0.32657547623E+02  0.36820911600E+02  0.00000000000E+00 0.  1.
         11    1    4    4    0    0  0.13124698393E+02 -0.15641559211E+00 -0.20439574436E+02  0.24291117247E+02  0.51100000000E-03 0. -1.
        -11    1    4    4    0    0  0.45717738027E+01  0.85295355795E+01  0.61522032501E+01  0.11467506180E+02  0.51100000000E-03 0.  1.
        -12    1    4    4    0    0 -0.17817932360E+01 -0.23741944231E+01 -0.18370176437E+02  0.18608464972E+02  0.00000000000E+00 0.  1.
</event>
<event>
 8    1  0.2500956E-006  0.9118800E+02  0.7816164E-02  0.1184000E+00
        -11   -1    0    0    0    0  0.00000000000E+00  0.00000000000E+00  0.45593999997E+02  0.45594000000E+02  0.51100000000E-03 0.  1.
         11   -1    0    0    0    0 -0.00000000000E+00 -0.00000000000E+00 -0.45593999997E+02  0.45594000000E+02  0.51100000000E-03 0. -1.
         23    2    1    2    0    0 -0.44408920985E-15  0.00000000000E+00 -0.17763568394E-14  0.91188000000E+02  0.91188000000E+02 0.  0.
    9900012    2    3    3    0    0  0.23052228869E+01 -0.34788874325E+02 -0.11840723254E+02  0.54367047316E+02  0.39999915967E+02 0.  0.
         12    1    3    3    0    0 -0.23052228869E+01  0.34788874325E+02  0.11840723254E+02  0.36820952684E+02  0.00000000000E+00 0. -1.
         11    1    4    4    0    0 -0.90045481601E+01  0.32191972344E+01 -0.32096455898E-01  0.95627479756E+01  0.51100000000E-03 0.  1.
        -11    1    4    4    0    0  0.83802493645E+01 -0.23970034596E+02 -0.15814686648E+02  0.29914803225E+02  0.51100000000E-03 0. -1.
         12    1    4    4    0    0  0.29295216824E+01 -0.14038036963E+02  0.40060598499E+01  0.14889496116E+02  0.00000000000E+00 0. -1.
</event>
<event>
 8    1  0.2500956E-006  0.9118800E+02  0.7816164E-02  0.1184000E+00
        -11   -1    0    0    0    0  0.00000000000E+00  0.00000000000E+00  0.45593999997E+02  0.45594000000E+02  0.51100000000E-03 0.  1.
         11   -1    0    0    0    0 -0.00000000000E+00 -0.00000000000E+00 -0.45593999997E+02  0.45594000000E+02  0.51100000000E-03 0. -1.
         23    2    1    2    0    0  0.35527136788E-14  0.00000000000E+00  0.00000000000E+00  0.91188000000E+02  0.91188000000E+02 0.  0.
    9900012    2    3    3    0    0  0.21559941667E+02 -0.40294756981E+01 -0.29575536508E+02  0.54367080418E+02  0.39999991429E+02 0.  0.
        -12    1    3    3    0    0 -0.21559941667E+02  0.40294756981E+01  0.29575536508E+02  0.36820919582E+02  0.00000000000E+00 0.  1.
         11    1    4    4    0    0  0.17777295035E+02 -0.16088882889E+01 -0.22838059872E+01  0.17995458048E+02  0.51100000000E-03 0. -1.
        -11    1    4    4    0    0 -0.94269440319E+01  0.25514034423E+01 -0.13269822743E+02  0.16476198870E+02  0.51100000000E-03 0.  1.
         12    1    4    4    0    0  0.13209590664E+02 -0.49719908515E+01 -0.14021907778E+02  0.19895423500E+02  0.00000000000E+00 0. -1.
</event>
<event>
 8    1  0.2500956E-006  0.9118800E+02  0.7816164E-02  0.1184000E+00
        -11   -1    0    0    0    0  0.00000000000E+00  0.00000000000E+00  0.45593999997E+02  0.45594000000E+02  0.51100000000E-03 0.  1.
         11   -1    0    0    0    0 -0.00000000000E+00 -0.00000000000E+00 -0.45593999997E+02  0.45594000000E+02  0.51100000000E-03 0. -1.
         23    2    1    2    0    0  0.88817841970E-15  0.00000000000E+00  0.00000000000E+00  0.91188000000E+02  0.91188000000E+02 0.  0.
    9900012    2    3    3    0    0 -0.68312727549E+01 -0.33026933985E+02  0.14776069308E+02  0.54367124398E+02  0.40000091689E+02 0.  0.
         12    1    3    3    0    0  0.68312727549E+01  0.33026933985E+02 -0.14776069308E+02  0.36820875602E+02  0.00000000000E+00 0. -1.
         11    1    4    4    0    0  0.66178802875E+01  0.47790389172E+01 -0.32218216755E+01  0.87758582282E+01  0.51100000000E-03 0. -1.
        -11    1    4    4    0    0  0.14253111194E+01 -0.22153799446E+00  0.91981255138E+00  0.17107443587E+01  0.51100000000E-03 0.  1.
        -12    1    4    4    0    0 -0.14874464162E+02 -0.37584434908E+02  0.17078078432E+02  0.43880521811E+02  0.00000000000E+00 0.  1.
</event>
<event>
 8    1  0.2500956E-006  0.9118800E+02  0.7816164E-02  0.1184000E+00
        -11   -1    0    0    0    0  0.00000000000E+00  0.00000000000E+00  0.45593999997E+02  0.45594000000E+02  0.51100000000E-03 0. -1.
         11   -1    0    0    0    0 -0.00000000000E+00 -0.00000000000E+00 -0.45593999997E+02  0.45594000000E+02  0.51100000000E-03 0.  1.
         23    2    1    2    0    0  0.00000000000E+00  0.00000000000E+00  0.88817841970E-15  0.91188000000E+02  0.91188000000E+02 0.  0.
    9900012    2    3    3    0    0  0.30071845058E+02  0.21192581881E+02 -0.15286049187E+01  0.54367108852E+02  0.40000056249E+02 0.  0.
         12    1    3    3    0    0 -0.30071845058E+02 -0.21192581881E+02  0.15286049187E+01  0.36820891148E+02  0.00000000000E+00 0. -1.
         11    1    4    4    0    0 -0.48098964624E+01 -0.45726536265E+01  0.52326218070E+01  0.84513073783E+01  0.51100000000E-03 0. -1.
        -11    1    4    4    0    0  0.24354342650E+02  0.10418688288E+02 -0.66242533606E+01  0.27305014272E+02  0.51100000000E-03 0.  1.
         12    1    4    4    0    0  0.10527398870E+02  0.15346547220E+02 -0.13697336509E+00  0.18610787201E+02  0.00000000000E+00 0. -1.
</event>
<event>
 8    1  0.2500956E-006  0.9118800E+02  0.7816164E-02  0.1184000E+00
        -11   -1    0    0    0    0  0.00000000000E+00  0.00000000000E+00  0.45593999997E+02  0.45594000000E+02  0.51100000000E-03 0. -1.
         11   -1    0    0    0    0 -0.00000000000E+00 -0.00000000000E+00 -0.45593999997E+02  0.45594000000E+02  0.51100000000E-03 0.  1.
         23    2    1    2    0    0  0.00000000000E+00  0.00000000000E+00  0.00000000000E+00  0.91188000000E+02  0.91188000000E+02 0.  0.
    9900012    2    3    3    0    0  0.21364421363E+02 -0.98408957150E+01 -0.28328390721E+02  0.54367089507E+02  0.40000012150E+02 0.  0.
         12    1    3    3    0    0 -0.21364421363E+02  0.98408957150E+01  0.28328390721E+02  0.36820910493E+02  0.00000000000E+00 0. -1.
         11    1    4    4    0    0  0.16416917137E+02 -0.31740255863E+01  0.45070908546E+01  0.17317721413E+02  0.51100000000E-03 0. -1.
        -11    1    4    4    0    0  0.59087449885E+01  0.23441016210E+01 -0.60620747753E+01  0.87838960940E+01  0.51100000000E-03 0.  1.
         12    1    4    4    0    0 -0.96124076289E+00 -0.90109717497E+01 -0.26773406801E+02  0.28265472000E+02  0.00000000000E+00 0. -1.
</event>
<event>
 8    1  0.2500956E-006  0.9118800E+02  0.7816164E-02  0.1184000E+00
        -11   -1    0    0    0    0  0.00000000000E+00  0.00000000000E+00  0.45593999997E+02  0.45594000000E+02  0.51100000000E-03 0.  1.
         11   -1    0    0    0    0 -0.00000000000E+00 -0.00000000000E+00 -0.45593999997E+02  0.45594000000E+02  0.51100000000E-03 0. -1.
         23    2    1    2    0    0  0.00000000000E+00  0.00000000000E+00 -0.35527136788E-14  0.91188000000E+02  0.91188000000E+02 0.  0.
    9900012    2    3    3    0    0 -0.16673555283E+01 -0.23091206608E+02  0.28632083792E+02  0.54367080412E+02  0.39999991415E+02 0.  0.
         12    1    3    3    0    0  0.16673555283E+01  0.23091206608E+02 -0.28632083792E+02  0.36820919588E+02  0.00000000000E+00 0. -1.
         11    1    4    4    0    0 -0.19179118098E+01 -0.10468085111E+02 -0.83021997402E+01  0.13497618767E+02  0.51100000000E-03 0. -1.
        -11    1    4    4    0    0 -0.21016965585E+01  0.98648260417E+00  0.13196045476E+01  0.26705117067E+01  0.51100000000E-03 0.  1.
         12    1    4    4    0    0  0.23522528400E+01 -0.13609604101E+02  0.35614678984E+02  0.38198949938E+02  0.00000000000E+00 0. -1.
</event>
<event>
 8    1  0.2500956E-006  0.9118800E+02  0.7816164E-02  0.1184000E+00
        -11   -1    0    0    0    0  0.00000000000E+00  0.00000000000E+00  0.45593999997E+02  0.45594000000E+02  0.51100000000E-03 0. -1.
         11   -1    0    0    0    0 -0.00000000000E+00 -0.00000000000E+00 -0.45593999997E+02  0.45594000000E+02  0.51100000000E-03 0.  1.
         23    2    1    2    0    0  0.00000000000E+00  0.17763568394E-14  0.00000000000E+00  0.91188000000E+02  0.91188000000E+02 0.  0.
    9900012    2    3    3    0    0 -0.32062613092E+02 -0.11825313259E+02  0.13708757995E+02  0.54367092383E+02  0.40000018705E+02 0.  0.
        -12    1    3    3    0    0  0.32062613092E+02  0.11825313259E+02 -0.13708757995E+02  0.36820907617E+02  0.00000000000E+00 0.  1.
         11    1    4    4    0    0 -0.38412096799E+01  0.42431064063E+01  0.75918024826E+01  0.95075921755E+01  0.51100000000E-03 0. -1.
        -11    1    4    4    0    0 -0.36738513002E+01 -0.19101570255E+02  0.31651940108E+00  0.19454237440E+02  0.51100000000E-03 0.  1.
         12    1    4    4    0    0 -0.24547552112E+02  0.30331505891E+01  0.58004361114E+01  0.25405262768E+02  0.00000000000E+00 0. -1.
</event>
<event>
 8    1  0.2500956E-006  0.9118800E+02  0.7816164E-02  0.1184000E+00
        -11   -1    0    0    0    0  0.00000000000E+00  0.00000000000E+00  0.45593999997E+02  0.45594000000E+02  0.51100000000E-03 0. -1.
         11   -1    0    0    0    0 -0.00000000000E+00 -0.00000000000E+00 -0.45593999997E+02  0.45594000000E+02  0.51100000000E-03 0.  1.
         23    2    1    2    0    0  0.00000000000E+00  0.53290705182E-14  0.00000000000E+00  0.91188000000E+02  0.91188000000E+02 0.  0.
    9900012    2    3    3    0    0  0.17159745761E+02 -0.60199701685E+01 -0.32016910063E+02  0.54367089564E+02  0.40000012278E+02 0.  0.
         12    1    3    3    0    0 -0.17159745761E+02  0.60199701685E+01  0.32016910063E+02  0.36820910436E+02  0.00000000000E+00 0. -1.
         11    1    4    4    0    0  0.52082199058E+01  0.14985953292E+02 -0.97591544493E+01  0.18626471660E+02  0.51100000000E-03 0. -1.
        -11    1    4    4    0    0  0.64535634270E+00 -0.15210277274E+02 -0.11240666281E+02  0.18924100989E+02  0.51100000000E-03 0.  1.
         12    1    4    4    0    0  0.11306169513E+02 -0.57956461874E+01 -0.11017089333E+02  0.16816516915E+02  0.00000000000E+00 0. -1.
</event>
<event>
 8    1  0.2500956E-006  0.9118800E+02  0.7816164E-02  0.1184000E+00
        -11   -1    0    0    0    0  0.00000000000E+00  0.00000000000E+00  0.45593999997E+02  0.45594000000E+02  0.51100000000E-03 0. -1.
         11   -1    0    0    0    0 -0.00000000000E+00 -0.00000000000E+00 -0.45593999997E+02  0.45594000000E+02  0.51100000000E-03 0.  1.
         23    2    1    2    0    0  0.00000000000E+00  0.00000000000E+00 -0.88817841970E-15  0.91188000000E+02  0.91188000000E+02 0.  0.
    9900012    2    3    3    0    0  0.12588616278E+02  0.33672330010E+02 -0.79674589577E+01  0.54367089224E+02  0.40000011505E+02 0.  0.
         12    1    3    3    0    0 -0.12588616278E+02 -0.33672330010E+02  0.79674589577E+01  0.36820910776E+02  0.00000000000E+00 0. -1.
         11    1    4    4    0    0  0.44970241758E+01  0.45907802500E+01  0.44629595848E+01  0.78240972808E+01  0.51100000000E-03 0. -1.
        -11    1    4    4    0    0  0.14405220063E+02 -0.24665798790E+00 -0.71417736909E+01  0.16080302763E+02  0.51100000000E-03 0.  1.
        -12    1    4    4    0    0 -0.63136279613E+01  0.29328207748E+02 -0.52886448517E+01  0.30462689181E+02  0.00000000000E+00 0.  1.
</event>
<event>
 8    1  0.2500956E-006  0.9118800E+02  0.7816164E-02  0.1184000E+00
        -11   -1    0    0    0    0  0.00000000000E+00  0.00000000000E+00  0.45593999997E+02  0.45594000000E+02  0.51100000000E-03 0.  1.
         11   -1    0    0    0    0 -0.00000000000E+00 -0.00000000000E+00 -0.45593999997E+02  0.45594000000E+02  0.51100000000E-03 0. -1.
         23    2    1    2    0    0  0.35527136788E-14  0.00000000000E+00  0.00000000000E+00  0.91188000000E+02  0.91188000000E+02 0.  0.
    9900012    2    3    3    0    0 -0.31715395793E+02 -0.12932655424E+02 -0.13515177265E+02  0.54367083076E+02  0.39999997488E+02 0.  0.
        -12    1    3    3    0    0  0.31715395793E+02  0.12932655424E+02  0.13515177265E+02  0.36820916924E+02  0.00000000000E+00 0.  1.
         11    1    4    4    0    0  0.12357842486E+01 -0.15900027489E+02 -0.83565521619E+01  0.18004721635E+02  0.51100000000E-03 0. -1.
        -11    1    4    4    0    0 -0.76007828762E+01  0.63377905230E+01  0.13118956200E+01  0.99830135441E+01  0.51100000000E-03 0.  1.
         12    1    4    4    0    0 -0.25350397166E+02 -0.33704184586E+01 -0.64705207232E+01  0.26379347897E+02  0.00000000000E+00 0. -1.
</event>
<event>
 8    1  0.2500956E-006  0.9118800E+02  0.7816164E-02  0.1184000E+00
        -11   -1    0    0    0    0  0.00000000000E+00  0.00000000000E+00  0.45593999997E+02  0.45594000000E+02  0.51100000000E-03 0.  1.
         11   -1    0    0    0    0 -0.00000000000E+00 -0.00000000000E+00 -0.45593999997E+02  0.45594000000E+02  0.51100000000E-03 0. -1.
         23    2    1    2    0    0  0.35527136788E-14 -0.35527136788E-14  0.00000000000E+00  0.91188000000E+02  0.91188000000E+02 0.  0.
    9900012    2    3    3    0    0 -0.17458496841E+02  0.20677742713E+02 -0.24968193576E+02  0.54367097701E+02  0.40000030829E+02 0.  0.
        -12    1    3    3    0    0  0.17458496841E+02 -0.20677742713E+02  0.24968193576E+02  0.36820902299E+02  0.00000000000E+00 0.  1.
         11    1    4    4    0    0  0.75004415268E+01  0.37378089930E+01 -0.21241012995E+02  0.22834370420E+02  0.51100000000E-03 0. -1.
        -11    1    4    4    0    0 -0.77174098495E+01  0.92658045312E+00 -0.12350002712E+01  0.78703362096E+01  0.51100000000E-03 0.  1.
        -12    1    4    4    0    0 -0.17241528519E+02  0.16013353267E+02 -0.24921803101E+01  0.23662391071E+02  0.00000000000E+00 0.  1.
</event>
<event>
 8    1  0.2500956E-006  0.9118800E+02  0.7816164E-02  0.1184000E+00
        -11   -1    0    0    0    0  0.00000000000E+00  0.00000000000E+00  0.45593999997E+02  0.45594000000E+02  0.51100000000E-03 0. -1.
         11   -1    0    0    0    0 -0.00000000000E+00 -0.00000000000E+00 -0.45593999997E+02  0.45594000000E+02  0.51100000000E-03 0.  1.
         23    2    1    2    0    0  0.00000000000E+00  0.17763568394E-14  0.00000000000E+00  0.91188000000E+02  0.91188000000E+02 0.  0.
    9900012    2    3    3    0    0  0.32116863591E+02 -0.94389010699E+01 -0.15336083392E+02  0.54367065274E+02  0.39999956905E+02 0.  0.
         12    1    3    3    0    0 -0.32116863591E+02  0.94389010699E+01  0.15336083392E+02  0.36820934726E+02  0.00000000000E+00 0. -1.
         11    1    4    4    0    0  0.11899252864E+02  0.65898603168E+01 -0.63499700497E+01  0.15011348960E+02  0.51100000000E-03 0. -1.
        -11    1    4    4    0    0  0.21617366626E+02 -0.19498648303E+02 -0.14632249152E+02  0.32582365491E+02  0.51100000000E-03 0.  1.
        -12    1    4    4    0    0 -0.13997558991E+01  0.34698869164E+01  0.56461358093E+01  0.67733508227E+01  0.00000000000E+00 0.  1.
</event>
<event>
 8    1  0.2500956E-006  0.9118800E+02  0.7816164E-02  0.1184000E+00
        -11   -1    0    0    0    0  0.00000000000E+00  0.00000000000E+00  0.45593999997E+02  0.45594000000E+02  0.51100000000E-03 0. -1.
         11   -1    0    0    0    0 -0.00000000000E+00 -0.00000000000E+00 -0.45593999997E+02  0.45594000000E+02  0.51100000000E-03 0.  1.
         23    2    1    2    0    0  0.35527136788E-14  0.17763568394E-14  0.00000000000E+00  0.91188000000E+02  0.91188000000E+02 0.  0.
    9900012    2    3    3    0    0  0.23935987729E+02 -0.87914640708E+01  0.26562359965E+02  0.54367077741E+02  0.39999985327E+02 0.  0.
        -12    1    3    3    0    0 -0.23935987729E+02  0.87914640708E+01 -0.26562359965E+02  0.36820922259E+02  0.00000000000E+00 0.  1.
         11    1    4    4    0    0  0.22485270219E+02  0.11995942863E+02  0.13679727012E+02  0.28924469803E+02  0.51100000000E-03 0. -1.
        -11    1    4    4    0    0  0.25503440707E+01 -0.18263393849E+02  0.13190121674E+02  0.22672342618E+02  0.51100000000E-03 0.  1.
         12    1    4    4    0    0 -0.10996265608E+01 -0.25240130854E+01 -0.30748872187E+00  0.27702653199E+01  0.00000000000E+00 0. -1.
</event>
<event>
 8    1  0.2500956E-006  0.9118800E+02  0.7816164E-02  0.1184000E+00
        -11   -1    0    0    0    0  0.00000000000E+00  0.00000000000E+00  0.45593999997E+02  0.45594000000E+02  0.51100000000E-03 0.  1.
         11   -1    0    0    0    0 -0.00000000000E+00 -0.00000000000E+00 -0.45593999997E+02  0.45594000000E+02  0.51100000000E-03 0. -1.
         23    2    1    2    0    0 -0.35527136788E-14 -0.17763568394E-14  0.71054273576E-14  0.91188000000E+02  0.91188000000E+02 0.  0.
    9900012    2    3    3    0    0 -0.15845730577E+02 -0.81075838901E+01  0.32232889342E+02  0.54367092225E+02  0.40000018346E+02 0.  0.
         12    1    3    3    0    0  0.15845730577E+02  0.81075838901E+01 -0.32232889342E+02  0.36820907775E+02  0.00000000000E+00 0. -1.
         11    1    4    4    0    0 -0.86899714956E+01  0.11418717418E+02  0.29003065661E+02  0.32358623736E+02  0.51100000000E-03 0.  1.
        -11    1    4    4    0    0  0.87316786863E+00 -0.37466890026E+01 -0.60159770835E+00  0.38938439456E+01  0.51100000000E-03 0. -1.
        -12    1    4    4    0    0 -0.80289269502E+01 -0.15779612306E+02  0.38314213884E+01  0.18114624543E+02  0.00000000000E+00 0.  1.
</event>
<event>
 8    1  0.2500956E-006  0.9118800E+02  0.7816164E-02  0.1184000E+00
        -11   -1    0    0    0    0  0.00000000000E+00  0.00000000000E+00  0.45593999997E+02  0.45594000000E+02  0.51100000000E-03 0.  1.
         11   -1    0    0    0    0 -0.00000000000E+00 -0.00000000000E+00 -0.45593999997E+02  0.45594000000E+02  0.51100000000E-03 0. -1.
         23    2    1    2    0    0  0.00000000000E+00 -0.35527136788E-14  0.00000000000E+00  0.91188000000E+02  0.91188000000E+02 0.  0.
    9900012    2    3    3    0    0 -0.13977665579E+02  0.17789424360E+02  0.29050673500E+02  0.54367076805E+02  0.39999983193E+02 0.  0.
         12    1    3    3    0    0  0.13977665579E+02 -0.17789424360E+02 -0.29050673500E+02  0.36820923195E+02  0.00000000000E+00 0. -1.
         11    1    4    4    0    0 -0.22365568425E+01 -0.96152228458E+01  0.18127204707E+02  0.20640984657E+02  0.51100000000E-03 0. -1.
        -11    1    4    4    0    0  0.15627479888E+01  0.48265843260E+01 -0.58000240062E+00  0.51063196706E+01  0.51100000000E-03 0.  1.
        -12    1    4    4    0    0 -0.13303856725E+02  0.22578062879E+02  0.11503471194E+02  0.28619772478E+02  0.00000000000E+00 0.  1.
</event>
<event>
 8    1  0.2500956E-006  0.9118800E+02  0.7816164E-02  0.1184000E+00
        -11   -1    0    0    0    0  0.00000000000E+00  0.00000000000E+00  0.45593999997E+02  0.45594000000E+02  0.51100000000E-03 0. -1.
         11   -1    0    0    0    0 -0.00000000000E+00 -0.00000000000E+00 -0.45593999997E+02  0.45594000000E+02  0.51100000000E-03 0.  1.
         23    2    1    2    0    0  0.00000000000E+00  0.53290705182E-14 -0.71054273576E-14  0.91188000000E+02  0.91188000000E+02 0.  0.
    9900012    2    3    3    0    0 -0.85931936680E+01  0.12100309395E+02 -0.33697467525E+02  0.54367084986E+02  0.40000001843E+02 0.  0.
         12    1    3    3    0    0  0.85931936680E+01 -0.12100309395E+02  0.33697467525E+02  0.36820915014E+02  0.00000000000E+00 0. -1.
         11    1    4    4    0    0  0.80613521842E+00 -0.13573678686E+02 -0.78213086849E+01  0.15686538078E+02  0.51100000000E-03 0. -1.
        -11    1    4    4    0    0 -0.70775223233E+01  0.71427058228E+01 -0.97374939392E+01  0.13997441094E+02  0.51100000000E-03 0.  1.
         12    1    4    4    0    0 -0.23218065631E+01  0.18531282259E+02 -0.16138664900E+02  0.24683105814E+02  0.00000000000E+00 0. -1.
</event>
<event>
 8    1  0.2500956E-006  0.9118800E+02  0.7816164E-02  0.1184000E+00
        -11   -1    0    0    0    0  0.00000000000E+00  0.00000000000E+00  0.45593999997E+02  0.45594000000E+02  0.51100000000E-03 0.  1.
         11   -1    0    0    0    0 -0.00000000000E+00 -0.00000000000E+00 -0.45593999997E+02  0.45594000000E+02  0.51100000000E-03 0. -1.
         23    2    1    2    0    0  0.00000000000E+00  0.22204460493E-15 -0.17763568394E-14  0.91188000000E+02  0.91188000000E+02 0.  0.
    9900012    2    3    3    0    0  0.36442675358E+02 -0.14719065040E+01  0.50538668834E+01  0.54367127299E+02  0.40000098303E+02 0.  0.
        -12    1    3    3    0    0 -0.36442675358E+02  0.14719065040E+01 -0.50538668834E+01  0.36820872701E+02  0.00000000000E+00 0.  1.
         11    1    4    4    0    0  0.58944275217E+01  0.22537182511E+01 -0.29524632002E+01  0.69671056382E+01  0.51100000000E-03 0.  1.
        -11    1    4    4    0    0  0.12567278895E+02  0.72803197998E+01 -0.11617291481E+02  0.18598414363E+02  0.51100000000E-03 0. -1.
        -12    1    4    4    0    0  0.17980968942E+02 -0.11005944555E+02  0.19623621565E+02  0.28801607298E+02  0.00000000000E+00 0.  1.
</event>
<event>
 8    1  0.2500956E-006  0.9118800E+02  0.7816164E-02  0.1184000E+00
        -11   -1    0    0    0    0  0.00000000000E+00  0.00000000000E+00  0.45593999997E+02  0.45594000000E+02  0.51100000000E-03 0.  1.
         11   -1    0    0    0    0 -0.00000000000E+00 -0.00000000000E+00 -0.45593999997E+02  0.45594000000E+02  0.51100000000E-03 0. -1.
         23    2    1    2    0    0 -0.35527136788E-14  0.00000000000E+00  0.00000000000E+00  0.91188000000E+02  0.91188000000E+02 0.  0.
    9900012    2    3    3    0    0  0.28302292687E+02 -0.16481504154E+02 -0.16826183979E+02  0.54367079074E+02  0.39999988366E+02 0.  0.
        -12    1    3    3    0    0 -0.28302292687E+02  0.16481504154E+02  0.16826183979E+02  0.36820920926E+02  0.00000000000E+00 0.  1.
         11    1    4    4    0    0 -0.34036079612E+01 -0.13530505927E+02 -0.51067399464E+01  0.14857251796E+02  0.51100000000E-03 0. -1.
        -11    1    4    4    0    0  0.32457865688E+02 -0.23836986032E+01 -0.52425797742E+01  0.32964825299E+02  0.51100000000E-03 0.  1.
         12    1    4    4    0    0 -0.75196503953E+00 -0.56729962364E+00 -0.64768642584E+01  0.65450019791E+01  0.00000000000E+00 0. -1.
</event>
<event>
 8    1  0.2500956E-006  0.9118800E+02  0.7816164E-02  0.1184000E+00
        -11   -1    0    0    0    0  0.00000000000E+00  0.00000000000E+00  0.45593999997E+02  0.45594000000E+02  0.51100000000E-03 0.  1.
         11   -1    0    0    0    0 -0.00000000000E+00 -0.00000000000E+00 -0.45593999997E+02  0.45594000000E+02  0.51100000000E-03 0. -1.
         23    2    1    2    0    0  0.00000000000E+00 -0.17763568394E-14  0.00000000000E+00  0.91188000000E+02  0.91188000000E+02 0.  0.
    9900012    2    3    3    0    0 -0.12994350190E+02  0.12053002561E+02 -0.32274637081E+02  0.54367079230E+02  0.39999988721E+02 0.  0.
        -12    1    3    3    0    0  0.12994350190E+02 -0.12053002561E+02  0.32274637081E+02  0.36820920770E+02  0.00000000000E+00 0.  1.
         11    1    4    4    0    0 -0.96830097197E+01 -0.78931437967E+00 -0.19974834525E+01  0.99183483920E+01  0.51100000000E-03 0. -1.
        -11    1    4    4    0    0 -0.83240728109E+01 -0.55068388449E+01 -0.17070126934E+01  0.10125677993E+02  0.51100000000E-03 0.  1.
         12    1    4    4    0    0  0.50127323401E+01  0.18349155786E+02 -0.28570140935E+02  0.34323052845E+02  0.00000000000E+00 0. -1.
</event>
<event>
 8    1  0.2500956E-006  0.9118800E+02  0.7816164E-02  0.1184000E+00
        -11   -1    0    0    0    0  0.00000000000E+00  0.00000000000E+00  0.45593999997E+02  0.45594000000E+02  0.51100000000E-03 0. -1.
         11   -1    0    0    0    0 -0.00000000000E+00 -0.00000000000E+00 -0.45593999997E+02  0.45594000000E+02  0.51100000000E-03 0.  1.
         23    2    1    2    0    0  0.00000000000E+00 -0.35527136788E-14 -0.35527136788E-14  0.91188000000E+02  0.91188000000E+02 0.  0.
    9900012    2    3    3    0    0  0.16385299919E+02 -0.22358303614E+02 -0.24236406141E+02  0.54367147530E+02  0.40000144424E+02 0.  0.
         12    1    3    3    0    0 -0.16385299919E+02  0.22358303614E+02  0.24236406141E+02  0.36820852470E+02  0.00000000000E+00 0. -1.
         11    1    4    4    0    0 -0.47358474173E+01 -0.93453697047E-01 -0.58315023084E+01  0.75128825219E+01  0.51100000000E-03 0.  1.
        -11    1    4    4    0    0 -0.43358758566E+01  0.25052073258E+01  0.25447665460E+01  0.56170917942E+01  0.51100000000E-03 0. -1.
         12    1    4    4    0    0  0.25457023193E+02 -0.24770057243E+02 -0.20949670379E+02  0.41237173214E+02  0.00000000000E+00 0. -1.
</event>
<event>
 8    1  0.2500956E-006  0.9118800E+02  0.7816164E-02  0.1184000E+00
        -11   -1    0    0    0    0  0.00000000000E+00  0.00000000000E+00  0.45593999997E+02  0.45594000000E+02  0.51100000000E-03 0.  1.
         11   -1    0    0    0    0 -0.00000000000E+00 -0.00000000000E+00 -0.45593999997E+02  0.45594000000E+02  0.51100000000E-03 0. -1.
         23    2    1    2    0    0  0.00000000000E+00  0.35527136788E-14 -0.88817841970E-15  0.91188000000E+02  0.91188000000E+02 0.  0.
    9900012    2    3    3    0    0 -0.30183175281E+02  0.20312170284E+02 -0.56720293577E+01  0.54367078655E+02  0.39999987409E+02 0.  0.
         12    1    3    3    0    0  0.30183175281E+02 -0.20312170284E+02  0.56720293577E+01  0.36820921345E+02  0.00000000000E+00 0. -1.
         11    1    4    4    0    0 -0.12597156678E+02  0.21436006190E+02 -0.51646462541E+01  0.25394178249E+02  0.51100000000E-03 0. -1.
        -11    1    4    4    0    0 -0.19497345547E+02 -0.14097940837E+00  0.73421655208E+01  0.20834436718E+02  0.51100000000E-03 0.  1.
        -12    1    4    4    0    0  0.19113269442E+01 -0.98285649788E+00 -0.78495486244E+01  0.81384636873E+01  0.00000000000E+00 0.  1.
</event>
<event>
 8    1  0.2500956E-006  0.9118800E+02  0.7816164E-02  0.1184000E+00
        -11   -1    0    0    0    0  0.00000000000E+00  0.00000000000E+00  0.45593999997E+02  0.45594000000E+02  0.51100000000E-03 0. -1.
         11   -1    0    0    0    0 -0.00000000000E+00 -0.00000000000E+00 -0.45593999997E+02  0.45594000000E+02  0.51100000000E-03 0.  1.
         23    2    1    2    0    0  0.00000000000E+00  0.35527136788E-14  0.00000000000E+00  0.91188000000E+02  0.91188000000E+02 0.  0.
    9900012    2    3    3    0    0  0.17114763386E+02  0.22262149619E+02 -0.23817256391E+02  0.54367080220E+02  0.39999990979E+02 0.  0.
         12    1    3    3    0    0 -0.17114763386E+02 -0.22262149619E+02  0.23817256391E+02  0.36820919780E+02  0.00000000000E+00 0. -1.
         11    1    4    4    0    0  0.22957226289E+02  0.19997356144E+02 -0.83145716647E+01  0.31560427657E+02  0.51100000000E-03 0. -1.
        -11    1    4    4    0    0 -0.52895539404E+01  0.51952265792E+01 -0.17641943899E+02  0.19136560425E+02  0.51100000000E-03 0.  1.
         12    1    4    4    0    0 -0.55290896294E+00 -0.29304331040E+01  0.21392591729E+01  0.36700921388E+01  0.00000000000E+00 0. -1.
</event>
<event>
 8    1  0.2500956E-006  0.9118800E+02  0.7816164E-02  0.1184000E+00
        -11   -1    0    0    0    0  0.00000000000E+00  0.00000000000E+00  0.45593999997E+02  0.45594000000E+02  0.51100000000E-03 0.  1.
         11   -1    0    0    0    0 -0.00000000000E+00 -0.00000000000E+00 -0.45593999997E+02  0.45594000000E+02  0.51100000000E-03 0. -1.
         23    2    1    2    0    0  0.00000000000E+00  0.88817841970E-15  0.00000000000E+00  0.91188000000E+02  0.91188000000E+02 0.  0.
    9900012    2    3    3    0    0 -0.13061540177E+02 -0.79644461985E+01  0.33492431607E+02  0.54367092760E+02  0.40000019565E+02 0.  0.
         12    1    3    3    0    0  0.13061540177E+02  0.79644461985E+01 -0.33492431607E+02  0.36820907240E+02  0.00000000000E+00 0. -1.
         11    1    4    4    0    0 -0.78912677874E+01 -0.14648026805E+02  0.10410661720E+02  0.19626988416E+02  0.51100000000E-03 0. -1.
        -11    1    4    4    0    0 -0.10422097870E+02 -0.61345113587E+01  0.11401612935E+02  0.16620744009E+02  0.51100000000E-03 0.  1.
        -12    1    4    4    0    0  0.52518254810E+01  0.12818091966E+02  0.11680156952E+02  0.18119360335E+02  0.00000000000E+00 0.  1.
</event>
<event>
 8    1  0.2500956E-006  0.9118800E+02  0.7816164E-02  0.1184000E+00
        -11   -1    0    0    0    0  0.00000000000E+00  0.00000000000E+00  0.45593999997E+02  0.45594000000E+02  0.51100000000E-03 0.  1.
         11   -1    0    0    0    0 -0.00000000000E+00 -0.00000000000E+00 -0.45593999997E+02  0.45594000000E+02  0.51100000000E-03 0. -1.
         23    2    1    2    0    0  0.17763568394E-14 -0.35527136788E-14  0.00000000000E+00  0.91188000000E+02  0.91188000000E+02 0.  0.
    9900012    2    3    3    0    0 -0.11653917296E+02  0.17366948086E+02 -0.30304363280E+02  0.54367094145E+02  0.40000022723E+02 0.  0.
        -12    1    3    3    0    0  0.11653917296E+02 -0.17366948086E+02  0.30304363280E+02  0.36820905855E+02  0.00000000000E+00 0.  1.
         11    1    4    4    0    0  0.46325484010E+01  0.21401728688E+02 -0.11684705584E+02  0.24819888000E+02  0.51100000000E-03 0. -1.
        -11    1    4    4    0    0 -0.16399729657E+01  0.18463341546E+01  0.22775454815E+01  0.33594158451E+01  0.51100000000E-03 0.  1.
         12    1    4    4    0    0 -0.14646492731E+02 -0.58811147569E+01 -0.20897203178E+02  0.26187790300E+02  0.00000000000E+00 0. -1.
</event>
<event>
 8    1  0.2500956E-006  0.9118800E+02  0.7816164E-02  0.1184000E+00
        -11   -1    0    0    0    0  0.00000000000E+00  0.00000000000E+00  0.45593999997E+02  0.45594000000E+02  0.51100000000E-03 0. -1.
         11   -1    0    0    0    0 -0.00000000000E+00 -0.00000000000E+00 -0.45593999997E+02  0.45594000000E+02  0.51100000000E-03 0.  1.
         23    2    1    2    0    0  0.13322676296E-14  0.17763568394E-14  0.00000000000E+00  0.91188000000E+02  0.91188000000E+02 0.  0.
    9900012    2    3    3    0    0 -0.27601875225E+01 -0.15794185510E+02  0.33146714641E+02  0.54367087157E+02  0.40000006792E+02 0.  0.
        -12    1    3    3    0    0  0.27601875225E+01  0.15794185510E+02 -0.33146714641E+02  0.36820912843E+02  0.00000000000E+00 0.  1.
         11    1    4    4    0    0  0.13568939430E+02 -0.49102902875E+01  0.62504020286E+01  0.15725603128E+02  0.51100000000E-03 0.  1.
        -11    1    4    4    0    0  0.31329527601E+01 -0.43457637059E+01  0.12402247329E+02  0.13509877655E+02  0.51100000000E-03 0. -1.
        -12    1    4    4    0    0 -0.19462079713E+02 -0.65381315171E+01  0.14494065284E+02  0.25131606374E+02  0.00000000000E+00 0.  1.
</event>
<event>
 8    1  0.2500956E-006  0.9118800E+02  0.7816164E-02  0.1184000E+00
        -11   -1    0    0    0    0  0.00000000000E+00  0.00000000000E+00  0.45593999997E+02  0.45594000000E+02  0.51100000000E-03 0. -1.
         11   -1    0    0    0    0 -0.00000000000E+00 -0.00000000000E+00 -0.45593999997E+02  0.45594000000E+02  0.51100000000E-03 0.  1.
         23    2    1    2    0    0  0.71054273576E-14  0.00000000000E+00  0.00000000000E+00  0.91188000000E+02  0.91188000000E+02 0.  0.
    9900012    2    3    3    0    0  0.25287843041E+02  0.18927247308E+02  0.18922616925E+02  0.54367066720E+02  0.39999960201E+02 0.  0.
         12    1    3    3    0    0 -0.25287843041E+02 -0.18927247308E+02 -0.18922616925E+02  0.36820933280E+02  0.00000000000E+00 0. -1.
         11    1    4    4    0    0  0.51735557817E+00 -0.90260323694E-01  0.35454223808E+01  0.35841071189E+01  0.51100000000E-03 0. -1.
        -11    1    4    4    0    0  0.40681751188E+01  0.13772305400E+02 -0.10086556394E+02  0.17548933443E+02  0.51100000000E-03 0.  1.
        -12    1    4    4    0    0  0.20702312344E+02  0.52452022322E+01  0.25463750938E+02  0.33234026158E+02  0.00000000000E+00 0.  1.
</event>
<event>
 8    1  0.2500956E-006  0.9118800E+02  0.7816164E-02  0.1184000E+00
        -11   -1    0    0    0    0  0.00000000000E+00  0.00000000000E+00  0.45593999997E+02  0.45594000000E+02  0.51100000000E-03 0.  1.
         11   -1    0    0    0    0 -0.00000000000E+00 -0.00000000000E+00 -0.45593999997E+02  0.45594000000E+02  0.51100000000E-03 0. -1.
         23    2    1    2    0    0 -0.35527136788E-14 -0.44408920985E-15  0.71054273576E-14  0.91188000000E+02  0.91188000000E+02 0.  0.
    9900012    2    3    3    0    0 -0.75831378067E+01 -0.15164876821E+01  0.35999678540E+02  0.54367074307E+02  0.39999977499E+02 0.  0.
         12    1    3    3    0    0  0.75831378067E+01  0.15164876821E+01 -0.35999678540E+02  0.36820925693E+02  0.00000000000E+00 0. -1.
         11    1    4    4    0    0  0.14589623912E+02  0.67395787040E+01  0.12338784240E+02  0.20261407744E+02  0.51100000000E-03 0. -1.
        -11    1    4    4    0    0 -0.19012587048E+02 -0.55407155138E+01  0.22052868832E+02  0.29639619070E+02  0.51100000000E-03 0.  1.
        -12    1    4    4    0    0 -0.31601746698E+01 -0.27153508724E+01  0.16080254686E+01  0.44660474932E+01  0.00000000000E+00 0.  1.
</event>
<event>
 8    1  0.2500956E-006  0.9118800E+02  0.7816164E-02  0.1184000E+00
        -11   -1    0    0    0    0  0.00000000000E+00  0.00000000000E+00  0.45593999997E+02  0.45594000000E+02  0.51100000000E-03 0. -1.
         11   -1    0    0    0    0 -0.00000000000E+00 -0.00000000000E+00 -0.45593999997E+02  0.45594000000E+02  0.51100000000E-03 0.  1.
         23    2    1    2    0    0  0.17763568394E-14 -0.35527136788E-14  0.35527136788E-14  0.91188000000E+02  0.91188000000E+02 0.  0.
    9900012    2    3    3    0    0 -0.10427191845E+02 -0.21400952086E+02  0.28090016140E+02  0.54367135172E+02  0.40000116251E+02 0.  0.
        -12    1    3    3    0    0  0.10427191845E+02  0.21400952086E+02 -0.28090016140E+02  0.36820864828E+02  0.00000000000E+00 0.  1.
         11    1    4    4    0    0  0.65638593910E+01  0.64859582232E+01  0.97049301774E+01  0.13391697958E+02  0.51100000000E-03 0. -1.
        -11    1    4    4    0    0 -0.23295278340E+01 -0.26475785186E+01 -0.31291279806E+01  0.47146382811E+01  0.51100000000E-03 0.  1.
        -12    1    4    4    0    0 -0.14661523401E+02 -0.25239331791E+02  0.21514213943E+02  0.36260798933E+02  0.00000000000E+00 0.  1.
</event>
<event>
 8    1  0.2500956E-006  0.9118800E+02  0.7816164E-02  0.1184000E+00
        -11   -1    0    0    0    0  0.00000000000E+00  0.00000000000E+00  0.45593999997E+02  0.45594000000E+02  0.51100000000E-03 0. -1.
         11   -1    0    0    0    0 -0.00000000000E+00 -0.00000000000E+00 -0.45593999997E+02  0.45594000000E+02  0.51100000000E-03 0.  1.
         23    2    1    2    0    0 -0.35527136788E-14  0.00000000000E+00  0.00000000000E+00  0.91188000000E+02  0.91188000000E+02 0.  0.
    9900012    2    3    3    0    0 -0.30724556880E+02  0.16523992259E+02 -0.11778771837E+02  0.54367079566E+02  0.39999989486E+02 0.  0.
         12    1    3    3    0    0  0.30724556880E+02 -0.16523992259E+02  0.11778771837E+02  0.36820920434E+02  0.00000000000E+00 0. -1.
         11    1    4    4    0    0  0.38449703182E+01 -0.63075463962E+01 -0.34446956083E+01  0.81507586385E+01  0.51100000000E-03 0. -1.
        -11    1    4    4    0    0 -0.18821777562E+02  0.19866188362E+02 -0.11831511595E+02  0.29814583973E+02  0.51100000000E-03 0.  1.
         12    1    4    4    0    0 -0.15747749636E+02  0.29653502930E+01  0.34974353667E+01  0.16401736954E+02  0.00000000000E+00 0. -1.
</event>
<event>
 8    1  0.2500956E-006  0.9118800E+02  0.7816164E-02  0.1184000E+00
        -11   -1    0    0    0    0  0.00000000000E+00  0.00000000000E+00  0.45593999997E+02  0.45594000000E+02  0.51100000000E-03 0.  1.
         11   -1    0    0    0    0 -0.00000000000E+00 -0.00000000000E+00 -0.45593999997E+02  0.45594000000E+02  0.51100000000E-03 0. -1.
         23    2    1    2    0    0  0.00000000000E+00  0.00000000000E+00 -0.11102230246E-14  0.91188000000E+02  0.91188000000E+02 0.  0.
    9900012    2    3    3    0    0 -0.24739849570E+02 -0.27235065677E+02  0.14041552416E+01  0.54367073733E+02  0.39999976190E+02 0.  0.
         12    1    3    3    0    0  0.24739849570E+02  0.27235065677E+02 -0.14041552416E+01  0.36820926267E+02  0.00000000000E+00 0. -1.
         11    1    4    4    0    0 -0.15274897111E+01 -0.11726644703E+02 -0.16366293465E+02  0.20191656268E+02  0.51100000000E-03 0. -1.
        -11    1    4    4    0    0 -0.10875805425E+02 -0.29922669787E+01  0.44596984809E+01  0.12129538990E+02  0.51100000000E-03 0.  1.
        -12    1    4    4    0    0 -0.12336554434E+02 -0.12516153995E+02  0.13310750226E+02  0.22045878475E+02  0.00000000000E+00 0.  1.
</event>
<event>
 8    1  0.2500956E-006  0.9118800E+02  0.7816164E-02  0.1184000E+00
        -11   -1    0    0    0    0  0.00000000000E+00  0.00000000000E+00  0.45593999997E+02  0.45594000000E+02  0.51100000000E-03 0.  1.
         11   -1    0    0    0    0 -0.00000000000E+00 -0.00000000000E+00 -0.45593999997E+02  0.45594000000E+02  0.51100000000E-03 0. -1.
         23    2    1    2    0    0  0.00000000000E+00 -0.35527136788E-14  0.00000000000E+00  0.91188000000E+02  0.91188000000E+02 0.  0.
    9900012    2    3    3    0    0 -0.92394975958E+01 -0.23421130813E+02  0.26867331566E+02  0.54367201667E+02  0.40000267840E+02 0.  0.
         12    1    3    3    0    0  0.92394975958E+01  0.23421130813E+02 -0.26867331566E+02  0.36820798333E+02  0.00000000000E+00 0. -1.
         11    1    4    4    0    0 -0.12500712286E+02 -0.27905529221E+02  0.25146270418E+02  0.39589408747E+02  0.51100000000E-03 0.  1.
        -11    1    4    4    0    0  0.59982712217E+01 -0.28955161169E+01  0.18246553793E+01  0.69059857186E+01  0.51100000000E-03 0. -1.
         12    1    4    4    0    0 -0.27370565319E+01  0.73799145248E+01 -0.10359423178E+00  0.78718072015E+01  0.00000000000E+00 0. -1.
</event>
<event>
 8    1  0.2500956E-006  0.9118800E+02  0.7816164E-02  0.1184000E+00
        -11   -1    0    0    0    0  0.00000000000E+00  0.00000000000E+00  0.45593999997E+02  0.45594000000E+02  0.51100000000E-03 0.  1.
         11   -1    0    0    0    0 -0.00000000000E+00 -0.00000000000E+00 -0.45593999997E+02  0.45594000000E+02  0.51100000000E-03 0. -1.
         23    2    1    2    0    0  0.00000000000E+00  0.00000000000E+00  0.00000000000E+00  0.91188000000E+02  0.91188000000E+02 0.  0.
    9900012    2    3    3    0    0 -0.16048756102E+02  0.22381442756E+02  0.24439488383E+02  0.54367080067E+02  0.39999990630E+02 0.  0.
         12    1    3    3    0    0  0.16048756102E+02 -0.22381442756E+02 -0.24439488383E+02  0.36820919933E+02  0.00000000000E+00 0. -1.
         11    1    4    4    0    0 -0.14557574510E+01  0.20692370946E+02  0.20266736535E+02  0.29000587152E+02  0.51100000000E-03 0. -1.
        -11    1    4    4    0    0  0.45416315376E+00  0.70473294187E+01  0.60300420251E+01  0.92861468431E+01  0.51100000000E-03 0.  1.
         12    1    4    4    0    0 -0.15047161805E+02 -0.53582576094E+01 -0.18572901769E+01  0.16080346072E+02  0.00000000000E+00 0. -1.
</event>
<event>
 8    1  0.2500956E-006  0.9118800E+02  0.7816164E-02  0.1184000E+00
        -11   -1    0    0    0    0  0.00000000000E+00  0.00000000000E+00  0.45593999997E+02  0.45594000000E+02  0.51100000000E-03 0. -1.
         11   -1    0    0    0    0 -0.00000000000E+00 -0.00000000000E+00 -0.45593999997E+02  0.45594000000E+02  0.51100000000E-03 0.  1.
         23    2    1    2    0    0 -0.35527136788E-14  0.00000000000E+00  0.00000000000E+00  0.91188000000E+02  0.91188000000E+02 0.  0.
    9900012    2    3    3    0    0  0.15078953217E+02 -0.24385004051E+02  0.23103619127E+02  0.54367075657E+02  0.39999980575E+02 0.  0.
        -12    1    3    3    0    0 -0.15078953217E+02  0.24385004051E+02 -0.23103619127E+02  0.36820924343E+02  0.00000000000E+00 0.  1.
         11    1    4    4    0    0 -0.29149567679E+01 -0.78306147207E+00  0.72982436428E+00  0.31052861529E+01  0.51100000000E-03 0. -1.
        -11    1    4    4    0    0  0.14787099124E+02 -0.27605626420E+02  0.32764511130E+01  0.31487522016E+02  0.51100000000E-03 0.  1.
         12    1    4    4    0    0  0.32068108611E+01  0.40036838408E+01  0.19097343650E+02  0.19774267488E+02  0.00000000000E+00 0. -1.
</event>
<event>
 8    1  0.2500956E-006  0.9118800E+02  0.7816164E-02  0.1184000E+00
        -11   -1    0    0    0    0  0.00000000000E+00  0.00000000000E+00  0.45593999997E+02  0.45594000000E+02  0.51100000000E-03 0.  1.
         11   -1    0    0    0    0 -0.00000000000E+00 -0.00000000000E+00 -0.45593999997E+02  0.45594000000E+02  0.51100000000E-03 0. -1.
         23    2    1    2    0    0  0.00000000000E+00  0.00000000000E+00  0.00000000000E+00  0.91188000000E+02  0.91188000000E+02 0.  0.
    9900012    2    3    3    0    0 -0.16012558412E+02  0.30164222534E+02 -0.13765787856E+02  0.54367092036E+02  0.40000017915E+02 0.  0.
         12    1    3    3    0    0  0.16012558412E+02 -0.30164222534E+02  0.13765787856E+02  0.36820907964E+02  0.00000000000E+00 0. -1.
         11    1    4    4    0    0 -0.91312305318E+01  0.22610134544E+02 -0.72996535110E+01  0.25453536037E+02  0.51100000000E-03 0. -1.
        -11    1    4    4    0    0 -0.15878293838E+02  0.10048981002E+02 -0.51564220635E+01  0.19485659423E+02  0.51100000000E-03 0.  1.
         12    1    4    4    0    0  0.89969659586E+01 -0.24948930116E+01 -0.13097122818E+01  0.94278965767E+01  0.00000000000E+00 0. -1.
</event>
<event>
 8    1  0.2500956E-006  0.9118800E+02  0.7816164E-02  0.1184000E+00
        -11   -1    0    0    0    0  0.00000000000E+00  0.00000000000E+00  0.45593999997E+02  0.45594000000E+02  0.51100000000E-03 0.  1.
         11   -1    0    0    0    0 -0.00000000000E+00 -0.00000000000E+00 -0.45593999997E+02  0.45594000000E+02  0.51100000000E-03 0. -1.
         23    2    1    2    0    0  0.66613381478E-15  0.14210854715E-13 -0.11102230246E-15  0.91188000000E+02  0.91188000000E+02 0.  0.
    9900012    2    3    3    0    0  0.69230937057E+00 -0.36809843697E+02  0.57826285910E+00  0.54367105481E+02  0.40000048565E+02 0.  0.
        -12    1    3    3    0    0 -0.69230937057E+00  0.36809843697E+02 -0.57826285910E+00  0.36820894519E+02  0.00000000000E+00 0.  1.
         11    1    4    4    0    0  0.16148524366E+01  0.15081970189E+01 -0.43577701430E+01  0.48859561521E+01  0.51100000000E-03 0.  1.
        -11    1    4    4    0    0 -0.13828540364E+02 -0.28934578079E+02 -0.18919021447E+01  0.32125031224E+02  0.51100000000E-03 0. -1.
         12    1    4    4    0    0  0.12905997298E+02 -0.93834626365E+01  0.68279351468E+01  0.17356118105E+02  0.00000000000E+00 0. -1.
</event>
<event>
 8    1  0.2500956E-006  0.9118800E+02  0.7816164E-02  0.1184000E+00
        -11   -1    0    0    0    0  0.00000000000E+00  0.00000000000E+00  0.45593999997E+02  0.45594000000E+02  0.51100000000E-03 0.  1.
         11   -1    0    0    0    0 -0.00000000000E+00 -0.00000000000E+00 -0.45593999997E+02  0.45594000000E+02  0.51100000000E-03 0. -1.
         23    2    1    2    0    0  0.00000000000E+00  0.88817841970E-15  0.88817841970E-15  0.91188000000E+02  0.91188000000E+02 0.  0.
    9900012    2    3    3    0    0 -0.36190850044E+02 -0.60385426048E+01  0.30883523648E+01  0.54367088224E+02  0.40000009225E+02 0.  0.
         12    1    3    3    0    0  0.36190850044E+02  0.60385426048E+01 -0.30883523648E+01  0.36820911776E+02  0.00000000000E+00 0. -1.
         11    1    4    4    0    0 -0.32700919898E+02 -0.85339529895E+01  0.20406773097E+01  0.33857685685E+02  0.51100000000E-03 0. -1.
        -11    1    4    4    0    0  0.45890793054E+01 -0.54924594504E+01 -0.38619946546E+01  0.81327586131E+01  0.51100000000E-03 0.  1.
         12    1    4    4    0    0 -0.80790094506E+01  0.79878698352E+01  0.49096697097E+01  0.12376643926E+02  0.00000000000E+00 0. -1.
</event>
<event>
 8    1  0.2500956E-006  0.9118800E+02  0.7816164E-02  0.1184000E+00
        -11   -1    0    0    0    0  0.00000000000E+00  0.00000000000E+00  0.45593999997E+02  0.45594000000E+02  0.51100000000E-03 0.  1.
         11   -1    0    0    0    0 -0.00000000000E+00 -0.00000000000E+00 -0.45593999997E+02  0.45594000000E+02  0.51100000000E-03 0. -1.
         23    2    1    2    0    0  0.00000000000E+00 -0.17763568394E-14  0.00000000000E+00  0.91188000000E+02  0.91188000000E+02 0.  0.
    9900012    2    3    3    0    0 -0.67027759958E+01 -0.64332079960E+01  0.35629580478E+02  0.54367076923E+02  0.39999983462E+02 0.  0.
         12    1    3    3    0    0  0.67027759958E+01  0.64332079960E+01 -0.35629580478E+02  0.36820923077E+02  0.00000000000E+00 0. -1.
         11    1    4    4    0    0 -0.13511074774E+02  0.72063515833E+01  0.87087725738E+00  0.15337505409E+02  0.51100000000E-03 0. -1.
        -11    1    4    4    0    0  0.45593662407E+01 -0.10881936039E+02  0.15686815819E+02  0.19628564473E+02  0.51100000000E-03 0.  1.
         12    1    4    4    0    0  0.22489325380E+01 -0.27576235402E+01  0.19071887402E+02  0.19401007041E+02  0.00000000000E+00 0. -1.
</event>
<event>
 8    1  0.2500956E-006  0.9118800E+02  0.7816164E-02  0.1184000E+00
        -11   -1    0    0    0    0  0.00000000000E+00  0.00000000000E+00  0.45593999997E+02  0.45594000000E+02  0.51100000000E-03 0. -1.
         11   -1    0    0    0    0 -0.00000000000E+00 -0.00000000000E+00 -0.45593999997E+02  0.45594000000E+02  0.51100000000E-03 0.  1.
         23    2    1    2    0    0  0.00000000000E+00  0.71054273576E-14 -0.17763568394E-14  0.91188000000E+02  0.91188000000E+02 0.  0.
    9900012    2    3    3    0    0 -0.10670972932E+02 -0.33297709805E+02 -0.11540386542E+02  0.54366977973E+02  0.39999757885E+02 0.  0.
         12    1    3    3    0    0  0.10670972932E+02  0.33297709805E+02  0.11540386542E+02  0.36821022027E+02  0.00000000000E+00 0. -1.
         11    1    4    4    0    0  0.12995746361E+01 -0.13453012904E+02 -0.71450747982E+01  0.15288052347E+02  0.51100000000E-03 0. -1.
        -11    1    4    4    0    0 -0.22012721615E+02 -0.15932090677E+02 -0.68542859726E+01  0.28024501114E+02  0.51100000000E-03 0.  1.
         12    1    4    4    0    0  0.10042174046E+02 -0.39126062232E+01  0.24589742291E+01  0.11054424512E+02  0.00000000000E+00 0. -1.
</event>
<event>
 8    1  0.2500956E-006  0.9118800E+02  0.7816164E-02  0.1184000E+00
        -11   -1    0    0    0    0  0.00000000000E+00  0.00000000000E+00  0.45593999997E+02  0.45594000000E+02  0.51100000000E-03 0.  1.
         11   -1    0    0    0    0 -0.00000000000E+00 -0.00000000000E+00 -0.45593999997E+02  0.45594000000E+02  0.51100000000E-03 0. -1.
         23    2    1    2    0    0 -0.35527136788E-14  0.00000000000E+00  0.35527136788E-14  0.91188000000E+02  0.91188000000E+02 0.  0.
    9900012    2    3    3    0    0 -0.18349506309E+02  0.10738818889E+02  0.30062499650E+02  0.54367075268E+02  0.39999979689E+02 0.  0.
         12    1    3    3    0    0  0.18349506309E+02 -0.10738818889E+02 -0.30062499650E+02  0.36820924732E+02  0.00000000000E+00 0. -1.
         11    1    4    4    0    0 -0.14477269669E+02  0.66446489041E+01 -0.45356201340E+01  0.16562443853E+02  0.51100000000E-03 0. -1.
        -11    1    4    4    0    0  0.42571653725E+01  0.44573703013E+01  0.87291717659E+01  0.10685974312E+02  0.51100000000E-03 0.  1.
         12    1    4    4    0    0 -0.81294020130E+01 -0.36320031646E+00  0.25868948018E+02  0.27118657104E+02  0.00000000000E+00 0. -1.
</event>
<event>
 8    1  0.2500956E-006  0.9118800E+02  0.7816164E-02  0.1184000E+00
        -11   -1    0    0    0    0  0.00000000000E+00  0.00000000000E+00  0.45593999997E+02  0.45594000000E+02  0.51100000000E-03 0.  1.
         11   -1    0    0    0    0 -0.00000000000E+00 -0.00000000000E+00 -0.45593999997E+02  0.45594000000E+02  0.51100000000E-03 0. -1.
         23    2    1    2    0    0  0.00000000000E+00 -0.35527136788E-14  0.00000000000E+00  0.91188000000E+02  0.91188000000E+02 0.  0.
    9900012    2    3    3    0    0 -0.25241650469E+02  0.13737093886E+02  0.23020262282E+02  0.54367066520E+02  0.39999959745E+02 0.  0.
         12    1    3    3    0    0  0.25241650469E+02 -0.13737093886E+02 -0.23020262282E+02  0.36820933480E+02  0.00000000000E+00 0. -1.
         11    1    4    4    0    0 -0.10899485217E+01  0.17646744571E+02  0.40553326203E+01  0.18139495711E+02  0.51100000000E-03 0. -1.
        -11    1    4    4    0    0 -0.20712652861E+02  0.37758674812E+01  0.82795902323E+01  0.22623500579E+02  0.51100000000E-03 0.  1.
        -12    1    4    4    0    0 -0.34390490865E+01 -0.76855181660E+01  0.10685339430E+02  0.13604070230E+02  0.00000000000E+00 0.  1.
</event>
<event>
 8    1  0.2500956E-006  0.9118800E+02  0.7816164E-02  0.1184000E+00
        -11   -1    0    0    0    0  0.00000000000E+00  0.00000000000E+00  0.45593999997E+02  0.45594000000E+02  0.51100000000E-03 0.  1.
         11   -1    0    0    0    0 -0.00000000000E+00 -0.00000000000E+00 -0.45593999997E+02  0.45594000000E+02  0.51100000000E-03 0. -1.
         23    2    1    2    0    0  0.17763568394E-14 -0.71054273576E-14  0.13322676296E-14  0.91188000000E+02  0.91188000000E+02 0.  0.
    9900012    2    3    3    0    0 -0.89929882256E+01  0.35497446997E+02 -0.38523043201E+01  0.54367043615E+02  0.39999907528E+02 0.  0.
        -12    1    3    3    0    0  0.89929882256E+01 -0.35497446997E+02  0.38523043201E+01  0.36820956385E+02  0.00000000000E+00 0.  1.
         11    1    4    4    0    0  0.27885847327E+01 -0.20690107697E+00 -0.98974236561E+01  0.10284843614E+02  0.51100000000E-03 0. -1.
        -11    1    4    4    0    0 -0.16163198224E+02  0.14505921688E+02  0.44294768461E+00  0.21722498562E+02  0.51100000000E-03 0.  1.
        -12    1    4    4    0    0  0.43816252662E+01  0.21198426386E+02  0.56021716514E+01  0.22359701439E+02  0.00000000000E+00 0.  1.
</event>
<event>
 8    1  0.2500956E-006  0.9118800E+02  0.7816164E-02  0.1184000E+00
        -11   -1    0    0    0    0  0.00000000000E+00  0.00000000000E+00  0.45593999997E+02  0.45594000000E+02  0.51100000000E-03 0.  1.
         11   -1    0    0    0    0 -0.00000000000E+00 -0.00000000000E+00 -0.45593999997E+02  0.45594000000E+02  0.51100000000E-03 0. -1.
         23    2    1    2    0    0  0.71054273576E-14 -0.17763568394E-14  0.66613381478E-15  0.91188000000E+02  0.91188000000E+02 0.  0.
    9900012    2    3    3    0    0  0.33870131866E+02  0.14413981082E+02 -0.91026856731E+00  0.54367119075E+02  0.40000079555E+02 0.  0.
        -12    1    3    3    0    0 -0.33870131866E+02 -0.14413981082E+02  0.91026856731E+00  0.36820880925E+02  0.00000000000E+00 0.  1.
         11    1    4    4    0    0  0.72597687815E+01  0.17405763240E+01 -0.41744857846E+01  0.85533724651E+01  0.51100000000E-03 0. -1.
        -11    1    4    4    0    0 -0.25983224004E+01  0.80689651701E-01 -0.10746979101E+02  0.11056914134E+02  0.51100000000E-03 0.  1.
        -12    1    4    4    0    0  0.29208685484E+02  0.12592715107E+02  0.14011196318E+02  0.34756832476E+02  0.00000000000E+00 0.  1.
</event>
<event>
 8    1  0.2500956E-006  0.9118800E+02  0.7816164E-02  0.1184000E+00
        -11   -1    0    0    0    0  0.00000000000E+00  0.00000000000E+00  0.45593999997E+02  0.45594000000E+02  0.51100000000E-03 0. -1.
         11   -1    0    0    0    0 -0.00000000000E+00 -0.00000000000E+00 -0.45593999997E+02  0.45594000000E+02  0.51100000000E-03 0.  1.
         23    2    1    2    0    0  0.00000000000E+00 -0.17763568394E-14  0.35527136788E-14  0.91188000000E+02  0.91188000000E+02 0.  0.
    9900012    2    3    3    0    0 -0.25857642733E+02 -0.67041816214E+01  0.25341963009E+02  0.54367097946E+02  0.40000031387E+02 0.  0.
        -12    1    3    3    0    0  0.25857642733E+02  0.67041816214E+01 -0.25341963009E+02  0.36820902054E+02  0.00000000000E+00 0.  1.
         11    1    4    4    0    0 -0.25104403279E+02 -0.89459916983E+01  0.12205045674E+02  0.29312539495E+02  0.51100000000E-03 0. -1.
        -11    1    4    4    0    0 -0.89365136914E+00  0.69621781781E+01 -0.34408405475E+01  0.78172835236E+01  0.51100000000E-03 0.  1.
        -12    1    4    4    0    0  0.14041191492E+00 -0.47203681013E+01  0.16577757883E+02  0.17237274928E+02  0.00000000000E+00 0.  1.
</event>
<event>
 8    1  0.2500956E-006  0.9118800E+02  0.7816164E-02  0.1184000E+00
        -11   -1    0    0    0    0  0.00000000000E+00  0.00000000000E+00  0.45593999997E+02  0.45594000000E+02  0.51100000000E-03 0.  1.
         11   -1    0    0    0    0 -0.00000000000E+00 -0.00000000000E+00 -0.45593999997E+02  0.45594000000E+02  0.51100000000E-03 0. -1.
         23    2    1    2    0    0  0.17763568394E-14  0.00000000000E+00  0.00000000000E+00  0.91188000000E+02  0.91188000000E+02 0.  0.
    9900012    2    3    3    0    0  0.15778696072E+02  0.32870413907E+02  0.51331787896E+01  0.54367070020E+02  0.39999967724E+02 0.  0.
         12    1    3    3    0    0 -0.15778696072E+02 -0.32870413907E+02 -0.51331787896E+01  0.36820929980E+02  0.00000000000E+00 0. -1.
         11    1    4    4    0    0 -0.10112386696E+01 -0.34515063209E+01 -0.27072521421E+01  0.45016345867E+01  0.51100000000E-03 0. -1.
        -11    1    4    4    0    0 -0.75523752120E+01  0.35870070224E+01  0.24807784730E+01  0.87211956069E+01  0.51100000000E-03 0.  1.
        -12    1    4    4    0    0  0.24342309953E+02  0.32734913205E+02  0.53596524587E+01  0.41144239826E+02  0.00000000000E+00 0.  1.
</event>
<event>
 8    1  0.2500956E-006  0.9118800E+02  0.7816164E-02  0.1184000E+00
        -11   -1    0    0    0    0  0.00000000000E+00  0.00000000000E+00  0.45593999997E+02  0.45594000000E+02  0.51100000000E-03 0.  1.
         11   -1    0    0    0    0 -0.00000000000E+00 -0.00000000000E+00 -0.45593999997E+02  0.45594000000E+02  0.51100000000E-03 0. -1.
         23    2    1    2    0    0  0.17763568394E-14  0.00000000000E+00  0.35527136788E-14  0.91188000000E+02  0.91188000000E+02 0.  0.
    9900012    2    3    3    0    0 -0.10189936808E+02  0.19737810721E+02 -0.29366006598E+02  0.54367104740E+02  0.40000046877E+02 0.  0.
        -12    1    3    3    0    0  0.10189936808E+02 -0.19737810721E+02  0.29366006598E+02  0.36820895260E+02  0.00000000000E+00 0.  1.
         11    1    4    4    0    0 -0.14420058138E+02  0.10910341425E+02 -0.38712412437E+01  0.18492164172E+02  0.51100000000E-03 0.  1.
        -11    1    4    4    0    0  0.13654178378E+02  0.24940925901E+01 -0.14371853231E+02  0.19980171435E+02  0.51100000000E-03 0. -1.
         12    1    4    4    0    0 -0.94240570469E+01  0.63333767063E+01 -0.11122912124E+02  0.15894769134E+02  0.00000000000E+00 0. -1.
</event>
<event>
 8    1  0.2500956E-006  0.9118800E+02  0.7816164E-02  0.1184000E+00
        -11   -1    0    0    0    0  0.00000000000E+00  0.00000000000E+00  0.45593999997E+02  0.45594000000E+02  0.51100000000E-03 0.  1.
         11   -1    0    0    0    0 -0.00000000000E+00 -0.00000000000E+00 -0.45593999997E+02  0.45594000000E+02  0.51100000000E-03 0. -1.
         23    2    1    2    0    0  0.00000000000E+00  0.00000000000E+00  0.00000000000E+00  0.91188000000E+02  0.91188000000E+02 0.  0.
    9900012    2    3    3    0    0 -0.18906051105E+02  0.19172861818E+02  0.25114578311E+02  0.54367089603E+02  0.40000012369E+02 0.  0.
         12    1    3    3    0    0  0.18906051105E+02 -0.19172861818E+02 -0.25114578311E+02  0.36820910397E+02  0.00000000000E+00 0. -1.
         11    1    4    4    0    0 -0.46628179528E+01  0.13890220730E+02 -0.59694837543E+01  0.15821341275E+02  0.51100000000E-03 0. -1.
        -11    1    4    4    0    0 -0.17900630442E+02  0.35747160342E+01  0.21874594159E+02  0.28490507802E+02  0.51100000000E-03 0.  1.
        -12    1    4    4    0    0  0.36573972894E+01  0.17079250539E+01  0.92094679062E+01  0.10055240526E+02  0.00000000000E+00 0.  1.
</event>
<event>
 8    1  0.2500956E-006  0.9118800E+02  0.7816164E-02  0.1184000E+00
        -11   -1    0    0    0    0  0.00000000000E+00  0.00000000000E+00  0.45593999997E+02  0.45594000000E+02  0.51100000000E-03 0. -1.
         11   -1    0    0    0    0 -0.00000000000E+00 -0.00000000000E+00 -0.45593999997E+02  0.45594000000E+02  0.51100000000E-03 0.  1.
         23    2    1    2    0    0  0.00000000000E+00  0.17763568394E-14  0.00000000000E+00  0.91188000000E+02  0.91188000000E+02 0.  0.
    9900012    2    3    3    0    0  0.29218406814E+02 -0.11699060512E+02 -0.19110091801E+02  0.54367096667E+02  0.40000028473E+02 0.  0.
         12    1    3    3    0    0 -0.29218406814E+02  0.11699060512E+02  0.19110091801E+02  0.36820903333E+02  0.00000000000E+00 0. -1.
         11    1    4    4    0    0  0.14816495073E+02  0.63173326615E+01 -0.76154057008E+01  0.17816610858E+02  0.51100000000E-03 0. -1.
        -11    1    4    4    0    0  0.90156231240E+01 -0.23544341863E+02 -0.35260832195E+01  0.25456841069E+02  0.51100000000E-03 0.  1.
        -12    1    4    4    0    0  0.53862886167E+01  0.55279486892E+01 -0.79686028804E+01  0.11093644741E+02  0.00000000000E+00 0.  1.
</event>
<event>
 8    1  0.2500956E-006  0.9118800E+02  0.7816164E-02  0.1184000E+00
        -11   -1    0    0    0    0  0.00000000000E+00  0.00000000000E+00  0.45593999997E+02  0.45594000000E+02  0.51100000000E-03 0. -1.
         11   -1    0    0    0    0 -0.00000000000E+00 -0.00000000000E+00 -0.45593999997E+02  0.45594000000E+02  0.51100000000E-03 0.  1.
         23    2    1    2    0    0  0.35527136788E-14 -0.17763568394E-14  0.35527136788E-14  0.91188000000E+02  0.91188000000E+02 0.  0.
    9900012    2    3    3    0    0  0.27625445410E+02 -0.15211521539E+02 -0.19005892969E+02  0.54367087611E+02  0.40000007826E+02 0.  0.
        -12    1    3    3    0    0 -0.27625445410E+02  0.15211521539E+02  0.19005892969E+02  0.36820912389E+02  0.00000000000E+00 0.  1.
         11    1    4    4    0    0  0.47444797491E+01 -0.10923936675E+02  0.31031813011E+00  0.11913806200E+02  0.51100000000E-03 0. -1.
        -11    1    4    4    0    0  0.37445103881E+01  0.51556192412E+01 -0.20113617014E+02  0.21098799905E+02  0.51100000000E-03 0.  1.
        -12    1    4    4    0    0  0.19136455273E+02 -0.94432041058E+01  0.79740591502E+00  0.21354481506E+02  0.00000000000E+00 0.  1.
</event>
<event>
 8    1  0.2500956E-006  0.9118800E+02  0.7816164E-02  0.1184000E+00
        -11   -1    0    0    0    0  0.00000000000E+00  0.00000000000E+00  0.45593999997E+02  0.45594000000E+02  0.51100000000E-03 0.  1.
         11   -1    0    0    0    0 -0.00000000000E+00 -0.00000000000E+00 -0.45593999997E+02  0.45594000000E+02  0.51100000000E-03 0. -1.
         23    2    1    2    0    0  0.00000000000E+00 -0.44408920985E-15  0.00000000000E+00  0.91188000000E+02  0.91188000000E+02 0.  0.
    9900012    2    3    3    0    0  0.29101190818E+02 -0.35653913933E+01  0.22275290982E+02  0.54367083238E+02  0.39999997858E+02 0.  0.
         12    1    3    3    0    0 -0.29101190818E+02  0.35653913933E+01 -0.22275290982E+02  0.36820916762E+02  0.00000000000E+00 0. -1.
         11    1    4    4    0    0 -0.47745015373E+01 -0.46728824395E+00  0.98504204920E+01  0.10956505253E+02  0.51100000000E-03 0. -1.
        -11    1    4    4    0    0  0.26798943648E+02  0.16982362017E+01 -0.16930360583E+01  0.26906017138E+02  0.51100000000E-03 0.  1.
        -12    1    4    4    0    0  0.70767487074E+01 -0.47963393511E+01  0.14117906549E+02  0.16504560847E+02  0.00000000000E+00 0.  1.
</event>
<event>
 8    1  0.2500956E-006  0.9118800E+02  0.7816164E-02  0.1184000E+00
        -11   -1    0    0    0    0  0.00000000000E+00  0.00000000000E+00  0.45593999997E+02  0.45594000000E+02  0.51100000000E-03 0. -1.
         11   -1    0    0    0    0 -0.00000000000E+00 -0.00000000000E+00 -0.45593999997E+02  0.45594000000E+02  0.51100000000E-03 0.  1.
         23    2    1    2    0    0  0.00000000000E+00 -0.17763568394E-14  0.17763568394E-14  0.91188000000E+02  0.91188000000E+02 0.  0.
    9900012    2    3    3    0    0  0.32519263158E+02 -0.98024272973E+01 -0.14219364643E+02  0.54367076762E+02  0.39999983094E+02 0.  0.
         12    1    3    3    0    0 -0.32519263158E+02  0.98024272973E+01  0.14219364643E+02  0.36820923238E+02  0.00000000000E+00 0. -1.
         11    1    4    4    0    0  0.71096242636E+01 -0.13719314597E+01  0.10415021807E+01  0.73153045154E+01  0.51100000000E-03 0. -1.
        -11    1    4    4    0    0 -0.25802858765E+01 -0.10050034573E+02  0.58904897693E+01  0.11931426575E+02  0.51100000000E-03 0.  1.
        -12    1    4    4    0    0  0.27989924771E+02  0.16195387355E+01 -0.21151356593E+02  0.35120345672E+02  0.00000000000E+00 0.  1.
</event>
<event>
 8    1  0.2500956E-006  0.9118800E+02  0.7816164E-02  0.1184000E+00
        -11   -1    0    0    0    0  0.00000000000E+00  0.00000000000E+00  0.45593999997E+02  0.45594000000E+02  0.51100000000E-03 0.  1.
         11   -1    0    0    0    0 -0.00000000000E+00 -0.00000000000E+00 -0.45593999997E+02  0.45594000000E+02  0.51100000000E-03 0. -1.
         23    2    1    2    0    0  0.00000000000E+00 -0.88817841970E-15  0.00000000000E+00  0.91188000000E+02  0.91188000000E+02 0.  0.
    9900012    2    3    3    0    0  0.25996687440E+02 -0.33839415739E+01 -0.25855397238E+02  0.54367076807E+02  0.39999983197E+02 0.  0.
        -12    1    3    3    0    0 -0.25996687440E+02  0.33839415739E+01  0.25855397238E+02  0.36820923193E+02  0.00000000000E+00 0.  1.
         11    1    4    4    0    0  0.13373202032E+02  0.42536440703E+01 -0.13812128271E+02  0.19690376028E+02  0.51100000000E-03 0. -1.
        -11    1    4    4    0    0 -0.13507011273E+01  0.41834533217E+01  0.69984015687E+01  0.82645810546E+01  0.51100000000E-03 0.  1.
         12    1    4    4    0    0  0.13974186535E+02 -0.11821038966E+02 -0.19041670536E+02  0.26412119725E+02  0.00000000000E+00 0. -1.
</event>
<event>
 8    1  0.2500956E-006  0.9118800E+02  0.7816164E-02  0.1184000E+00
        -11   -1    0    0    0    0  0.00000000000E+00  0.00000000000E+00  0.45593999997E+02  0.45594000000E+02  0.51100000000E-03 0. -1.
         11   -1    0    0    0    0 -0.00000000000E+00 -0.00000000000E+00 -0.45593999997E+02  0.45594000000E+02  0.51100000000E-03 0.  1.
         23    2    1    2    0    0  0.00000000000E+00  0.00000000000E+00  0.00000000000E+00  0.91188000000E+02  0.91188000000E+02 0.  0.
    9900012    2    3    3    0    0  0.27953424961E+02  0.17419483213E+02  0.16460481238E+02  0.54367084679E+02  0.40000001144E+02 0.  0.
        -12    1    3    3    0    0 -0.27953424961E+02 -0.17419483213E+02 -0.16460481238E+02  0.36820915321E+02  0.00000000000E+00 0.  1.
         11    1    4    4    0    0 -0.68974092246E-01 -0.81386801760E+00  0.86757762587E+01  0.87141398042E+01  0.51100000000E-03 0. -1.
        -11    1    4    4    0    0  0.23510331679E+02  0.66261742559E+01  0.17340761736E+02  0.29955698937E+02  0.51100000000E-03 0.  1.
        -12    1    4    4    0    0  0.45120673741E+01  0.11607176975E+02 -0.95560567570E+01  0.15697245938E+02  0.00000000000E+00 0.  1.
</event>
<event>
 8    1  0.2500956E-006  0.9118800E+02  0.7816164E-02  0.1184000E+00
        -11   -1    0    0    0    0  0.00000000000E+00  0.00000000000E+00  0.45593999997E+02  0.45594000000E+02  0.51100000000E-03 0.  1.
         11   -1    0    0    0    0 -0.00000000000E+00 -0.00000000000E+00 -0.45593999997E+02  0.45594000000E+02  0.51100000000E-03 0. -1.
         23    2    1    2    0    0  0.17763568394E-14  0.35527136788E-14  0.00000000000E+00  0.91188000000E+02  0.91188000000E+02 0.  0.
    9900012    2    3    3    0    0  0.13829445959E+02  0.31824897170E+02 -0.12316657684E+02  0.54367113103E+02  0.40000065940E+02 0.  0.
        -12    1    3    3    0    0 -0.13829445959E+02 -0.31824897170E+02  0.12316657684E+02  0.36820886897E+02  0.00000000000E+00 0.  1.
         11    1    4    4    0    0  0.10121276261E+01  0.21555270810E+02 -0.20368263804E+02  0.29673561847E+02  0.51100000000E-03 0. -1.
        -11    1    4    4    0    0  0.16749731655E+02  0.90163659514E+01  0.53487545735E+01  0.19759998513E+02  0.51100000000E-03 0.  1.
        -12    1    4    4    0    0 -0.39324133220E+01  0.12532604084E+01  0.27028515464E+01  0.49335527430E+01  0.00000000000E+00 0.  1.
</event>
<event>
 8    1  0.2500956E-006  0.9118800E+02  0.7816164E-02  0.1184000E+00
        -11   -1    0    0    0    0  0.00000000000E+00  0.00000000000E+00  0.45593999997E+02  0.45594000000E+02  0.51100000000E-03 0.  1.
         11   -1    0    0    0    0 -0.00000000000E+00 -0.00000000000E+00 -0.45593999997E+02  0.45594000000E+02  0.51100000000E-03 0. -1.
         23    2    1    2    0    0 -0.35527136788E-14 -0.88817841970E-15 -0.35527136788E-14  0.91188000000E+02  0.91188000000E+02 0.  0.
    9900012    2    3    3    0    0 -0.22639813516E+02 -0.63927165552E+01 -0.28325819314E+02  0.54367081750E+02  0.39999994465E+02 0.  0.
        -12    1    3    3    0    0  0.22639813516E+02  0.63927165552E+01  0.28325819314E+02  0.36820918250E+02  0.00000000000E+00 0.  1.
         11    1    4    4    0    0 -0.37593366263E+01 -0.54658467792E+01 -0.50938419864E+01  0.83639296582E+01  0.51100000000E-03 0. -1.
        -11    1    4    4    0    0  0.24103601881E+01 -0.10681802850E+02  0.24765275323E+01  0.11226929110E+02  0.51100000000E-03 0.  1.
         12    1    4    4    0    0 -0.21290837077E+02  0.97549330742E+01 -0.25708504860E+02  0.34776222982E+02  0.00000000000E+00 0. -1.
</event>
<event>
 8    1  0.2500956E-006  0.9118800E+02  0.7816164E-02  0.1184000E+00
        -11   -1    0    0    0    0  0.00000000000E+00  0.00000000000E+00  0.45593999997E+02  0.45594000000E+02  0.51100000000E-03 0.  1.
         11   -1    0    0    0    0 -0.00000000000E+00 -0.00000000000E+00 -0.45593999997E+02  0.45594000000E+02  0.51100000000E-03 0. -1.
         23    2    1    2    0    0  0.00000000000E+00 -0.44408920985E-15 -0.35527136788E-14  0.91188000000E+02  0.91188000000E+02 0.  0.
    9900012    2    3    3    0    0 -0.32653220113E+02 -0.33998899421E+01 -0.16672987877E+02  0.54367074426E+02  0.39999977769E+02 0.  0.
         12    1    3    3    0    0  0.32653220113E+02  0.33998899421E+01  0.16672987877E+02  0.36820925574E+02  0.00000000000E+00 0. -1.
         11    1    4    4    0    0 -0.38503805620E+01 -0.40747512276E+01  0.24003348267E+01  0.60984125459E+01  0.51100000000E-03 0. -1.
        -11    1    4    4    0    0 -0.16950387060E+02  0.42954933866E+01  0.74389874135E+01  0.19002773979E+02  0.51100000000E-03 0.  1.
         12    1    4    4    0    0 -0.11852452491E+02 -0.36206321011E+01 -0.26512310117E+02  0.29265887901E+02  0.00000000000E+00 0. -1.
</event>
<event>
 8    1  0.2500956E-006  0.9118800E+02  0.7816164E-02  0.1184000E+00
        -11   -1    0    0    0    0  0.00000000000E+00  0.00000000000E+00  0.45593999997E+02  0.45594000000E+02  0.51100000000E-03 0. -1.
         11   -1    0    0    0    0 -0.00000000000E+00 -0.00000000000E+00 -0.45593999997E+02  0.45594000000E+02  0.51100000000E-03 0.  1.
         23    2    1    2    0    0 -0.35527136788E-14 -0.44408920985E-15  0.00000000000E+00  0.91188000000E+02  0.91188000000E+02 0.  0.
    9900012    2    3    3    0    0  0.18007250216E+02  0.35341856289E+01  0.31922233319E+02  0.54367075127E+02  0.39999979368E+02 0.  0.
        -12    1    3    3    0    0 -0.18007250216E+02 -0.35341856289E+01 -0.31922233319E+02  0.36820924873E+02  0.00000000000E+00 0.  1.
         11    1    4    4    0    0  0.17497960652E+02 -0.65926383757E+01  0.12056088887E+02  0.22248388419E+02  0.51100000000E-03 0. -1.
        -11    1    4    4    0    0 -0.52627194894E+01  0.12447899881E+02  0.21760253275E+02  0.25615523628E+02  0.51100000000E-03 0.  1.
        -12    1    4    4    0    0  0.57720090536E+01 -0.23210758768E+01 -0.18941088433E+01  0.65031630804E+01  0.00000000000E+00 0.  1.
</event>
<event>
 8    1  0.2500956E-006  0.9118800E+02  0.7816164E-02  0.1184000E+00
        -11   -1    0    0    0    0  0.00000000000E+00  0.00000000000E+00  0.45593999997E+02  0.45594000000E+02  0.51100000000E-03 0.  1.
         11   -1    0    0    0    0 -0.00000000000E+00 -0.00000000000E+00 -0.45593999997E+02  0.45594000000E+02  0.51100000000E-03 0. -1.
         23    2    1    2    0    0  0.00000000000E+00  0.35527136788E-14  0.00000000000E+00  0.91188000000E+02  0.91188000000E+02 0.  0.
    9900012    2    3    3    0    0 -0.83807221593E+01 -0.23543606222E+02  0.27041493316E+02  0.54367078520E+02  0.39999987103E+02 0.  0.
         12    1    3    3    0    0  0.83807221593E+01  0.23543606222E+02 -0.27041493316E+02  0.36820921480E+02  0.00000000000E+00 0. -1.
         11    1    4    4    0    0 -0.71465117091E-02  0.98371226893E+01  0.12127269784E+02  0.15615367640E+02  0.51100000000E-03 0. -1.
        -11    1    4    4    0    0 -0.27238651337E+01 -0.23254786122E+02  0.61250287970E+01  0.24201663101E+02  0.51100000000E-03 0.  1.
         12    1    4    4    0    0 -0.56497105139E+01 -0.10125942790E+02  0.87891947353E+01  0.14550047779E+02  0.00000000000E+00 0. -1.
</event>
<event>
 8    1  0.2500956E-006  0.9118800E+02  0.7816164E-02  0.1184000E+00
        -11   -1    0    0    0    0  0.00000000000E+00  0.00000000000E+00  0.45593999997E+02  0.45594000000E+02  0.51100000000E-03 0. -1.
         11   -1    0    0    0    0 -0.00000000000E+00 -0.00000000000E+00 -0.45593999997E+02  0.45594000000E+02  0.51100000000E-03 0.  1.
         23    2    1    2    0    0 -0.35527136788E-14  0.00000000000E+00 -0.35527136788E-14  0.91188000000E+02  0.91188000000E+02 0.  0.
    9900012    2    3    3    0    0 -0.14554274918E+02 -0.22558294353E+02  0.25200768111E+02  0.54367051127E+02  0.39999924654E+02 0.  0.
        -12    1    3    3    0    0  0.14554274918E+02  0.22558294353E+02 -0.25200768111E+02  0.36820948873E+02  0.00000000000E+00 0.  1.
         11    1    4    4    0    0  0.13029527642E+01 -0.31694064899E+01  0.28482713072E+01  0.44559480590E+01  0.51100000000E-03 0. -1.
        -11    1    4    4    0    0 -0.27779427000E+02 -0.10698049072E+02  0.16533039126E+02  0.34051229073E+02  0.51100000000E-03 0.  1.
        -12    1    4    4    0    0  0.11922199317E+02 -0.86908387920E+01  0.58194576778E+01  0.15859873995E+02  0.00000000000E+00 0.  1.
</event>
<event>
 8    1  0.2500956E-006  0.9118800E+02  0.7816164E-02  0.1184000E+00
        -11   -1    0    0    0    0  0.00000000000E+00  0.00000000000E+00  0.45593999997E+02  0.45594000000E+02  0.51100000000E-03 0. -1.
         11   -1    0    0    0    0 -0.00000000000E+00 -0.00000000000E+00 -0.45593999997E+02  0.45594000000E+02  0.51100000000E-03 0.  1.
         23    2    1    2    0    0  0.00000000000E+00  0.00000000000E+00  0.00000000000E+00  0.91188000000E+02  0.91188000000E+02 0.  0.
    9900012    2    3    3    0    0 -0.32586537464E+02  0.12259390193E+02 -0.11983637981E+02  0.54367046033E+02  0.39999913042E+02 0.  0.
         12    1    3    3    0    0  0.32586537464E+02 -0.12259390193E+02  0.11983637981E+02  0.36820953967E+02  0.00000000000E+00 0. -1.
         11    1    4    4    0    0 -0.54882079844E+01 -0.14558045175E+00  0.92430168376E+01  0.10750580499E+02  0.51100000000E-03 0. -1.
        -11    1    4    4    0    0 -0.20111629397E+02  0.71849238595E+00 -0.22348258213E+01  0.20248168190E+02  0.51100000000E-03 0.  1.
         12    1    4    4    0    0 -0.69867000822E+01  0.11686478259E+02 -0.18991828997E+02  0.23368297344E+02  0.00000000000E+00 0. -1.
</event>
<event>
 8    1  0.2500956E-006  0.9118800E+02  0.7816164E-02  0.1184000E+00
        -11   -1    0    0    0    0  0.00000000000E+00  0.00000000000E+00  0.45593999997E+02  0.45594000000E+02  0.51100000000E-03 0.  1.
         11   -1    0    0    0    0 -0.00000000000E+00 -0.00000000000E+00 -0.45593999997E+02  0.45594000000E+02  0.51100000000E-03 0. -1.
         23    2    1    2    0    0  0.00000000000E+00  0.00000000000E+00 -0.35527136788E-14  0.91188000000E+02  0.91188000000E+02 0.  0.
    9900012    2    3    3    0    0 -0.23617588147E+02 -0.22591461367E+02 -0.16959209374E+02  0.54367090462E+02  0.40000014327E+02 0.  0.
        -12    1    3    3    0    0  0.23617588147E+02  0.22591461367E+02  0.16959209374E+02  0.36820909538E+02  0.00000000000E+00 0.  1.
         11    1    4    4    0    0 -0.16159864281E+02 -0.15793760647E+02  0.55826141212E+01  0.23275516528E+02  0.51100000000E-03 0. -1.
        -11    1    4    4    0    0  0.22103306837E+01 -0.21275775288E+01  0.24271740901E+01  0.39119460882E+01  0.51100000000E-03 0.  1.
         12    1    4    4    0    0 -0.96680545494E+01 -0.46701231912E+01 -0.24968997586E+02  0.27179627846E+02  0.00000000000E+00 0. -1.
</event>
<event>
 8    1  0.2500956E-006  0.9118800E+02  0.7816164E-02  0.1184000E+00
        -11   -1    0    0    0    0  0.00000000000E+00  0.00000000000E+00  0.45593999997E+02  0.45594000000E+02  0.51100000000E-03 0.  1.
         11   -1    0    0    0    0 -0.00000000000E+00 -0.00000000000E+00 -0.45593999997E+02  0.45594000000E+02  0.51100000000E-03 0. -1.
         23    2    1    2    0    0  0.00000000000E+00 -0.17763568394E-14  0.00000000000E+00  0.91188000000E+02  0.91188000000E+02 0.  0.
    9900012    2    3    3    0    0  0.25393731547E+02 -0.15730512856E+02 -0.21528766185E+02  0.54367103622E+02  0.40000044327E+02 0.  0.
        -12    1    3    3    0    0 -0.25393731547E+02  0.15730512856E+02  0.21528766185E+02  0.36820896378E+02  0.00000000000E+00 0.  1.
         11    1    4    4    0    0  0.22663424174E+02 -0.11181912441E+02  0.25713436335E+00  0.25273149378E+02  0.51100000000E-03 0. -1.
        -11    1    4    4    0    0 -0.16585422614E+01 -0.23732723163E+01  0.27982319801E+01  0.40265725370E+01  0.51100000000E-03 0.  1.
         12    1    4    4    0    0  0.43888496345E+01 -0.21753280987E+01 -0.24584132529E+02  0.25067381707E+02  0.00000000000E+00 0. -1.
</event>
<event>
 8    1  0.2500956E-006  0.9118800E+02  0.7816164E-02  0.1184000E+00
        -11   -1    0    0    0    0  0.00000000000E+00  0.00000000000E+00  0.45593999997E+02  0.45594000000E+02  0.51100000000E-03 0. -1.
         11   -1    0    0    0    0 -0.00000000000E+00 -0.00000000000E+00 -0.45593999997E+02  0.45594000000E+02  0.51100000000E-03 0.  1.
         23    2    1    2    0    0  0.44408920985E-15  0.35527136788E-14  0.35527136788E-14  0.91188000000E+02  0.91188000000E+02 0.  0.
    9900012    2    3    3    0    0  0.31544581706E+01  0.18002459431E+02  0.31964681046E+02  0.54367082218E+02  0.39999995533E+02 0.  0.
        -12    1    3    3    0    0 -0.31544581706E+01 -0.18002459431E+02 -0.31964681046E+02  0.36820917782E+02  0.00000000000E+00 0.  1.
         11    1    4    4    0    0 -0.27660150361E+01  0.15982150163E+02  0.24229991254E+02  0.29157716636E+02  0.51100000000E-03 0. -1.
        -11    1    4    4    0    0  0.72040671238E+00 -0.33212235988E+01 -0.75080302752E+01  0.82413609858E+01  0.51100000000E-03 0.  1.
        -12    1    4    4    0    0  0.52000664943E+01  0.53415328666E+01  0.15242720068E+02  0.16968004596E+02  0.00000000000E+00 0.  1.
</event>
<event>
 8    1  0.2500956E-006  0.9118800E+02  0.7816164E-02  0.1184000E+00
        -11   -1    0    0    0    0  0.00000000000E+00  0.00000000000E+00  0.45593999997E+02  0.45594000000E+02  0.51100000000E-03 0. -1.
         11   -1    0    0    0    0 -0.00000000000E+00 -0.00000000000E+00 -0.45593999997E+02  0.45594000000E+02  0.51100000000E-03 0.  1.
         23    2    1    2    0    0  0.14432899320E-14  0.35527136788E-14  0.35527136788E-14  0.91188000000E+02  0.91188000000E+02 0.  0.
    9900012    2    3    3    0    0  0.32719167193E+00 -0.30981342015E+02 -0.19895449838E+02  0.54367088391E+02  0.40000009605E+02 0.  0.
         12    1    3    3    0    0 -0.32719167193E+00  0.30981342015E+02  0.19895449838E+02  0.36820911609E+02  0.00000000000E+00 0. -1.
         11    1    4    4    0    0 -0.12983167405E+02 -0.23169485388E+02 -0.23786358866E+02  0.35653591087E+02  0.51100000000E-03 0. -1.
        -11    1    4    4    0    0  0.43454695579E+01 -0.83909514520E+00 -0.30758925198E+01  0.53896476134E+01  0.51100000000E-03 0.  1.
         12    1    4    4    0    0  0.89648895193E+01 -0.69727614820E+01  0.69668015480E+01  0.13323849691E+02  0.00000000000E+00 0. -1.
</event>
<event>
 8    1  0.2500956E-006  0.9118800E+02  0.7816164E-02  0.1184000E+00
        -11   -1    0    0    0    0  0.00000000000E+00  0.00000000000E+00  0.45593999997E+02  0.45594000000E+02  0.51100000000E-03 0. -1.
         11   -1    0    0    0    0 -0.00000000000E+00 -0.00000000000E+00 -0.45593999997E+02  0.45594000000E+02  0.51100000000E-03 0.  1.
         23    2    1    2    0    0  0.35527136788E-14  0.00000000000E+00  0.44408920985E-15  0.91188000000E+02  0.91188000000E+02 0.  0.
    9900012    2    3    3    0    0 -0.73072964599E+01  0.35971604374E+02 -0.29029516664E+01  0.54367081609E+02  0.39999994144E+02 0.  0.
        -12    1    3    3    0    0  0.73072964599E+01 -0.35971604374E+02  0.29029516664E+01  0.36820918391E+02  0.00000000000E+00 0.  1.
         11    1    4    4    0    0 -0.45060970942E+01 -0.61811062694E+01  0.25817272912E+01  0.80731841180E+01  0.51100000000E-03 0. -1.
        -11    1    4    4    0    0  0.69425877562E+01  0.11335610754E+02  0.99530051084E+00  0.13329899448E+02  0.51100000000E-03 0.  1.
        -12    1    4    4    0    0 -0.97437871219E+01  0.30817099889E+02 -0.64799794685E+01  0.32963998043E+02  0.00000000000E+00 0.  1.
</event>
<event>
 8    1  0.2500956E-006  0.9118800E+02  0.7816164E-02  0.1184000E+00
        -11   -1    0    0    0    0  0.00000000000E+00  0.00000000000E+00  0.45593999997E+02  0.45594000000E+02  0.51100000000E-03 0.  1.
         11   -1    0    0    0    0 -0.00000000000E+00 -0.00000000000E+00 -0.45593999997E+02  0.45594000000E+02  0.51100000000E-03 0. -1.
         23    2    1    2    0    0  0.35527136788E-14  0.00000000000E+00 -0.88817841970E-15  0.91188000000E+02  0.91188000000E+02 0.  0.
    9900012    2    3    3    0    0 -0.26654735177E+02  0.24981932666E+02 -0.46055855177E+01  0.54367037423E+02  0.39999893414E+02 0.  0.
        -12    1    3    3    0    0  0.26654735177E+02 -0.24981932666E+02  0.46055855177E+01  0.36820962577E+02  0.00000000000E+00 0.  1.
         11    1    4    4    0    0 -0.18073081057E+02  0.35161852682E+02  0.16172888682E+01  0.39567761706E+02  0.51100000000E-03 0. -1.
        -11    1    4    4    0    0 -0.53610791533E+01 -0.60594817464E+01 -0.46799808581E+01  0.93466951280E+01  0.51100000000E-03 0.  1.
         12    1    4    4    0    0 -0.32205749667E+01 -0.41204382689E+01 -0.15428935278E+01  0.54525805892E+01  0.00000000000E+00 0. -1.
</event>
<event>
 8    1  0.2500956E-006  0.9118800E+02  0.7816164E-02  0.1184000E+00
        -11   -1    0    0    0    0  0.00000000000E+00  0.00000000000E+00  0.45593999997E+02  0.45594000000E+02  0.51100000000E-03 0.  1.
         11   -1    0    0    0    0 -0.00000000000E+00 -0.00000000000E+00 -0.45593999997E+02  0.45594000000E+02  0.51100000000E-03 0. -1.
         23    2    1    2    0    0  0.00000000000E+00 -0.35527136788E-14  0.00000000000E+00  0.91188000000E+02  0.91188000000E+02 0.  0.
    9900012    2    3    3    0    0  0.29386885933E+02 -0.19328119074E+02  0.10891013558E+02  0.54367089798E+02  0.40000012813E+02 0.  0.
         12    1    3    3    0    0 -0.29386885933E+02  0.19328119074E+02 -0.10891013558E+02  0.36820910202E+02  0.00000000000E+00 0. -1.
         11    1    4    4    0    0 -0.13198738299E+01 -0.63710142682E+01 -0.66609857099E+01  0.93113168038E+01  0.51100000000E-03 0. -1.
        -11    1    4    4    0    0 -0.25256002239E+01  0.23307567534E+01  0.56038305437E+01  0.65737356623E+01  0.51100000000E-03 0.  1.
        -12    1    4    4    0    0  0.33232359987E+02 -0.15287861559E+02  0.11948168724E+02  0.38482037332E+02  0.00000000000E+00 0.  1.
</event>
<event>
 8    1  0.2500956E-006  0.9118800E+02  0.7816164E-02  0.1184000E+00
        -11   -1    0    0    0    0  0.00000000000E+00  0.00000000000E+00  0.45593999997E+02  0.45594000000E+02  0.51100000000E-03 0. -1.
         11   -1    0    0    0    0 -0.00000000000E+00 -0.00000000000E+00 -0.45593999997E+02  0.45594000000E+02  0.51100000000E-03 0.  1.
         23    2    1    2    0    0 -0.88817841970E-15  0.00000000000E+00  0.00000000000E+00  0.91188000000E+02  0.91188000000E+02 0.  0.
    9900012    2    3    3    0    0  0.55488646128E+01  0.29530119666E+02  0.21282892659E+02  0.54367090371E+02  0.40000014118E+02 0.  0.
        -12    1    3    3    0    0 -0.55488646128E+01 -0.29530119666E+02 -0.21282892659E+02  0.36820909629E+02  0.00000000000E+00 0.  1.
         11    1    4    4    0    0 -0.10703845880E+02  0.14952158311E+02 -0.17538023877E+01  0.18472010661E+02  0.51100000000E-03 0. -1.
        -11    1    4    4    0    0 -0.20923874008E+01  0.61465316200E+01  0.97901881277E+01  0.11747583574E+02  0.51100000000E-03 0.  1.
         12    1    4    4    0    0  0.18345097893E+02  0.84314297347E+01  0.13246506919E+02  0.24147496136E+02  0.00000000000E+00 0. -1.
</event>
<event>
 8    1  0.2500956E-006  0.9118800E+02  0.7816164E-02  0.1184000E+00
        -11   -1    0    0    0    0  0.00000000000E+00  0.00000000000E+00  0.45593999997E+02  0.45594000000E+02  0.51100000000E-03 0.  1.
         11   -1    0    0    0    0 -0.00000000000E+00 -0.00000000000E+00 -0.45593999997E+02  0.45594000000E+02  0.51100000000E-03 0. -1.
         23    2    1    2    0    0  0.00000000000E+00 -0.35527136788E-14  0.00000000000E+00  0.91188000000E+02  0.91188000000E+02 0.  0.
    9900012    2    3    3    0    0 -0.26718823464E+02  0.16868254921E+02 -0.18903594651E+02  0.54367089608E+02  0.40000012380E+02 0.  0.
        -12    1    3    3    0    0  0.26718823464E+02 -0.16868254921E+02  0.18903594651E+02  0.36820910392E+02  0.00000000000E+00 0.  1.
         11    1    4    4    0    0 -0.18570038387E+02  0.38023790436E+01 -0.16885871836E+02  0.25385765303E+02  0.51100000000E-03 0. -1.
        -11    1    4    4    0    0  0.49821545528E+01 -0.12616406743E+01 -0.72201950086E+01  0.88625514048E+01  0.51100000000E-03 0.  1.
         12    1    4    4    0    0 -0.13130939629E+02  0.14327516552E+02  0.52024721938E+01  0.20118772901E+02  0.00000000000E+00 0. -1.
</event>
<event>
 8    1  0.2500956E-006  0.9118800E+02  0.7816164E-02  0.1184000E+00
        -11   -1    0    0    0    0  0.00000000000E+00  0.00000000000E+00  0.45593999997E+02  0.45594000000E+02  0.51100000000E-03 0.  1.
         11   -1    0    0    0    0 -0.00000000000E+00 -0.00000000000E+00 -0.45593999997E+02  0.45594000000E+02  0.51100000000E-03 0. -1.
         23    2    1    2    0    0 -0.35527136788E-14  0.00000000000E+00  0.35527136788E-14  0.91188000000E+02  0.91188000000E+02 0.  0.
    9900012    2    3    3    0    0 -0.18527587979E+02 -0.10316177691E+02  0.30101279427E+02  0.54367054037E+02  0.39999931288E+02 0.  0.
         12    1    3    3    0    0  0.18527587979E+02  0.10316177691E+02 -0.30101279427E+02  0.36820945963E+02  0.00000000000E+00 0. -1.
         11    1    4    4    0    0 -0.38938191789E+01 -0.16785567559E+02  0.16881847911E+02  0.24122891518E+02  0.51100000000E-03 0. -1.
        -11    1    4    4    0    0  0.21073265051E+01 -0.25192962757E+01  0.10558003964E+02  0.11057084909E+02  0.51100000000E-03 0.  1.
         12    1    4    4    0    0 -0.16741095305E+02  0.89886861435E+01  0.26614275529E+01  0.19187077610E+02  0.00000000000E+00 0. -1.
</event>
<event>
 8    1  0.2500956E-006  0.9118800E+02  0.7816164E-02  0.1184000E+00
        -11   -1    0    0    0    0  0.00000000000E+00  0.00000000000E+00  0.45593999997E+02  0.45594000000E+02  0.51100000000E-03 0.  1.
         11   -1    0    0    0    0 -0.00000000000E+00 -0.00000000000E+00 -0.45593999997E+02  0.45594000000E+02  0.51100000000E-03 0. -1.
         23    2    1    2    0    0 -0.17763568394E-14 -0.71054273576E-14 -0.17763568394E-14  0.91188000000E+02  0.91188000000E+02 0.  0.
    9900012    2    3    3    0    0  0.10337006101E+02  0.33656513366E+02  0.10778034930E+02  0.54367073559E+02  0.39999975792E+02 0.  0.
         12    1    3    3    0    0 -0.10337006101E+02 -0.33656513366E+02 -0.10778034930E+02  0.36820926441E+02  0.00000000000E+00 0. -1.
         11    1    4    4    0    0  0.19594110199E+02  0.17344567917E+02 -0.76430616580E+00  0.26179139690E+02  0.51100000000E-03 0. -1.
        -11    1    4    4    0    0  0.10190771323E+01 -0.29192840745E+01 -0.71591125890E+00  0.31738410327E+01  0.51100000000E-03 0.  1.
        -12    1    4    4    0    0 -0.10276181230E+02  0.19231229523E+02  0.12258252354E+02  0.25014092836E+02  0.00000000000E+00 0.  1.
</event>
<event>
 8    1  0.2500956E-006  0.9118800E+02  0.7816164E-02  0.1184000E+00
        -11   -1    0    0    0    0  0.00000000000E+00  0.00000000000E+00  0.45593999997E+02  0.45594000000E+02  0.51100000000E-03 0.  1.
         11   -1    0    0    0    0 -0.00000000000E+00 -0.00000000000E+00 -0.45593999997E+02  0.45594000000E+02  0.51100000000E-03 0. -1.
         23    2    1    2    0    0  0.00000000000E+00  0.00000000000E+00  0.35527136788E-14  0.91188000000E+02  0.91188000000E+02 0.  0.
    9900012    2    3    3    0    0  0.14919177570E+02  0.21816219939E+02 -0.25636871825E+02  0.54367102282E+02  0.40000041272E+02 0.  0.
        -12    1    3    3    0    0 -0.14919177570E+02 -0.21816219939E+02  0.25636871825E+02  0.36820897718E+02  0.00000000000E+00 0.  1.
         11    1    4    4    0    0  0.10455605583E+02  0.17181329487E+02 -0.64479439727E+01  0.21120931627E+02  0.51100000000E-03 0. -1.
        -11    1    4    4    0    0 -0.79995630674E+01  0.10565403914E+02 -0.10790304573E+02  0.17089512637E+02  0.51100000000E-03 0.  1.
        -12    1    4    4    0    0  0.12463135054E+02 -0.59305134622E+01 -0.83986232801E+01  0.16156658018E+02  0.00000000000E+00 0.  1.
</event>
<event>
 8    1  0.2500956E-006  0.9118800E+02  0.7816164E-02  0.1184000E+00
        -11   -1    0    0    0    0  0.00000000000E+00  0.00000000000E+00  0.45593999997E+02  0.45594000000E+02  0.51100000000E-03 0. -1.
         11   -1    0    0    0    0 -0.00000000000E+00 -0.00000000000E+00 -0.45593999997E+02  0.45594000000E+02  0.51100000000E-03 0.  1.
         23    2    1    2    0    0  0.00000000000E+00  0.00000000000E+00  0.00000000000E+00  0.91188000000E+02  0.91188000000E+02 0.  0.
    9900012    2    3    3    0    0  0.11636132749E+02  0.15712681045E+02  0.31200837139E+02  0.54367079735E+02  0.39999989873E+02 0.  0.
        -12    1    3    3    0    0 -0.11636132749E+02 -0.15712681045E+02 -0.31200837139E+02  0.36820920265E+02  0.00000000000E+00 0.  1.
         11    1    4    4    0    0  0.14007685923E+02  0.11572549596E+02  0.17188124418E+02  0.25011413201E+02  0.51100000000E-03 0.  1.
        -11    1    4    4    0    0 -0.24320179337E+01  0.12779696551E+02  0.15867947858E+02  0.20518945505E+02  0.51100000000E-03 0. -1.
         12    1    4    4    0    0  0.60464759585E-01 -0.86395651011E+01 -0.18552351375E+01  0.88367210287E+01  0.00000000000E+00 0. -1.
</event>
<event>
 8    1  0.2500956E-006  0.9118800E+02  0.7816164E-02  0.1184000E+00
        -11   -1    0    0    0    0  0.00000000000E+00  0.00000000000E+00  0.45593999997E+02  0.45594000000E+02  0.51100000000E-03 0.  1.
         11   -1    0    0    0    0 -0.00000000000E+00 -0.00000000000E+00 -0.45593999997E+02  0.45594000000E+02  0.51100000000E-03 0. -1.
         23    2    1    2    0    0  0.00000000000E+00  0.00000000000E+00  0.00000000000E+00  0.91188000000E+02  0.91188000000E+02 0.  0.
    9900012    2    3    3    0    0  0.24318892406E+02 -0.80191592804E+01 -0.26458740987E+02  0.54367076356E+02  0.39999982168E+02 0.  0.
        -12    1    3    3    0    0 -0.24318892406E+02  0.80191592804E+01  0.26458740987E+02  0.36820923644E+02  0.00000000000E+00 0.  1.
         11    1    4    4    0    0  0.17630372186E+01 -0.69668869218E+00  0.14373454864E+01  0.23789993015E+01  0.51100000000E-03 0. -1.
        -11    1    4    4    0    0  0.21397282533E+01 -0.19815409875E+02 -0.12319141639E+02  0.23430538971E+02  0.51100000000E-03 0.  1.
        -12    1    4    4    0    0  0.20416126934E+02  0.12492939287E+02 -0.15576944834E+02  0.28557538083E+02  0.00000000000E+00 0.  1.
</event>
<event>
 8    1  0.2500956E-006  0.9118800E+02  0.7816164E-02  0.1184000E+00
        -11   -1    0    0    0    0  0.00000000000E+00  0.00000000000E+00  0.45593999997E+02  0.45594000000E+02  0.51100000000E-03 0.  1.
         11   -1    0    0    0    0 -0.00000000000E+00 -0.00000000000E+00 -0.45593999997E+02  0.45594000000E+02  0.51100000000E-03 0. -1.
         23    2    1    2    0    0  0.00000000000E+00  0.00000000000E+00  0.00000000000E+00  0.91188000000E+02  0.91188000000E+02 0.  0.
    9900012    2    3    3    0    0 -0.89969555448E+01  0.89873485516E+01  0.34555222540E+02  0.54367067803E+02  0.39999962670E+02 0.  0.
         12    1    3    3    0    0  0.89969555448E+01 -0.89873485516E+01 -0.34555222540E+02  0.36820932197E+02  0.00000000000E+00 0. -1.
         11    1    4    4    0    0  0.47600489732E+01  0.71626055778E+01  0.76448513236E+01  0.11506725725E+02  0.51100000000E-03 0. -1.
        -11    1    4    4    0    0  0.18957844898E+01 -0.12194494548E+02  0.10324324220E+02  0.16090101522E+02  0.51100000000E-03 0.  1.
         12    1    4    4    0    0 -0.15652789008E+02  0.14019237522E+02  0.16586046997E+02  0.26770240556E+02  0.00000000000E+00 0. -1.
</event>
<event>
 8    1  0.2500956E-006  0.9118800E+02  0.7816164E-02  0.1184000E+00
        -11   -1    0    0    0    0  0.00000000000E+00  0.00000000000E+00  0.45593999997E+02  0.45594000000E+02  0.51100000000E-03 0.  1.
         11   -1    0    0    0    0 -0.00000000000E+00 -0.00000000000E+00 -0.45593999997E+02  0.45594000000E+02  0.51100000000E-03 0. -1.
         23    2    1    2    0    0  0.71054273576E-14  0.88817841970E-15  0.35527136788E-14  0.91188000000E+02  0.91188000000E+02 0.  0.
    9900012    2    3    3    0    0 -0.32036936266E+02 -0.79326893114E+01 -0.16324433843E+02  0.54367082232E+02  0.39999995563E+02 0.  0.
         12    1    3    3    0    0  0.32036936266E+02  0.79326893114E+01  0.16324433843E+02  0.36820917768E+02  0.00000000000E+00 0. -1.
         11    1    4    4    0    0 -0.30567597521E+00 -0.26036631009E+01 -0.94402333543E+01  0.97974744394E+01  0.51100000000E-03 0. -1.
        -11    1    4    4    0    0  0.59089446470E+01 -0.11769753886E+01  0.27066441590E+00  0.60310991862E+01  0.51100000000E-03 0.  1.
        -12    1    4    4    0    0 -0.37640204938E+02 -0.41520508219E+01 -0.71548649042E+01  0.38538508606E+02  0.00000000000E+00 0.  1.
</event>
<event>
 8    1  0.2500956E-006  0.9118800E+02  0.7816164E-02  0.1184000E+00
        -11   -1    0    0    0    0  0.00000000000E+00  0.00000000000E+00  0.45593999997E+02  0.45594000000E+02  0.51100000000E-03 0.  1.
         11   -1    0    0    0    0 -0.00000000000E+00 -0.00000000000E+00 -0.45593999997E+02  0.45594000000E+02  0.51100000000E-03 0. -1.
         23    2    1    2    0    0  0.35527136788E-14 -0.35527136788E-14  0.00000000000E+00  0.91188000000E+02  0.91188000000E+02 0.  0.
    9900012    2    3    3    0    0  0.23692286444E+02 -0.24966648453E+02  0.13081357906E+02  0.54367083436E+02  0.39999998309E+02 0.  0.
         12    1    3    3    0    0 -0.23692286444E+02  0.24966648453E+02 -0.13081357906E+02  0.36820916564E+02  0.00000000000E+00 0. -1.
         11    1    4    4    0    0  0.19861265051E+02 -0.28766310405E+02 -0.26879400079E+01  0.35059884276E+02  0.51100000000E-03 0. -1.
        -11    1    4    4    0    0 -0.21149959801E+01 -0.19002480094E+01  0.32131576167E+01  0.42905165917E+01  0.51100000000E-03 0.  1.
         12    1    4    4    0    0  0.59460173738E+01  0.56999099613E+01  0.12556140298E+02  0.15016682568E+02  0.00000000000E+00 0. -1.
</event>
<event>
 8    1  0.2500956E-006  0.9118800E+02  0.7816164E-02  0.1184000E+00
        -11   -1    0    0    0    0  0.00000000000E+00  0.00000000000E+00  0.45593999997E+02  0.45594000000E+02  0.51100000000E-03 0.  1.
         11   -1    0    0    0    0 -0.00000000000E+00 -0.00000000000E+00 -0.45593999997E+02  0.45594000000E+02  0.51100000000E-03 0. -1.
         23    2    1    2    0    0 -0.71054273576E-14 -0.17763568394E-14  0.00000000000E+00  0.91188000000E+02  0.91188000000E+02 0.  0.
    9900012    2    3    3    0    0 -0.32944760818E+02 -0.12129816711E+02  0.11103503854E+02  0.54367115754E+02  0.40000071985E+02 0.  0.
         12    1    3    3    0    0  0.32944760818E+02  0.12129816711E+02 -0.11103503854E+02  0.36820884246E+02  0.00000000000E+00 0. -1.
         11    1    4    4    0    0 -0.53954192743E+01 -0.85499153246E+01  0.33637305303E+01  0.10654871400E+02  0.51100000000E-03 0. -1.
        -11    1    4    4    0    0  0.25121761198E+01 -0.10568004630E+02 -0.25888921723E+01  0.11166741407E+02  0.51100000000E-03 0.  1.
        -12    1    4    4    0    0 -0.30061517664E+02  0.69881032432E+01  0.10328665496E+02  0.32545502947E+02  0.00000000000E+00 0.  1.
</event>
<event>
 8    1  0.2500956E-006  0.9118800E+02  0.7816164E-02  0.1184000E+00
        -11   -1    0    0    0    0  0.00000000000E+00  0.00000000000E+00  0.45593999997E+02  0.45594000000E+02  0.51100000000E-03 0.  1.
         11   -1    0    0    0    0 -0.00000000000E+00 -0.00000000000E+00 -0.45593999997E+02  0.45594000000E+02  0.51100000000E-03 0. -1.
         23    2    1    2    0    0  0.00000000000E+00  0.00000000000E+00  0.35527136788E-14  0.91188000000E+02  0.91188000000E+02 0.  0.
    9900012    2    3    3    0    0 -0.38191710968E+01 -0.23540670492E+02 -0.28054138964E+02  0.54367028420E+02  0.39999872888E+02 0.  0.
        -12    1    3    3    0    0  0.38191710968E+01  0.23540670492E+02  0.28054138964E+02  0.36820971580E+02  0.00000000000E+00 0.  1.
         11    1    4    4    0    0 -0.85763017299E+01 -0.29192849018E+02 -0.29216050163E+02  0.42182377512E+02  0.51100000000E-03 0. -1.
        -11    1    4    4    0    0  0.28816088730E+01 -0.22869765551E+01 -0.86448183017E+00  0.37790555112E+01  0.51100000000E-03 0.  1.
        -12    1    4    4    0    0  0.18755217600E+01  0.79391550808E+01  0.20263930290E+01  0.84055953970E+01  0.00000000000E+00 0.  1.
</event>
<event>
 8    1  0.2500956E-006  0.9118800E+02  0.7816164E-02  0.1184000E+00
        -11   -1    0    0    0    0  0.00000000000E+00  0.00000000000E+00  0.45593999997E+02  0.45594000000E+02  0.51100000000E-03 0.  1.
         11   -1    0    0    0    0 -0.00000000000E+00 -0.00000000000E+00 -0.45593999997E+02  0.45594000000E+02  0.51100000000E-03 0. -1.
         23    2    1    2    0    0  0.35527136788E-14  0.44408920985E-15  0.00000000000E+00  0.91188000000E+02  0.91188000000E+02 0.  0.
    9900012    2    3    3    0    0  0.30697658662E+02 -0.23260193971E+01  0.20199557759E+02  0.54367099044E+02  0.40000033890E+02 0.  0.
         12    1    3    3    0    0 -0.30697658662E+02  0.23260193971E+01 -0.20199557759E+02  0.36820900956E+02  0.00000000000E+00 0. -1.
         11    1    4    4    0    0  0.20556342435E+02  0.29570897299E+01 -0.52995804568E+01  0.21433458593E+02  0.51100000000E-03 0. -1.
        -11    1    4    4    0    0  0.89093778086E+01 -0.11322337024E+02  0.15292324510E+02  0.21010176529E+02  0.51100000000E-03 0.  1.
        -12    1    4    4    0    0  0.12319384185E+01  0.60392278969E+01  0.10206813706E+02  0.11923463922E+02  0.00000000000E+00 0.  1.
</event>
<event>
 8    1  0.2500956E-006  0.9118800E+02  0.7816164E-02  0.1184000E+00
        -11   -1    0    0    0    0  0.00000000000E+00  0.00000000000E+00  0.45593999997E+02  0.45594000000E+02  0.51100000000E-03 0. -1.
         11   -1    0    0    0    0 -0.00000000000E+00 -0.00000000000E+00 -0.45593999997E+02  0.45594000000E+02  0.51100000000E-03 0.  1.
         23    2    1    2    0    0  0.35527136788E-14  0.00000000000E+00 -0.35527136788E-14  0.91188000000E+02  0.91188000000E+02 0.  0.
    9900012    2    3    3    0    0  0.29987914811E+02  0.15103349027E+02  0.15112695831E+02  0.54367085266E+02  0.40000002481E+02 0.  0.
        -12    1    3    3    0    0 -0.29987914811E+02 -0.15103349027E+02 -0.15112695831E+02  0.36820914734E+02  0.00000000000E+00 0.  1.
         11    1    4    4    0    0  0.22807619098E+02  0.23770349089E+01  0.29039445264E+01  0.23114295965E+02  0.51100000000E-03 0. -1.
        -11    1    4    4    0    0  0.29283863740E+01  0.22950738715E+01 -0.76018748426E+01  0.84635283549E+01  0.51100000000E-03 0.  1.
         12    1    4    4    0    0  0.42519093392E+01  0.10431240247E+02  0.19810626147E+02  0.22789260946E+02  0.00000000000E+00 0. -1.
</event>
<event>
 8    1  0.2500956E-006  0.9118800E+02  0.7816164E-02  0.1184000E+00
        -11   -1    0    0    0    0  0.00000000000E+00  0.00000000000E+00  0.45593999997E+02  0.45594000000E+02  0.51100000000E-03 0. -1.
         11   -1    0    0    0    0 -0.00000000000E+00 -0.00000000000E+00 -0.45593999997E+02  0.45594000000E+02  0.51100000000E-03 0.  1.
         23    2    1    2    0    0  0.22204460493E-15  0.00000000000E+00 -0.35527136788E-14  0.91188000000E+02  0.91188000000E+02 0.  0.
    9900012    2    3    3    0    0 -0.93328635004E+00 -0.20028602314E+02  0.30883059599E+02  0.54367091480E+02  0.40000016647E+02 0.  0.
        -12    1    3    3    0    0  0.93328635004E+00  0.20028602314E+02 -0.30883059599E+02  0.36820908520E+02  0.00000000000E+00 0.  1.
         11    1    4    4    0    0 -0.59266491290E+01 -0.13520293065E+02  0.34664444130E+02  0.37676878607E+02  0.51100000000E-03 0. -1.
        -11    1    4    4    0    0 -0.44195372329E+01 -0.18109765405E+01  0.13811562819E+01  0.49718747289E+01  0.51100000000E-03 0.  1.
         12    1    4    4    0    0  0.94129000119E+01 -0.46973327076E+01 -0.51625408135E+01  0.11718338144E+02  0.00000000000E+00 0. -1.
</event>
<event>
 8    1  0.2500956E-006  0.9118800E+02  0.7816164E-02  0.1184000E+00
        -11   -1    0    0    0    0  0.00000000000E+00  0.00000000000E+00  0.45593999997E+02  0.45594000000E+02  0.51100000000E-03 0.  1.
         11   -1    0    0    0    0 -0.00000000000E+00 -0.00000000000E+00 -0.45593999997E+02  0.45594000000E+02  0.51100000000E-03 0. -1.
         23    2    1    2    0    0  0.17763568394E-14  0.72164496601E-15 -0.71054273576E-14  0.91188000000E+02  0.91188000000E+02 0.  0.
    9900012    2    3    3    0    0  0.11424638241E+02  0.45040145028E+00  0.35000761158E+02  0.54367102373E+02  0.40000041480E+02 0.  0.
         12    1    3    3    0    0 -0.11424638241E+02 -0.45040145028E+00 -0.35000761158E+02  0.36820897627E+02  0.00000000000E+00 0. -1.
         11    1    4    4    0    0 -0.67339642834E-01  0.57575009670E+01 -0.45976567683E+01  0.73682969561E+01  0.51100000000E-03 0. -1.
        -11    1    4    4    0    0  0.17190420685E+02 -0.58229622819E+01  0.35779421437E+02  0.40119626764E+02  0.51100000000E-03 0.  1.
         12    1    4    4    0    0 -0.56984428015E+01  0.51586276520E+00  0.38189964895E+01  0.68791786531E+01  0.00000000000E+00 0. -1.
</event>
<event>
 8    1  0.2500956E-006  0.9118800E+02  0.7816164E-02  0.1184000E+00
        -11   -1    0    0    0    0  0.00000000000E+00  0.00000000000E+00  0.45593999997E+02  0.45594000000E+02  0.51100000000E-03 0.  1.
         11   -1    0    0    0    0 -0.00000000000E+00 -0.00000000000E+00 -0.45593999997E+02  0.45594000000E+02  0.51100000000E-03 0. -1.
         23    2    1    2    0    0 -0.88817841970E-15 -0.71054273576E-14  0.00000000000E+00  0.91188000000E+02  0.91188000000E+02 0.  0.
    9900012    2    3    3    0    0 -0.45185234676E+01  0.35488020619E+02  0.87156853459E+01  0.54367084302E+02  0.40000000284E+02 0.  0.
         12    1    3    3    0    0  0.45185234676E+01 -0.35488020619E+02 -0.87156853459E+01  0.36820915698E+02  0.00000000000E+00 0. -1.
         11    1    4    4    0    0 -0.11120498921E+02  0.15887215362E+02  0.19316396881E+01  0.19488466855E+02  0.51100000000E-03 0. -1.
        -11    1    4    4    0    0  0.16356768868E+02  0.11607438922E+02  0.91528722334E+01  0.22046577887E+02  0.51100000000E-03 0.  1.
        -12    1    4    4    0    0 -0.97547934149E+01  0.79933663345E+01 -0.23688265756E+01  0.12832039560E+02  0.00000000000E+00 0.  1.
</event>
<event>
 8    1  0.2500956E-006  0.9118800E+02  0.7816164E-02  0.1184000E+00
        -11   -1    0    0    0    0  0.00000000000E+00  0.00000000000E+00  0.45593999997E+02  0.45594000000E+02  0.51100000000E-03 0. -1.
         11   -1    0    0    0    0 -0.00000000000E+00 -0.00000000000E+00 -0.45593999997E+02  0.45594000000E+02  0.51100000000E-03 0.  1.
         23    2    1    2    0    0  0.88817841970E-15 -0.35527136788E-14  0.35527136788E-14  0.91188000000E+02  0.91188000000E+02 0.  0.
    9900012    2    3    3    0    0  0.23149765201E+01 -0.22375216700E+02 -0.29150845106E+02  0.54367065614E+02  0.39999957679E+02 0.  0.
         12    1    3    3    0    0 -0.23149765201E+01  0.22375216700E+02  0.29150845106E+02  0.36820934386E+02  0.00000000000E+00 0. -1.
         11    1    4    4    0    0 -0.10774241961E+02 -0.45980510002E+01 -0.39161453587E+01  0.12351621657E+02  0.51100000000E-03 0. -1.
        -11    1    4    4    0    0 -0.53044835418E+01  0.27606386960E+01 -0.37047918573E+01  0.70344974676E+01  0.51100000000E-03 0.  1.
        -12    1    4    4    0    0  0.18393702023E+02 -0.20537804396E+02 -0.21529907890E+02  0.34980946489E+02  0.00000000000E+00 0.  1.
</event>
<event>
 8    1  0.2500956E-006  0.9118800E+02  0.7816164E-02  0.1184000E+00
        -11   -1    0    0    0    0  0.00000000000E+00  0.00000000000E+00  0.45593999997E+02  0.45594000000E+02  0.51100000000E-03 0. -1.
         11   -1    0    0    0    0 -0.00000000000E+00 -0.00000000000E+00 -0.45593999997E+02  0.45594000000E+02  0.51100000000E-03 0.  1.
         23    2    1    2    0    0  0.00000000000E+00  0.35527136788E-14  0.88817841970E-15  0.91188000000E+02  0.91188000000E+02 0.  0.
    9900012    2    3    3    0    0 -0.29860737059E+02  0.20666088546E+02  0.60852327901E+01  0.54367069925E+02  0.39999967508E+02 0.  0.
        -12    1    3    3    0    0  0.29860737059E+02 -0.20666088546E+02 -0.60852327901E+01  0.36820930075E+02  0.00000000000E+00 0.  1.
         11    1    4    4    0    0 -0.30876572166E+01 -0.34017692714E+00  0.13072373235E+02  0.13436379337E+02  0.51100000000E-03 0. -1.
        -11    1    4    4    0    0 -0.25233217050E+01 -0.14077756290E+01  0.50212161343E+01  0.57932371242E+01  0.51100000000E-03 0.  1.
        -12    1    4    4    0    0 -0.24249758137E+02  0.22414041102E+02 -0.12008356579E+02  0.35137453464E+02  0.00000000000E+00 0.  1.
</event>
<event>
 8    1  0.2500956E-006  0.9118800E+02  0.7816164E-02  0.1184000E+00
        -11   -1    0    0    0    0  0.00000000000E+00  0.00000000000E+00  0.45593999997E+02  0.45594000000E+02  0.51100000000E-03 0.  1.
         11   -1    0    0    0    0 -0.00000000000E+00 -0.00000000000E+00 -0.45593999997E+02  0.45594000000E+02  0.51100000000E-03 0. -1.
         23    2    1    2    0    0  0.00000000000E+00  0.35527136788E-14  0.00000000000E+00  0.91188000000E+02  0.91188000000E+02 0.  0.
    9900012    2    3    3    0    0 -0.26379730461E+02  0.24737513085E+02  0.69242551891E+01  0.54367081452E+02  0.39999993785E+02 0.  0.
        -12    1    3    3    0    0  0.26379730461E+02 -0.24737513085E+02 -0.69242551891E+01  0.36820918548E+02  0.00000000000E+00 0.  1.
         11    1    4    4    0    0 -0.35914954441E+01  0.13931489940E+02 -0.11210017778E+02  0.18238688284E+02  0.51100000000E-03 0. -1.
        -11    1    4    4    0    0 -0.14192291308E+01 -0.20644715524E+01  0.93523850776E+01  0.96821155239E+01  0.51100000000E-03 0.  1.
         12    1    4    4    0    0 -0.21369005886E+02  0.12870494697E+02  0.87818878895E+01  0.26446277644E+02  0.00000000000E+00 0. -1.
</event>
<event>
 8    1  0.2500956E-006  0.9118800E+02  0.7816164E-02  0.1184000E+00
        -11   -1    0    0    0    0  0.00000000000E+00  0.00000000000E+00  0.45593999997E+02  0.45594000000E+02  0.51100000000E-03 0.  1.
         11   -1    0    0    0    0 -0.00000000000E+00 -0.00000000000E+00 -0.45593999997E+02  0.45594000000E+02  0.51100000000E-03 0. -1.
         23    2    1    2    0    0  0.00000000000E+00  0.17763568394E-14 -0.35527136788E-14  0.91188000000E+02  0.91188000000E+02 0.  0.
    9900012    2    3    3    0    0  0.16320092393E+02  0.13248378988E+02 -0.30231008483E+02  0.54367097846E+02  0.40000031160E+02 0.  0.
        -12    1    3    3    0    0 -0.16320092393E+02 -0.13248378988E+02  0.30231008483E+02  0.36820902154E+02  0.00000000000E+00 0.  1.
         11    1    4    4    0    0  0.10385609298E+02  0.16612483790E+01  0.49493698845E+01  0.11623979059E+02  0.51100000000E-03 0. -1.
        -11    1    4    4    0    0  0.10999757207E+02  0.14632609711E+02 -0.27836145335E+02  0.33316045878E+02  0.51100000000E-03 0.  1.
        -12    1    4    4    0    0 -0.50652741123E+01 -0.30454791023E+01 -0.73442330325E+01  0.94270729089E+01  0.00000000000E+00 0.  1.
</event>
<event>
 8    1  0.2500956E-006  0.9118800E+02  0.7816164E-02  0.1184000E+00
        -11   -1    0    0    0    0  0.00000000000E+00  0.00000000000E+00  0.45593999997E+02  0.45594000000E+02  0.51100000000E-03 0.  1.
         11   -1    0    0    0    0 -0.00000000000E+00 -0.00000000000E+00 -0.45593999997E+02  0.45594000000E+02  0.51100000000E-03 0. -1.
         23    2    1    2    0    0  0.33306690739E-15  0.00000000000E+00  0.00000000000E+00  0.91188000000E+02  0.91188000000E+02 0.  0.
    9900012    2    3    3    0    0  0.80797787822E+00  0.34386479729E+02  0.13141414219E+02  0.54367087680E+02  0.40000007984E+02 0.  0.
         12    1    3    3    0    0 -0.80797787822E+00 -0.34386479729E+02 -0.13141414219E+02  0.36820912320E+02  0.00000000000E+00 0. -1.
         11    1    4    4    0    0  0.60398040645E+01 -0.48564153209E+01  0.71458556903E+00  0.77829708789E+01  0.51100000000E-03 0. -1.
        -11    1    4    4    0    0  0.81421841347E+01  0.18202250007E+02  0.62850504462E+01  0.20907389296E+02  0.51100000000E-03 0.  1.
         12    1    4    4    0    0 -0.13374010321E+02  0.21040645043E+02  0.61417782039E+01  0.25676727506E+02  0.00000000000E+00 0. -1.
</event>
<event>
 8    1  0.2500956E-006  0.9118800E+02  0.7816164E-02  0.1184000E+00
        -11   -1    0    0    0    0  0.00000000000E+00  0.00000000000E+00  0.45593999997E+02  0.45594000000E+02  0.51100000000E-03 0. -1.
         11   -1    0    0    0    0 -0.00000000000E+00 -0.00000000000E+00 -0.45593999997E+02  0.45594000000E+02  0.51100000000E-03 0.  1.
         23    2    1    2    0    0 -0.35527136788E-14  0.44408920985E-15  0.00000000000E+00  0.91188000000E+02  0.91188000000E+02 0.  0.
    9900012    2    3    3    0    0 -0.23727739327E+02  0.38016727785E+01  0.27898248419E+02  0.54367209754E+02  0.40000286275E+02 0.  0.
        -12    1    3    3    0    0  0.23727739327E+02 -0.38016727785E+01 -0.27898248419E+02  0.36820790246E+02  0.00000000000E+00 0.  1.
         11    1    4    4    0    0 -0.22530915358E+02 -0.59832136713E+01  0.10513450101E+02  0.25572908047E+02  0.51100000000E-03 0. -1.
        -11    1    4    4    0    0 -0.45114017087E+01  0.15607838976E+02  0.12626926725E+02  0.20576604717E+02  0.51100000000E-03 0.  1.
         12    1    4    4    0    0  0.33145777395E+01 -0.58229525265E+01  0.47578715927E+01  0.82176969894E+01  0.00000000000E+00 0. -1.
</event>
<event>
 8    1  0.2500956E-006  0.9118800E+02  0.7816164E-02  0.1184000E+00
        -11   -1    0    0    0    0  0.00000000000E+00  0.00000000000E+00  0.45593999997E+02  0.45594000000E+02  0.51100000000E-03 0. -1.
         11   -1    0    0    0    0 -0.00000000000E+00 -0.00000000000E+00 -0.45593999997E+02  0.45594000000E+02  0.51100000000E-03 0.  1.
         23    2    1    2    0    0  0.44408920985E-15  0.00000000000E+00  0.88817841970E-15  0.91188000000E+02  0.91188000000E+02 0.  0.
    9900012    2    3    3    0    0  0.33583836999E+01  0.36340411777E+02  0.48863750739E+01  0.54367069396E+02  0.39999966302E+02 0.  0.
         12    1    3    3    0    0 -0.33583836999E+01 -0.36340411777E+02 -0.48863750739E+01  0.36820930604E+02  0.00000000000E+00 0. -1.
         11    1    4    4    0    0 -0.35657025270E+01 -0.27312253629E+01  0.67825594845E+01  0.81349210147E+01  0.51100000000E-03 0. -1.
        -11    1    4    4    0    0  0.81181349125E+01  0.25531326325E+01 -0.44529959701E+01  0.96047787100E+01  0.51100000000E-03 0.  1.
        -12    1    4    4    0    0 -0.11940486857E+01  0.36518504507E+02  0.25568115595E+01  0.36627369671E+02  0.00000000000E+00 0.  1.
</event>
<event>
 8    1  0.2500956E-006  0.9118800E+02  0.7816164E-02  0.1184000E+00
        -11   -1    0    0    0    0  0.00000000000E+00  0.00000000000E+00  0.45593999997E+02  0.45594000000E+02  0.51100000000E-03 0. -1.
         11   -1    0    0    0    0 -0.00000000000E+00 -0.00000000000E+00 -0.45593999997E+02  0.45594000000E+02  0.51100000000E-03 0.  1.
         23    2    1    2    0    0  0.00000000000E+00  0.10658141036E-13  0.00000000000E+00  0.91188000000E+02  0.91188000000E+02 0.  0.
    9900012    2    3    3    0    0 -0.21130163865E+02  0.28922474779E+02 -0.85314992461E+01  0.54367084046E+02  0.39999999700E+02 0.  0.
         12    1    3    3    0    0  0.21130163865E+02 -0.28922474779E+02  0.85314992461E+01  0.36820915954E+02  0.00000000000E+00 0. -1.
         11    1    4    4    0    0 -0.86628972512E-01 -0.72408384006E+01  0.65100134391E+01  0.97374288475E+01  0.51100000000E-03 0. -1.
        -11    1    4    4    0    0 -0.11288439021E+02  0.21792753634E+02 -0.72342769274E+01  0.25586866346E+02  0.51100000000E-03 0.  1.
         12    1    4    4    0    0 -0.97550958711E+01  0.14370559546E+02 -0.78072357577E+01  0.19042788853E+02  0.00000000000E+00 0. -1.
</event>
<event>
 8    1  0.2500956E-006  0.9118800E+02  0.7816164E-02  0.1184000E+00
        -11   -1    0    0    0    0  0.00000000000E+00  0.00000000000E+00  0.45593999997E+02  0.45594000000E+02  0.51100000000E-03 0. -1.
         11   -1    0    0    0    0 -0.00000000000E+00 -0.00000000000E+00 -0.45593999997E+02  0.45594000000E+02  0.51100000000E-03 0.  1.
         23    2    1    2    0    0  0.00000000000E+00  0.00000000000E+00  0.00000000000E+00  0.91188000000E+02  0.91188000000E+02 0.  0.
    9900012    2    3    3    0    0 -0.26405999257E+02 -0.24893802527E+02 -0.62291348401E+01  0.54367077661E+02  0.39999985145E+02 0.  0.
         12    1    3    3    0    0  0.26405999257E+02  0.24893802527E+02  0.62291348401E+01  0.36820922339E+02  0.00000000000E+00 0. -1.
         11    1    4    4    0    0 -0.30694322591E+02 -0.82262690788E+01  0.39168807439E-01  0.31777578208E+02  0.51100000000E-03 0. -1.
        -11    1    4    4    0    0 -0.36918272256E+01 -0.86916820666E+01 -0.62184089129E+01  0.11306791547E+02  0.51100000000E-03 0.  1.
         12    1    4    4    0    0  0.79801505602E+01 -0.79758513817E+01 -0.49894734682E-01  0.11282707907E+02  0.00000000000E+00 0. -1.
</event>
<event>
 8    1  0.2500956E-006  0.9118800E+02  0.7816164E-02  0.1184000E+00
        -11   -1    0    0    0    0  0.00000000000E+00  0.00000000000E+00  0.45593999997E+02  0.45594000000E+02  0.51100000000E-03 0.  1.
         11   -1    0    0    0    0 -0.00000000000E+00 -0.00000000000E+00 -0.45593999997E+02  0.45594000000E+02  0.51100000000E-03 0. -1.
         23    2    1    2    0    0  0.00000000000E+00  0.00000000000E+00  0.00000000000E+00  0.91188000000E+02  0.91188000000E+02 0.  0.
    9900012    2    3    3    0    0  0.98320749169E+01 -0.20889072274E+02  0.28683746080E+02  0.54367077594E+02  0.39999984992E+02 0.  0.
         12    1    3    3    0    0 -0.98320749169E+01  0.20889072274E+02 -0.28683746080E+02  0.36820922406E+02  0.00000000000E+00 0. -1.
         11    1    4    4    0    0  0.22977037423E+01 -0.15373298089E+02 -0.88629414408E+00  0.15569304872E+02  0.51100000000E-03 0. -1.
        -11    1    4    4    0    0 -0.18294254025E+01  0.78936514061E+01  0.14224987897E+02  0.16370913559E+02  0.51100000000E-03 0.  1.
        -12    1    4    4    0    0  0.93637965772E+01 -0.13409425590E+02  0.15345052327E+02  0.22426859163E+02  0.00000000000E+00 0.  1.
</event>
<event>
 8    1  0.2500956E-006  0.9118800E+02  0.7816164E-02  0.1184000E+00
        -11   -1    0    0    0    0  0.00000000000E+00  0.00000000000E+00  0.45593999997E+02  0.45594000000E+02  0.51100000000E-03 0. -1.
         11   -1    0    0    0    0 -0.00000000000E+00 -0.00000000000E+00 -0.45593999997E+02  0.45594000000E+02  0.51100000000E-03 0.  1.
         23    2    1    2    0    0 -0.17763568394E-14  0.22204460493E-15  0.00000000000E+00  0.91188000000E+02  0.91188000000E+02 0.  0.
    9900012    2    3    3    0    0 -0.81546606639E+01  0.15216037086E+01 -0.35874321000E+02  0.54367072858E+02  0.39999974194E+02 0.  0.
         12    1    3    3    0    0  0.81546606639E+01 -0.15216037086E+01  0.35874321000E+02  0.36820927142E+02  0.00000000000E+00 0. -1.
         11    1    4    4    0    0  0.73864466430E+01  0.17493271159E+01 -0.20436468083E+01  0.78610579381E+01  0.51100000000E-03 0. -1.
        -11    1    4    4    0    0  0.21624318083E+01  0.36741029711E+01 -0.26679704240E+02  0.27018174671E+02  0.51100000000E-03 0.  1.
         12    1    4    4    0    0 -0.17703539115E+02 -0.39018263784E+01 -0.71509699517E+01  0.19487840248E+02  0.00000000000E+00 0. -1.
</event>
<event>
 8    1  0.2500956E-006  0.9118800E+02  0.7816164E-02  0.1184000E+00
        -11   -1    0    0    0    0  0.00000000000E+00  0.00000000000E+00  0.45593999997E+02  0.45594000000E+02  0.51100000000E-03 0.  1.
         11   -1    0    0    0    0 -0.00000000000E+00 -0.00000000000E+00 -0.45593999997E+02  0.45594000000E+02  0.51100000000E-03 0. -1.
         23    2    1    2    0    0  0.00000000000E+00  0.00000000000E+00  0.00000000000E+00  0.91188000000E+02  0.91188000000E+02 0.  0.
    9900012    2    3    3    0    0  0.30997862197E+02  0.19222604221E+02 -0.50403234154E+01  0.54367070708E+02  0.39999969294E+02 0.  0.
         12    1    3    3    0    0 -0.30997862197E+02 -0.19222604221E+02  0.50403234154E+01  0.36820929292E+02  0.00000000000E+00 0. -1.
         11    1    4    4    0    0  0.26206899342E+02  0.14076929413E+02  0.14102112392E+02  0.32921590014E+02  0.51100000000E-03 0. -1.
        -11    1    4    4    0    0  0.39839780394E+01  0.27188619137E+01 -0.45503910176E+01  0.66310142360E+01  0.51100000000E-03 0.  1.
         12    1    4    4    0    0  0.80698481461E+00  0.24268128938E+01 -0.14592044790E+02  0.14814466459E+02  0.00000000000E+00 0. -1.
</event>
<event>
 8    1  0.2500956E-006  0.9118800E+02  0.7816164E-02  0.1184000E+00
        -11   -1    0    0    0    0  0.00000000000E+00  0.00000000000E+00  0.45593999997E+02  0.45594000000E+02  0.51100000000E-03 0. -1.
         11   -1    0    0    0    0 -0.00000000000E+00 -0.00000000000E+00 -0.45593999997E+02  0.45594000000E+02  0.51100000000E-03 0.  1.
         23    2    1    2    0    0  0.35527136788E-14  0.17763568394E-14  0.00000000000E+00  0.91188000000E+02  0.91188000000E+02 0.  0.
    9900012    2    3    3    0    0 -0.26906893219E+02 -0.13393567433E+02  0.21269967794E+02  0.54367080929E+02  0.39999992594E+02 0.  0.
        -12    1    3    3    0    0  0.26906893219E+02  0.13393567433E+02 -0.21269967794E+02  0.36820919071E+02  0.00000000000E+00 0.  1.
         11    1    4    4    0    0  0.14573928979E+01  0.33005172956E+01 -0.34787072298E+01  0.50118671899E+01  0.51100000000E-03 0. -1.
        -11    1    4    4    0    0 -0.27286356628E+02 -0.70611397821E+01  0.68581454312E+01  0.29007569909E+02  0.51100000000E-03 0.  1.
         12    1    4    4    0    0 -0.10779294896E+01 -0.96329449468E+01  0.17890529592E+02  0.20347643830E+02  0.00000000000E+00 0. -1.
</event>
<event>
 8    1  0.2500956E-006  0.9118800E+02  0.7816164E-02  0.1184000E+00
        -11   -1    0    0    0    0  0.00000000000E+00  0.00000000000E+00  0.45593999997E+02  0.45594000000E+02  0.51100000000E-03 0. -1.
         11   -1    0    0    0    0 -0.00000000000E+00 -0.00000000000E+00 -0.45593999997E+02  0.45594000000E+02  0.51100000000E-03 0.  1.
         23    2    1    2    0    0  0.88817841970E-15  0.71054273576E-14 -0.35527136788E-14  0.91188000000E+02  0.91188000000E+02 0.  0.
    9900012    2    3    3    0    0  0.73580375034E+01  0.28843505669E+02  0.21672362385E+02  0.54367084388E+02  0.40000000479E+02 0.  0.
        -12    1    3    3    0    0 -0.73580375034E+01 -0.28843505669E+02 -0.21672362385E+02  0.36820915612E+02  0.00000000000E+00 0.  1.
         11    1    4    4    0    0 -0.67541989498E+00  0.28549099958E+01 -0.17264870269E+01  0.34040359625E+01  0.51100000000E-03 0. -1.
        -11    1    4    4    0    0 -0.47089037579E+00 -0.78718837084E+01  0.11765197444E+02  0.14163621077E+02  0.51100000000E-03 0.  1.
        -12    1    4    4    0    0  0.85043477742E+01  0.33860479382E+02  0.11633651968E+02  0.36799427348E+02  0.00000000000E+00 0.  1.
</event>
<event>
 8    1  0.2500956E-006  0.9118800E+02  0.7816164E-02  0.1184000E+00
        -11   -1    0    0    0    0  0.00000000000E+00  0.00000000000E+00  0.45593999997E+02  0.45594000000E+02  0.51100000000E-03 0.  1.
         11   -1    0    0    0    0 -0.00000000000E+00 -0.00000000000E+00 -0.45593999997E+02  0.45594000000E+02  0.51100000000E-03 0. -1.
         23    2    1    2    0    0  0.00000000000E+00 -0.88817841970E-15  0.00000000000E+00  0.91188000000E+02  0.91188000000E+02 0.  0.
    9900012    2    3    3    0    0  0.27072323125E+02 -0.21865253959E+01  0.24861293735E+02  0.54367143154E+02  0.40000134448E+02 0.  0.
         12    1    3    3    0    0 -0.27072323125E+02  0.21865253959E+01 -0.24861293735E+02  0.36820856846E+02  0.00000000000E+00 0. -1.
         11    1    4    4    0    0  0.28251650600E+01  0.56203875431E+01  0.20654337639E+02  0.21591016125E+02  0.51100000000E-03 0. -1.
        -11    1    4    4    0    0  0.13584884695E+02 -0.12128793884E+01 -0.75499907858E+01  0.15589179892E+02  0.51100000000E-03 0.  1.
        -12    1    4    4    0    0  0.10662273370E+02 -0.65940335507E+01  0.11756946881E+02  0.17186947136E+02  0.00000000000E+00 0.  1.
</event>
<event>
 8    1  0.2500956E-006  0.9118800E+02  0.7816164E-02  0.1184000E+00
        -11   -1    0    0    0    0  0.00000000000E+00  0.00000000000E+00  0.45593999997E+02  0.45594000000E+02  0.51100000000E-03 0.  1.
         11   -1    0    0    0    0 -0.00000000000E+00 -0.00000000000E+00 -0.45593999997E+02  0.45594000000E+02  0.51100000000E-03 0. -1.
         23    2    1    2    0    0  0.17763568394E-14  0.00000000000E+00  0.00000000000E+00  0.91188000000E+02  0.91188000000E+02 0.  0.
    9900012    2    3    3    0    0 -0.15950622008E+02 -0.26618526530E+02  0.19819482847E+02  0.54367079352E+02  0.39999988998E+02 0.  0.
         12    1    3    3    0    0  0.15950622008E+02  0.26618526530E+02 -0.19819482847E+02  0.36820920648E+02  0.00000000000E+00 0. -1.
         11    1    4    4    0    0 -0.14089313693E+02 -0.24680839527E+02  0.11199955378E+01  0.28441290237E+02  0.51100000000E-03 0. -1.
        -11    1    4    4    0    0 -0.40777914739E+01 -0.82924156721E+01  0.46440779313E+01  0.10342146831E+02  0.51100000000E-03 0.  1.
         12    1    4    4    0    0  0.22164831582E+01  0.63547286691E+01  0.14055409378E+02  0.15583642284E+02  0.00000000000E+00 0. -1.
</event>
<event>
 8    1  0.2500956E-006  0.9118800E+02  0.7816164E-02  0.1184000E+00
        -11   -1    0    0    0    0  0.00000000000E+00  0.00000000000E+00  0.45593999997E+02  0.45594000000E+02  0.51100000000E-03 0. -1.
         11   -1    0    0    0    0 -0.00000000000E+00 -0.00000000000E+00 -0.45593999997E+02  0.45594000000E+02  0.51100000000E-03 0.  1.
         23    2    1    2    0    0 -0.35527136788E-14  0.00000000000E+00  0.17763568394E-14  0.91188000000E+02  0.91188000000E+02 0.  0.
    9900012    2    3    3    0    0 -0.25645800897E+02  0.24091740335E+02  0.10847126767E+02  0.54367092690E+02  0.40000019406E+02 0.  0.
        -12    1    3    3    0    0  0.25645800897E+02 -0.24091740335E+02 -0.10847126767E+02  0.36820907310E+02  0.00000000000E+00 0.  1.
         11    1    4    4    0    0 -0.28267569691E+01  0.17980357613E+02  0.12167369572E+02  0.21893576625E+02  0.51100000000E-03 0. -1.
        -11    1    4    4    0    0 -0.39767180030E+01  0.19144154815E+01 -0.10283053558E+02  0.11190194970E+02  0.51100000000E-03 0.  1.
         12    1    4    4    0    0 -0.18842325925E+02  0.41969672404E+01  0.89628107531E+01  0.21283321096E+02  0.00000000000E+00 0. -1.
</event>
<event>
 8    1  0.2500956E-006  0.9118800E+02  0.7816164E-02  0.1184000E+00
        -11   -1    0    0    0    0  0.00000000000E+00  0.00000000000E+00  0.45593999997E+02  0.45594000000E+02  0.51100000000E-03 0. -1.
         11   -1    0    0    0    0 -0.00000000000E+00 -0.00000000000E+00 -0.45593999997E+02  0.45594000000E+02  0.51100000000E-03 0.  1.
         23    2    1    2    0    0  0.17763568394E-14 -0.35527136788E-14  0.00000000000E+00  0.91188000000E+02  0.91188000000E+02 0.  0.
    9900012    2    3    3    0    0 -0.10730109991E+02  0.15583427830E+02  0.31587992856E+02  0.54367085074E+02  0.40000002042E+02 0.  0.
        -12    1    3    3    0    0  0.10730109991E+02 -0.15583427830E+02 -0.31587992856E+02  0.36820914926E+02  0.00000000000E+00 0.  1.
         11    1    4    4    0    0 -0.21132593944E+02 -0.49825582523E+00  0.19931513772E+02  0.29053399581E+02  0.51100000000E-03 0. -1.
        -11    1    4    4    0    0  0.50765283837E+01 -0.43137015038E+00  0.31497307946E+01  0.59898267902E+01  0.51100000000E-03 0.  1.
        -12    1    4    4    0    0  0.53259555695E+01  0.16513053806E+02  0.85067482889E+01  0.19323858703E+02  0.00000000000E+00 0.  1.
</event>
<event>
 8    1  0.2500956E-006  0.9118800E+02  0.7816164E-02  0.1184000E+00
        -11   -1    0    0    0    0  0.00000000000E+00  0.00000000000E+00  0.45593999997E+02  0.45594000000E+02  0.51100000000E-03 0.  1.
         11   -1    0    0    0    0 -0.00000000000E+00 -0.00000000000E+00 -0.45593999997E+02  0.45594000000E+02  0.51100000000E-03 0. -1.
         23    2    1    2    0    0  0.00000000000E+00 -0.35527136788E-14  0.00000000000E+00  0.91188000000E+02  0.91188000000E+02 0.  0.
    9900012    2    3    3    0    0  0.22276501518E+02  0.21418632329E+02 -0.20019480038E+02  0.54367083231E+02  0.39999997841E+02 0.  0.
        -12    1    3    3    0    0 -0.22276501518E+02 -0.21418632329E+02  0.20019480038E+02  0.36820916769E+02  0.00000000000E+00 0.  1.
         11    1    4    4    0    0  0.24958916646E+02  0.19939178115E+02 -0.28815840877E+01  0.32075253252E+02  0.51100000000E-03 0. -1.
        -11    1    4    4    0    0 -0.57127187765E+01 -0.21846623679E+01 -0.20158116943E+01  0.64398293866E+01  0.51100000000E-03 0.  1.
         12    1    4    4    0    0  0.30303036483E+01  0.36641165818E+01 -0.15122084256E+02  0.15852000593E+02  0.00000000000E+00 0. -1.
</event>
<event>
 8    1  0.2500956E-006  0.9118800E+02  0.7816164E-02  0.1184000E+00
        -11   -1    0    0    0    0  0.00000000000E+00  0.00000000000E+00  0.45593999997E+02  0.45594000000E+02  0.51100000000E-03 0. -1.
         11   -1    0    0    0    0 -0.00000000000E+00 -0.00000000000E+00 -0.45593999997E+02  0.45594000000E+02  0.51100000000E-03 0.  1.
         23    2    1    2    0    0  0.26645352591E-14 -0.35527136788E-14  0.35527136788E-14  0.91188000000E+02  0.91188000000E+02 0.  0.
    9900012    2    3    3    0    0  0.45654945309E+01 -0.27893586045E+02  0.23598368376E+02  0.54367097339E+02  0.40000030003E+02 0.  0.
        -12    1    3    3    0    0 -0.45654945309E+01  0.27893586045E+02 -0.23598368376E+02  0.36820902661E+02  0.00000000000E+00 0.  1.
         11    1    4    4    0    0 -0.93777359676E+01 -0.99001570220E+01  0.17165122970E+02  0.21922510982E+02  0.51100000000E-03 0. -1.
        -11    1    4    4    0    0  0.18968931424E+01 -0.13316263236E+02 -0.58020618217E+01  0.14648719801E+02  0.51100000000E-03 0.  1.
         12    1    4    4    0    0  0.12046337356E+02 -0.46771657869E+01  0.12235307228E+02  0.17795866556E+02  0.00000000000E+00 0. -1.
</event>
<event>
 8    1  0.2500956E-006  0.9118800E+02  0.7816164E-02  0.1184000E+00
        -11   -1    0    0    0    0  0.00000000000E+00  0.00000000000E+00  0.45593999997E+02  0.45594000000E+02  0.51100000000E-03 0. -1.
         11   -1    0    0    0    0 -0.00000000000E+00 -0.00000000000E+00 -0.45593999997E+02  0.45594000000E+02  0.51100000000E-03 0.  1.
         23    2    1    2    0    0  0.88817841970E-15  0.00000000000E+00  0.00000000000E+00  0.91188000000E+02  0.91188000000E+02 0.  0.
    9900012    2    3    3    0    0 -0.41831638946E+01 -0.17443555706E+02  0.32155923334E+02  0.54367083372E+02  0.39999998163E+02 0.  0.
        -12    1    3    3    0    0  0.41831638946E+01  0.17443555706E+02 -0.32155923334E+02  0.36820916628E+02  0.00000000000E+00 0.  1.
         11    1    4    4    0    0 -0.27362884574E+01  0.32963361872E+01  0.19950256341E+02  0.20405044354E+02  0.51100000000E-03 0. -1.
        -11    1    4    4    0    0 -0.83623214047E+01 -0.85006554020E+01 -0.39358724008E+01  0.12557095737E+02  0.51100000000E-03 0.  1.
        -12    1    4    4    0    0  0.69154459675E+01 -0.12239236491E+02  0.16141539395E+02  0.21404943281E+02  0.00000000000E+00 0.  1.
</event>
<event>
 8    1  0.2500956E-006  0.9118800E+02  0.7816164E-02  0.1184000E+00
        -11   -1    0    0    0    0  0.00000000000E+00  0.00000000000E+00  0.45593999997E+02  0.45594000000E+02  0.51100000000E-03 0.  1.
         11   -1    0    0    0    0 -0.00000000000E+00 -0.00000000000E+00 -0.45593999997E+02  0.45594000000E+02  0.51100000000E-03 0. -1.
         23    2    1    2    0    0  0.00000000000E+00  0.00000000000E+00  0.14210854715E-13  0.91188000000E+02  0.91188000000E+02 0.  0.
    9900012    2    3    3    0    0  0.19278510360E+02  0.68660307927E+01 -0.30610089473E+02  0.54367069565E+02  0.39999966688E+02 0.  0.
        -12    1    3    3    0    0 -0.19278510360E+02 -0.68660307927E+01  0.30610089473E+02  0.36820930435E+02  0.00000000000E+00 0.  1.
         11    1    4    4    0    0  0.13770870395E+02  0.13627061489E+02 -0.25173836337E+02  0.31765637290E+02  0.51100000000E-03 0. -1.
        -11    1    4    4    0    0 -0.37305195464E+01 -0.43062767467E+01  0.56084791760E+01  0.79947379216E+01  0.51100000000E-03 0.  1.
        -12    1    4    4    0    0  0.92381595114E+01 -0.24547539494E+01 -0.11044732312E+02  0.14606694354E+02  0.00000000000E+00 0.  1.
</event>
<event>
 8    1  0.2500956E-006  0.9118800E+02  0.7816164E-02  0.1184000E+00
        -11   -1    0    0    0    0  0.00000000000E+00  0.00000000000E+00  0.45593999997E+02  0.45594000000E+02  0.51100000000E-03 0. -1.
         11   -1    0    0    0    0 -0.00000000000E+00 -0.00000000000E+00 -0.45593999997E+02  0.45594000000E+02  0.51100000000E-03 0.  1.
         23    2    1    2    0    0  0.00000000000E+00  0.88817841970E-15  0.00000000000E+00  0.91188000000E+02  0.91188000000E+02 0.  0.
    9900012    2    3    3    0    0  0.32214118181E+02  0.54897992535E+01 -0.16967418227E+02  0.54367074057E+02  0.39999976927E+02 0.  0.
         12    1    3    3    0    0 -0.32214118181E+02 -0.54897992535E+01  0.16967418227E+02  0.36820925943E+02  0.00000000000E+00 0. -1.
         11    1    4    4    0    0 -0.14843980769E+01 -0.34422662810E+01 -0.14365970665E+02  0.14847011424E+02  0.51100000000E-03 0. -1.
        -11    1    4    4    0    0  0.33481025848E+01  0.49288098870E+01 -0.63150765039E+01  0.86823469944E+01  0.51100000000E-03 0.  1.
        -12    1    4    4    0    0  0.30350413673E+02  0.40032556475E+01  0.37136289417E+01  0.30837715639E+02  0.00000000000E+00 0.  1.
</event>
<event>
 8    1  0.2500956E-006  0.9118800E+02  0.7816164E-02  0.1184000E+00
        -11   -1    0    0    0    0  0.00000000000E+00  0.00000000000E+00  0.45593999997E+02  0.45594000000E+02  0.51100000000E-03 0. -1.
         11   -1    0    0    0    0 -0.00000000000E+00 -0.00000000000E+00 -0.45593999997E+02  0.45594000000E+02  0.51100000000E-03 0.  1.
         23    2    1    2    0    0  0.00000000000E+00 -0.71054273576E-14 -0.17763568394E-14  0.91188000000E+02  0.91188000000E+02 0.  0.
    9900012    2    3    3    0    0 -0.15757853795E+02 -0.30184452182E+02 -0.14013221797E+02  0.54367061733E+02  0.39999948833E+02 0.  0.
         12    1    3    3    0    0  0.15757853795E+02  0.30184452182E+02  0.14013221797E+02  0.36820938267E+02  0.00000000000E+00 0. -1.
         11    1    4    4    0    0 -0.43049998536E+01 -0.21708971478E+02  0.71232912346E+00  0.22143167782E+02  0.51100000000E-03 0. -1.
        -11    1    4    4    0    0  0.35619833881E+01  0.65240943819E+01 -0.35335316697E+01  0.82302721391E+01  0.51100000000E-03 0.  1.
        -12    1    4    4    0    0 -0.15014837329E+02 -0.14999575086E+02 -0.11192019251E+02  0.23993621812E+02  0.00000000000E+00 0.  1.
</event>
<event>
 8    1  0.2500956E-006  0.9118800E+02  0.7816164E-02  0.1184000E+00
        -11   -1    0    0    0    0  0.00000000000E+00  0.00000000000E+00  0.45593999997E+02  0.45594000000E+02  0.51100000000E-03 0.  1.
         11   -1    0    0    0    0 -0.00000000000E+00 -0.00000000000E+00 -0.45593999997E+02  0.45594000000E+02  0.51100000000E-03 0. -1.
         23    2    1    2    0    0  0.17763568394E-14  0.00000000000E+00  0.00000000000E+00  0.91188000000E+02  0.91188000000E+02 0.  0.
    9900012    2    3    3    0    0  0.13426778155E+02  0.27232177495E+02  0.20830498075E+02  0.54367088648E+02  0.40000010190E+02 0.  0.
         12    1    3    3    0    0 -0.13426778155E+02 -0.27232177495E+02 -0.20830498075E+02  0.36820911352E+02  0.00000000000E+00 0. -1.
         11    1    4    4    0    0  0.90185369216E-01 -0.49443893855E+01 -0.66770451639E+01  0.83089140192E+01  0.51100000000E-03 0. -1.
        -11    1    4    4    0    0  0.47927916134E+01  0.11428595653E+02  0.17610923018E+02  0.21534350695E+02  0.51100000000E-03 0.  1.
        -12    1    4    4    0    0  0.85438011728E+01  0.20747971228E+02  0.98966202215E+01  0.24523823934E+02  0.00000000000E+00 0.  1.
</event>
<event>
 8    1  0.2500956E-006  0.9118800E+02  0.7816164E-02  0.1184000E+00
        -11   -1    0    0    0    0  0.00000000000E+00  0.00000000000E+00  0.45593999997E+02  0.45594000000E+02  0.51100000000E-03 0.  1.
         11   -1    0    0    0    0 -0.00000000000E+00 -0.00000000000E+00 -0.45593999997E+02  0.45594000000E+02  0.51100000000E-03 0. -1.
         23    2    1    2    0    0  0.00000000000E+00  0.35527136788E-14 -0.35527136788E-14  0.91188000000E+02  0.91188000000E+02 0.  0.
    9900012    2    3    3    0    0 -0.13018922108E+02 -0.18046526261E+02  0.29336147086E+02  0.54367096035E+02  0.40000027030E+02 0.  0.
         12    1    3    3    0    0  0.13018922108E+02  0.18046526261E+02 -0.29336147086E+02  0.36820903965E+02  0.00000000000E+00 0. -1.
         11    1    4    4    0    0 -0.14019439712E+02 -0.11340070571E+02  0.37806582901E+01  0.18423769098E+02  0.51100000000E-03 0. -1.
        -11    1    4    4    0    0  0.21092409044E+01 -0.75942804145E+01 -0.21751107332E+01  0.81763744514E+01  0.51100000000E-03 0.  1.
        -12    1    4    4    0    0 -0.11087233004E+01  0.88782472395E+00  0.27730599529E+02  0.27766952486E+02  0.00000000000E+00 0.  1.
</event>
<event>
 8    1  0.2500956E-006  0.9118800E+02  0.7816164E-02  0.1184000E+00
        -11   -1    0    0    0    0  0.00000000000E+00  0.00000000000E+00  0.45593999997E+02  0.45594000000E+02  0.51100000000E-03 0. -1.
         11   -1    0    0    0    0 -0.00000000000E+00 -0.00000000000E+00 -0.45593999997E+02  0.45594000000E+02  0.51100000000E-03 0.  1.
         23    2    1    2    0    0  0.00000000000E+00  0.00000000000E+00  0.00000000000E+00  0.91188000000E+02  0.91188000000E+02 0.  0.
    9900012    2    3    3    0    0  0.41701468207E+01  0.16001689835E+02  0.32898881609E+02  0.54367073705E+02  0.39999976125E+02 0.  0.
        -12    1    3    3    0    0 -0.41701468207E+01 -0.16001689835E+02 -0.32898881609E+02  0.36820926295E+02  0.00000000000E+00 0.  1.
         11    1    4    4    0    0 -0.24212116691E+01 -0.66664738462E+01  0.18515574303E+01  0.73302390593E+01  0.51100000000E-03 0. -1.
        -11    1    4    4    0    0  0.11270714205E+01 -0.51118992764E+01  0.30504040897E+00  0.52435535767E+01  0.51100000000E-03 0.  1.
        -12    1    4    4    0    0  0.54642870693E+01  0.27780062958E+02  0.30742283770E+02  0.41793281069E+02  0.00000000000E+00 0.  1.
</event>
<event>
 8    1  0.2500956E-006  0.9118800E+02  0.7816164E-02  0.1184000E+00
        -11   -1    0    0    0    0  0.00000000000E+00  0.00000000000E+00  0.45593999997E+02  0.45594000000E+02  0.51100000000E-03 0.  1.
         11   -1    0    0    0    0 -0.00000000000E+00 -0.00000000000E+00 -0.45593999997E+02  0.45594000000E+02  0.51100000000E-03 0. -1.
         23    2    1    2    0    0 -0.88817841970E-15 -0.35527136788E-14  0.00000000000E+00  0.91188000000E+02  0.91188000000E+02 0.  0.
    9900012    2    3    3    0    0 -0.25616017546E+01 -0.19866325194E+02 -0.30895746084E+02  0.54367084662E+02  0.40000001104E+02 0.  0.
        -12    1    3    3    0    0  0.25616017546E+01  0.19866325194E+02  0.30895746084E+02  0.36820915338E+02  0.00000000000E+00 0.  1.
         11    1    4    4    0    0  0.47062167961E+01 -0.31133395596E+01  0.24054325905E+01  0.61341230795E+01  0.51100000000E-03 0. -1.
        -11    1    4    4    0    0  0.62883857279E+01 -0.90459330014E+01  0.47884130734E+00  0.11027329150E+02  0.51100000000E-03 0.  1.
         12    1    4    4    0    0 -0.13556204279E+02 -0.77070526330E+01 -0.33780019981E+02  0.37205632432E+02  0.00000000000E+00 0. -1.
</event>
<event>
 8    1  0.2500956E-006  0.9118800E+02  0.7816164E-02  0.1184000E+00
        -11   -1    0    0    0    0  0.00000000000E+00  0.00000000000E+00  0.45593999997E+02  0.45594000000E+02  0.51100000000E-03 0. -1.
         11   -1    0    0    0    0 -0.00000000000E+00 -0.00000000000E+00 -0.45593999997E+02  0.45594000000E+02  0.51100000000E-03 0.  1.
         23    2    1    2    0    0  0.00000000000E+00  0.00000000000E+00  0.17763568394E-14  0.91188000000E+02  0.91188000000E+02 0.  0.
    9900012    2    3    3    0    0 -0.25200812306E+02  0.26205706193E+02 -0.58274822450E+01  0.54367088451E+02  0.40000009743E+02 0.  0.
        -12    1    3    3    0    0  0.25200812306E+02 -0.26205706193E+02  0.58274822450E+01  0.36820911549E+02  0.00000000000E+00 0.  1.
         11    1    4    4    0    0 -0.16525819675E+02  0.72783468521E+01  0.60940389634E+00  0.18067883722E+02  0.51100000000E-03 0. -1.
        -11    1    4    4    0    0 -0.10006176325E+01  0.96154973778E+01  0.11284719664E+02  0.14859472522E+02  0.51100000000E-03 0.  1.
        -12    1    4    4    0    0 -0.76743749992E+01  0.93118619628E+01 -0.17721605805E+02  0.21439732208E+02  0.00000000000E+00 0.  1.
</event>
<event>
 8    1  0.2500956E-006  0.9118800E+02  0.7816164E-02  0.1184000E+00
        -11   -1    0    0    0    0  0.00000000000E+00  0.00000000000E+00  0.45593999997E+02  0.45594000000E+02  0.51100000000E-03 0.  1.
         11   -1    0    0    0    0 -0.00000000000E+00 -0.00000000000E+00 -0.45593999997E+02  0.45594000000E+02  0.51100000000E-03 0. -1.
         23    2    1    2    0    0  0.00000000000E+00  0.00000000000E+00  0.00000000000E+00  0.91188000000E+02  0.91188000000E+02 0.  0.
    9900012    2    3    3    0    0 -0.14542009906E+02 -0.26685102668E+02 -0.20789759793E+02  0.54367097394E+02  0.40000030129E+02 0.  0.
        -12    1    3    3    0    0  0.14542009906E+02  0.26685102668E+02  0.20789759793E+02  0.36820902606E+02  0.00000000000E+00 0.  1.
         11    1    4    4    0    0 -0.40165785385E+01 -0.17440641004E+02 -0.27050655291E+01  0.18100448656E+02  0.51100000000E-03 0. -1.
        -11    1    4    4    0    0 -0.14122197257E+02  0.33445560657E+01 -0.18066724066E+02  0.23173886799E+02  0.51100000000E-03 0.  1.
        -12    1    4    4    0    0  0.35967658898E+01 -0.12589017729E+02 -0.17970197873E-01  0.13092761939E+02  0.00000000000E+00 0.  1.
</event>
<event>
 8    1  0.2500956E-006  0.9118800E+02  0.7816164E-02  0.1184000E+00
        -11   -1    0    0    0    0  0.00000000000E+00  0.00000000000E+00  0.45593999997E+02  0.45594000000E+02  0.51100000000E-03 0.  1.
         11   -1    0    0    0    0 -0.00000000000E+00 -0.00000000000E+00 -0.45593999997E+02  0.45594000000E+02  0.51100000000E-03 0. -1.
         23    2    1    2    0    0  0.66613381478E-15  0.00000000000E+00 -0.71054273576E-14  0.91188000000E+02  0.91188000000E+02 0.  0.
    9900012    2    3    3    0    0  0.22039278145E+00  0.57608400532E+01  0.36366803680E+02  0.54367078488E+02  0.39999987029E+02 0.  0.
         12    1    3    3    0    0 -0.22039278145E+00 -0.57608400532E+01 -0.36366803680E+02  0.36820921512E+02  0.00000000000E+00 0. -1.
         11    1    4    4    0    0  0.73250444929E+01  0.32006619216E+01 -0.65932066172E+01  0.10361992440E+02  0.51100000000E-03 0. -1.
        -11    1    4    4    0    0  0.52231011616E-01  0.19369348139E+01  0.48289853289E+01  0.52032243964E+01  0.51100000000E-03 0.  1.
         12    1    4    4    0    0 -0.71568827231E+01  0.62324331773E+00  0.38131024968E+02  0.38801861652E+02  0.00000000000E+00 0. -1.
</event>
<event>
 8    1  0.2500956E-006  0.9118800E+02  0.7816164E-02  0.1184000E+00
        -11   -1    0    0    0    0  0.00000000000E+00  0.00000000000E+00  0.45593999997E+02  0.45594000000E+02  0.51100000000E-03 0. -1.
         11   -1    0    0    0    0 -0.00000000000E+00 -0.00000000000E+00 -0.45593999997E+02  0.45594000000E+02  0.51100000000E-03 0.  1.
         23    2    1    2    0    0 -0.17763568394E-14  0.00000000000E+00  0.00000000000E+00  0.91188000000E+02  0.91188000000E+02 0.  0.
    9900012    2    3    3    0    0  0.15664472656E+02  0.29398650367E+02 -0.15688226269E+02  0.54367125615E+02  0.40000094464E+02 0.  0.
        -12    1    3    3    0    0 -0.15664472656E+02 -0.29398650367E+02  0.15688226269E+02  0.36820874385E+02  0.00000000000E+00 0.  1.
         11    1    4    4    0    0  0.39707050180E+01  0.20508410972E+02  0.10955580098E+01  0.20917974724E+02  0.51100000000E-03 0. -1.
        -11    1    4    4    0    0 -0.13612992187E+01  0.62111087995E+01 -0.18912765603E+02  0.19953037640E+02  0.51100000000E-03 0.  1.
         12    1    4    4    0    0  0.13055066857E+02  0.26791305955E+01  0.21289813236E+01  0.13496113250E+02  0.00000000000E+00 0. -1.
</event>
<event>
 8    1  0.2500956E-006  0.9118800E+02  0.7816164E-02  0.1184000E+00
        -11   -1    0    0    0    0  0.00000000000E+00  0.00000000000E+00  0.45593999997E+02  0.45594000000E+02  0.51100000000E-03 0. -1.
         11   -1    0    0    0    0 -0.00000000000E+00 -0.00000000000E+00 -0.45593999997E+02  0.45594000000E+02  0.51100000000E-03 0.  1.
         23    2    1    2    0    0  0.00000000000E+00 -0.17763568394E-14 -0.88817841970E-15  0.91188000000E+02  0.91188000000E+02 0.  0.
    9900012    2    3    3    0    0  0.33051857469E+02 -0.14499301430E+02 -0.72886480009E+01  0.54367089993E+02  0.40000013257E+02 0.  0.
         12    1    3    3    0    0 -0.33051857469E+02  0.14499301430E+02  0.72886480009E+01  0.36820910007E+02  0.00000000000E+00 0. -1.
         11    1    4    4    0    0  0.23548393498E+02 -0.47867832630E+01 -0.66219134677E+01  0.24925686923E+02  0.51100000000E-03 0. -1.
        -11    1    4    4    0    0  0.13052055857E+02  0.46387969623E+01  0.30806559944E+01  0.14190315041E+02  0.51100000000E-03 0.  1.
        -12    1    4    4    0    0 -0.35485918861E+01 -0.14351315129E+02 -0.37473905276E+01  0.15251088029E+02  0.00000000000E+00 0.  1.
</event>
<event>
 8    1  0.2500956E-006  0.9118800E+02  0.7816164E-02  0.1184000E+00
        -11   -1    0    0    0    0  0.00000000000E+00  0.00000000000E+00  0.45593999997E+02  0.45594000000E+02  0.51100000000E-03 0.  1.
         11   -1    0    0    0    0 -0.00000000000E+00 -0.00000000000E+00 -0.45593999997E+02  0.45594000000E+02  0.51100000000E-03 0. -1.
         23    2    1    2    0    0 -0.88817841970E-15  0.00000000000E+00  0.00000000000E+00  0.91188000000E+02  0.91188000000E+02 0.  0.
    9900012    2    3    3    0    0 -0.79610068200E+01  0.14564453949E+02  0.32867782461E+02  0.54366918099E+02  0.39999621389E+02 0.  0.
         12    1    3    3    0    0  0.79610068200E+01 -0.14564453949E+02 -0.32867782461E+02  0.36821081901E+02  0.00000000000E+00 0. -1.
         11    1    4    4    0    0  0.28045988921E+01 -0.45424975045E+01  0.43218811140E+01  0.68686763753E+01  0.51100000000E-03 0. -1.
        -11    1    4    4    0    0 -0.10748014105E+01  0.18897567017E+02  0.32024382348E+02  0.37199923418E+02  0.51100000000E-03 0.  1.
         12    1    4    4    0    0 -0.96908043017E+01  0.20938443670E+00 -0.34784810013E+01  0.10298318306E+02  0.00000000000E+00 0. -1.
</event>
<event>
 8    1  0.2500956E-006  0.9118800E+02  0.7816164E-02  0.1184000E+00
        -11   -1    0    0    0    0  0.00000000000E+00  0.00000000000E+00  0.45593999997E+02  0.45594000000E+02  0.51100000000E-03 0. -1.
         11   -1    0    0    0    0 -0.00000000000E+00 -0.00000000000E+00 -0.45593999997E+02  0.45594000000E+02  0.51100000000E-03 0.  1.
         23    2    1    2    0    0  0.35527136788E-14 -0.13322676296E-14  0.00000000000E+00  0.91188000000E+02  0.91188000000E+02 0.  0.
    9900012    2    3    3    0    0 -0.16444181975E+02 -0.26322724444E+01  0.32839600832E+02  0.54367090697E+02  0.40000014862E+02 0.  0.
        -12    1    3    3    0    0  0.16444181975E+02  0.26322724444E+01 -0.32839600832E+02  0.36820909303E+02  0.00000000000E+00 0.  1.
         11    1    4    4    0    0  0.36018767187E+01 -0.25927069705E+01  0.75345981402E+01  0.87444733819E+01  0.51100000000E-03 0. -1.
        -11    1    4    4    0    0 -0.25058259198E+02  0.83386996068E+01  0.11719378222E+02  0.28892803452E+02  0.51100000000E-03 0.  1.
        -12    1    4    4    0    0  0.50122005039E+01 -0.83782650807E+01  0.13585624470E+02  0.16729813863E+02  0.00000000000E+00 0.  1.
</event>
<event>
 8    1  0.2500956E-006  0.9118800E+02  0.7816164E-02  0.1184000E+00
        -11   -1    0    0    0    0  0.00000000000E+00  0.00000000000E+00  0.45593999997E+02  0.45594000000E+02  0.51100000000E-03 0.  1.
         11   -1    0    0    0    0 -0.00000000000E+00 -0.00000000000E+00 -0.45593999997E+02  0.45594000000E+02  0.51100000000E-03 0. -1.
         23    2    1    2    0    0  0.35527136788E-14  0.77715611724E-15  0.35527136788E-14  0.91188000000E+02  0.91188000000E+02 0.  0.
    9900012    2    3    3    0    0 -0.26197411416E+02  0.46862448744E+00 -0.25869969567E+02  0.54367091548E+02  0.40000016802E+02 0.  0.
        -12    1    3    3    0    0  0.26197411416E+02 -0.46862448744E+00  0.25869969567E+02  0.36820908452E+02  0.00000000000E+00 0.  1.
         11    1    4    4    0    0 -0.10288666819E+02 -0.28849979732E+01 -0.23612343182E+02  0.25917612333E+02  0.51100000000E-03 0. -1.
        -11    1    4    4    0    0 -0.21041634631E+01 -0.46585411930E+01 -0.96033263505E+01  0.10879034295E+02  0.51100000000E-03 0.  1.
        -12    1    4    4    0    0 -0.13804581134E+02  0.80121636537E+01  0.73456999657E+01  0.17570444920E+02  0.00000000000E+00 0.  1.
</event>
<event>
 8    1  0.2500956E-006  0.9118800E+02  0.7816164E-02  0.1184000E+00
        -11   -1    0    0    0    0  0.00000000000E+00  0.00000000000E+00  0.45593999997E+02  0.45594000000E+02  0.51100000000E-03 0. -1.
         11   -1    0    0    0    0 -0.00000000000E+00 -0.00000000000E+00 -0.45593999997E+02  0.45594000000E+02  0.51100000000E-03 0.  1.
         23    2    1    2    0    0  0.35527136788E-14  0.00000000000E+00  0.00000000000E+00  0.91188000000E+02  0.91188000000E+02 0.  0.
    9900012    2    3    3    0    0 -0.22107377991E+02 -0.17676454792E+02 -0.23549650719E+02  0.54367092018E+02  0.40000017873E+02 0.  0.
         12    1    3    3    0    0  0.22107377991E+02  0.17676454792E+02  0.23549650719E+02  0.36820907982E+02  0.00000000000E+00 0. -1.
         11    1    4    4    0    0 -0.16189445658E+02 -0.15410745536E+02 -0.59144944656E+01  0.23120780128E+02  0.51100000000E-03 0. -1.
        -11    1    4    4    0    0 -0.12657780143E+02 -0.66203950915E+01 -0.18276404323E+02  0.23196464915E+02  0.51100000000E-03 0.  1.
        -12    1    4    4    0    0  0.67398478101E+01  0.43546858356E+01  0.64124806901E+00  0.80498469747E+01  0.00000000000E+00 0.  1.
</event>
<event>
 8    1  0.2500956E-006  0.9118800E+02  0.7816164E-02  0.1184000E+00
        -11   -1    0    0    0    0  0.00000000000E+00  0.00000000000E+00  0.45593999997E+02  0.45594000000E+02  0.51100000000E-03 0.  1.
         11   -1    0    0    0    0 -0.00000000000E+00 -0.00000000000E+00 -0.45593999997E+02  0.45594000000E+02  0.51100000000E-03 0. -1.
         23    2    1    2    0    0  0.00000000000E+00  0.00000000000E+00  0.88817841970E-15  0.91188000000E+02  0.91188000000E+02 0.  0.
    9900012    2    3    3    0    0  0.31569271364E+02  0.18110359641E+02  0.55835120267E+01  0.54367087092E+02  0.40000006645E+02 0.  0.
        -12    1    3    3    0    0 -0.31569271364E+02 -0.18110359641E+02 -0.55835120267E+01  0.36820912908E+02  0.00000000000E+00 0.  1.
         11    1    4    4    0    0  0.22375971060E+02  0.22694616460E+02 -0.81856337313E+01  0.32904928156E+02  0.51100000000E-03 0. -1.
        -11    1    4    4    0    0  0.32639597507E+01 -0.67940032325E+01  0.15402422733E+01  0.76931306825E+01  0.51100000000E-03 0.  1.
         12    1    4    4    0    0  0.59293405532E+01  0.22097464142E+01  0.12228903485E+02  0.13769028254E+02  0.00000000000E+00 0. -1.
</event>
<event>
 8    1  0.2500956E-006  0.9118800E+02  0.7816164E-02  0.1184000E+00
        -11   -1    0    0    0    0  0.00000000000E+00  0.00000000000E+00  0.45593999997E+02  0.45594000000E+02  0.51100000000E-03 0.  1.
         11   -1    0    0    0    0 -0.00000000000E+00 -0.00000000000E+00 -0.45593999997E+02  0.45594000000E+02  0.51100000000E-03 0. -1.
         23    2    1    2    0    0  0.35527136788E-14  0.00000000000E+00  0.88817841970E-15  0.91188000000E+02  0.91188000000E+02 0.  0.
    9900012    2    3    3    0    0  0.30771967927E+02  0.19409885648E+02  0.56675995366E+01  0.54367090784E+02  0.40000015061E+02 0.  0.
         12    1    3    3    0    0 -0.30771967927E+02 -0.19409885648E+02 -0.56675995366E+01  0.36820909216E+02  0.00000000000E+00 0. -1.
         11    1    4    4    0    0 -0.47155901269E+00 -0.26249866822E+00 -0.36957632025E+01  0.37349617619E+01  0.51100000000E-03 0. -1.
        -11    1    4    4    0    0  0.46026016622E+01 -0.80242397669E+01  0.79159761406E+01  0.12175181494E+02  0.51100000000E-03 0.  1.
         12    1    4    4    0    0  0.26640925278E+02  0.27696624083E+02  0.14473865985E+01  0.38456947528E+02  0.00000000000E+00 0. -1.
</event>
<event>
 8    1  0.2500956E-006  0.9118800E+02  0.7816164E-02  0.1184000E+00
        -11   -1    0    0    0    0  0.00000000000E+00  0.00000000000E+00  0.45593999997E+02  0.45594000000E+02  0.51100000000E-03 0.  1.
         11   -1    0    0    0    0 -0.00000000000E+00 -0.00000000000E+00 -0.45593999997E+02  0.45594000000E+02  0.51100000000E-03 0. -1.
         23    2    1    2    0    0  0.00000000000E+00  0.00000000000E+00  0.00000000000E+00  0.91188000000E+02  0.91188000000E+02 0.  0.
    9900012    2    3    3    0    0 -0.58111284362E+00  0.33928746780E+02  0.14292731044E+02  0.54367085958E+02  0.40000004059E+02 0.  0.
         12    1    3    3    0    0  0.58111284362E+00 -0.33928746780E+02 -0.14292731044E+02  0.36820914042E+02  0.00000000000E+00 0. -1.
         11    1    4    4    0    0  0.61998781758E+01 -0.29566720912E+01  0.49063751198E+01  0.84411442546E+01  0.51100000000E-03 0. -1.
        -11    1    4    4    0    0  0.35194561260E+01  0.14241837711E+02  0.14391934886E+02  0.20551017075E+02  0.51100000000E-03 0.  1.
        -12    1    4    4    0    0 -0.10300447145E+02  0.22643581160E+02 -0.50055789614E+01  0.25374924628E+02  0.00000000000E+00 0.  1.
</event>
<event>
 8    1  0.2500956E-006  0.9118800E+02  0.7816164E-02  0.1184000E+00
        -11   -1    0    0    0    0  0.00000000000E+00  0.00000000000E+00  0.45593999997E+02  0.45594000000E+02  0.51100000000E-03 0.  1.
         11   -1    0    0    0    0 -0.00000000000E+00 -0.00000000000E+00 -0.45593999997E+02  0.45594000000E+02  0.51100000000E-03 0. -1.
         23    2    1    2    0    0 -0.35527136788E-14 -0.88817841970E-15  0.35527136788E-14  0.91188000000E+02  0.91188000000E+02 0.  0.
    9900012    2    3    3    0    0  0.30911885671E+02  0.63883079729E+01 -0.18958502211E+02  0.54367082567E+02  0.39999996328E+02 0.  0.
        -12    1    3    3    0    0 -0.30911885671E+02 -0.63883079729E+01  0.18958502211E+02  0.36820917433E+02  0.00000000000E+00 0.  1.
         11    1    4    4    0    0  0.74317086967E+01 -0.68640201825E+00 -0.10824231250E+01  0.75414243990E+01  0.51100000000E-03 0. -1.
        -11    1    4    4    0    0  0.16096736293E+02  0.25827053812E+01  0.89806716558E+01  0.18612569678E+02  0.51100000000E-03 0.  1.
         12    1    4    4    0    0  0.73834406814E+01  0.44920046099E+01 -0.26856750742E+02  0.28213088490E+02  0.00000000000E+00 0. -1.
</event>
<event>
 8    1  0.2500956E-006  0.9118800E+02  0.7816164E-02  0.1184000E+00
        -11   -1    0    0    0    0  0.00000000000E+00  0.00000000000E+00  0.45593999997E+02  0.45594000000E+02  0.51100000000E-03 0.  1.
         11   -1    0    0    0    0 -0.00000000000E+00 -0.00000000000E+00 -0.45593999997E+02  0.45594000000E+02  0.51100000000E-03 0. -1.
         23    2    1    2    0    0  0.35527136788E-14  0.00000000000E+00  0.00000000000E+00  0.91188000000E+02  0.91188000000E+02 0.  0.
    9900012    2    3    3    0    0  0.27459660541E+02 -0.73993441713E+01  0.23387973895E+02  0.54367074236E+02  0.39999977337E+02 0.  0.
         12    1    3    3    0    0 -0.27459660541E+02  0.73993441713E+01 -0.23387973895E+02  0.36820925764E+02  0.00000000000E+00 0. -1.
         11    1    4    4    0    0  0.23192042071E+01 -0.30425645066E+01 -0.84940059411E+01  0.93157954100E+01  0.51100000000E-03 0. -1.
        -11    1    4    4    0    0  0.14626849480E+02 -0.42916148432E+01  0.47704024347E+01  0.15972458275E+02  0.51100000000E-03 0.  1.
        -12    1    4    4    0    0  0.10513606854E+02 -0.65164821511E-01  0.27111577401E+02  0.29078820552E+02  0.00000000000E+00 0.  1.
</event>
<event>
 8    1  0.2500956E-006  0.9118800E+02  0.7816164E-02  0.1184000E+00
        -11   -1    0    0    0    0  0.00000000000E+00  0.00000000000E+00  0.45593999997E+02  0.45594000000E+02  0.51100000000E-03 0. -1.
         11   -1    0    0    0    0 -0.00000000000E+00 -0.00000000000E+00 -0.45593999997E+02  0.45594000000E+02  0.51100000000E-03 0.  1.
         23    2    1    2    0    0  0.00000000000E+00  0.17763568394E-14  0.00000000000E+00  0.91188000000E+02  0.91188000000E+02 0.  0.
    9900012    2    3    3    0    0 -0.18742703719E+02 -0.68538143979E+01  0.30943754063E+02  0.54367087056E+02  0.40000006562E+02 0.  0.
        -12    1    3    3    0    0  0.18742703719E+02  0.68538143979E+01 -0.30943754063E+02  0.36820912944E+02  0.00000000000E+00 0.  1.
         11    1    4    4    0    0 -0.16611997479E+02  0.55620512366E+01  0.15281648180E+02  0.23247013691E+02  0.51100000000E-03 0. -1.
        -11    1    4    4    0    0 -0.47145658654E+01 -0.17188728855E+02  0.17889873883E+02  0.25253259567E+02  0.51100000000E-03 0.  1.
        -12    1    4    4    0    0  0.25838596252E+01  0.47728632200E+01 -0.22277680001E+01  0.58668137981E+01  0.00000000000E+00 0.  1.
</event>
<event>
 8    1  0.2500956E-006  0.9118800E+02  0.7816164E-02  0.1184000E+00
        -11   -1    0    0    0    0  0.00000000000E+00  0.00000000000E+00  0.45593999997E+02  0.45594000000E+02  0.51100000000E-03 0. -1.
         11   -1    0    0    0    0 -0.00000000000E+00 -0.00000000000E+00 -0.45593999997E+02  0.45594000000E+02  0.51100000000E-03 0.  1.
         23    2    1    2    0    0  0.00000000000E+00  0.00000000000E+00  0.00000000000E+00  0.91188000000E+02  0.91188000000E+02 0.  0.
    9900012    2    3    3    0    0 -0.29298649173E+02  0.10789595172E+02  0.19518016609E+02  0.54367093171E+02  0.40000020503E+02 0.  0.
        -12    1    3    3    0    0  0.29298649173E+02 -0.10789595172E+02 -0.19518016609E+02  0.36820906829E+02  0.00000000000E+00 0.  1.
         11    1    4    4    0    0 -0.31860919437E+02 -0.44340739173E+01  0.10703572465E+02  0.33902000864E+02  0.51100000000E-03 0. -1.
        -11    1    4    4    0    0 -0.37623740020E+01  0.79807635843E+01  0.36284975146E+01  0.95401278814E+01  0.51100000000E-03 0.  1.
         12    1    4    4    0    0  0.63246442659E+01  0.72429055053E+01  0.51859466300E+01  0.10924964425E+02  0.00000000000E+00 0. -1.
</event>
<event>
 8    1  0.2500956E-006  0.9118800E+02  0.7816164E-02  0.1184000E+00
        -11   -1    0    0    0    0  0.00000000000E+00  0.00000000000E+00  0.45593999997E+02  0.45594000000E+02  0.51100000000E-03 0.  1.
         11   -1    0    0    0    0 -0.00000000000E+00 -0.00000000000E+00 -0.45593999997E+02  0.45594000000E+02  0.51100000000E-03 0. -1.
         23    2    1    2    0    0  0.00000000000E+00  0.35527136788E-14  0.35527136788E-14  0.91188000000E+02  0.91188000000E+02 0.  0.
    9900012    2    3    3    0    0  0.11056908303E+02  0.30839138261E+02 -0.16806918956E+02  0.54367079389E+02  0.39999989082E+02 0.  0.
        -12    1    3    3    0    0 -0.11056908303E+02 -0.30839138261E+02  0.16806918956E+02  0.36820920611E+02  0.00000000000E+00 0.  1.
         11    1    4    4    0    0  0.18694161038E+01  0.18509190109E+02 -0.25068536095E+02  0.31217244229E+02  0.51100000000E-03 0. -1.
        -11    1    4    4    0    0  0.10543705350E+02  0.14507477902E+02  0.95069043834E+01  0.20298223292E+02  0.51100000000E-03 0.  1.
        -12    1    4    4    0    0 -0.13562131501E+01 -0.21775297507E+01 -0.12452872444E+01  0.28516118678E+01  0.00000000000E+00 0.  1.
</event>
<event>
 8    1  0.2500956E-006  0.9118800E+02  0.7816164E-02  0.1184000E+00
        -11   -1    0    0    0    0  0.00000000000E+00  0.00000000000E+00  0.45593999997E+02  0.45594000000E+02  0.51100000000E-03 0. -1.
         11   -1    0    0    0    0 -0.00000000000E+00 -0.00000000000E+00 -0.45593999997E+02  0.45594000000E+02  0.51100000000E-03 0.  1.
         23    2    1    2    0    0  0.71054273576E-14 -0.17763568394E-14 -0.35527136788E-14  0.91188000000E+02  0.91188000000E+02 0.  0.
    9900012    2    3    3    0    0 -0.25189874840E+02  0.96055295792E+01  0.25079546619E+02  0.54367086764E+02  0.40000005895E+02 0.  0.
        -12    1    3    3    0    0  0.25189874840E+02 -0.96055295792E+01 -0.25079546619E+02  0.36820913236E+02  0.00000000000E+00 0.  1.
         11    1    4    4    0    0  0.16523391721E+01  0.54262233304E+01  0.14815236828E+02  0.15863964413E+02  0.51100000000E-03 0. -1.
        -11    1    4    4    0    0  0.44344875043E+01  0.77362174686E+00  0.47821162654E+01  0.65674809684E+01  0.51100000000E-03 0.  1.
        -12    1    4    4    0    0 -0.31276701516E+02  0.34056845020E+01  0.54821935257E+01  0.31935641383E+02  0.00000000000E+00 0.  1.
</event>
<event>
 8    1  0.2500956E-006  0.9118800E+02  0.7816164E-02  0.1184000E+00
        -11   -1    0    0    0    0  0.00000000000E+00  0.00000000000E+00  0.45593999997E+02  0.45594000000E+02  0.51100000000E-03 0. -1.
         11   -1    0    0    0    0 -0.00000000000E+00 -0.00000000000E+00 -0.45593999997E+02  0.45594000000E+02  0.51100000000E-03 0.  1.
         23    2    1    2    0    0  0.88817841970E-15 -0.35527136788E-14  0.35527136788E-14  0.91188000000E+02  0.91188000000E+02 0.  0.
    9900012    2    3    3    0    0 -0.52906458301E+01 -0.21205895894E+02  0.29632748273E+02  0.54367072198E+02  0.39999972691E+02 0.  0.
        -12    1    3    3    0    0  0.52906458301E+01  0.21205895894E+02 -0.29632748273E+02  0.36820927802E+02  0.00000000000E+00 0.  1.
         11    1    4    4    0    0 -0.11235588238E+02 -0.92510920915E+01  0.18297757596E+02  0.23380100112E+02  0.51100000000E-03 0. -1.
        -11    1    4    4    0    0 -0.44924797156E+01 -0.21762110915E+01 -0.64553777994E+01  0.81602801119E+01  0.51100000000E-03 0.  1.
        -12    1    4    4    0    0  0.10437422123E+02 -0.97785927107E+01  0.17790368477E+02  0.22826691975E+02  0.00000000000E+00 0.  1.
</event>
<event>
 8    1  0.2500956E-006  0.9118800E+02  0.7816164E-02  0.1184000E+00
        -11   -1    0    0    0    0  0.00000000000E+00  0.00000000000E+00  0.45593999997E+02  0.45594000000E+02  0.51100000000E-03 0. -1.
         11   -1    0    0    0    0 -0.00000000000E+00 -0.00000000000E+00 -0.45593999997E+02  0.45594000000E+02  0.51100000000E-03 0.  1.
         23    2    1    2    0    0  0.35527136788E-14  0.35527136788E-14  0.00000000000E+00  0.91188000000E+02  0.91188000000E+02 0.  0.
    9900012    2    3    3    0    0  0.25426189199E+02  0.20332748207E+02 -0.17200797680E+02  0.54367093063E+02  0.40000020257E+02 0.  0.
         12    1    3    3    0    0 -0.25426189199E+02 -0.20332748207E+02  0.17200797680E+02  0.36820906937E+02  0.00000000000E+00 0. -1.
         11    1    4    4    0    0  0.19256383673E+02  0.59141502532E+01 -0.12714009654E+02  0.23820821294E+02  0.51100000000E-03 0. -1.
        -11    1    4    4    0    0  0.89307622303E+01 -0.20959664875E+01 -0.93619967980E+01  0.13107195499E+02  0.51100000000E-03 0.  1.
         12    1    4    4    0    0 -0.27609567046E+01  0.16514564441E+02  0.48752087720E+01  0.17439076271E+02  0.00000000000E+00 0. -1.
</event>
<event>
 8    1  0.2500956E-006  0.9118800E+02  0.7816164E-02  0.1184000E+00
        -11   -1    0    0    0    0  0.00000000000E+00  0.00000000000E+00  0.45593999997E+02  0.45594000000E+02  0.51100000000E-03 0. -1.
         11   -1    0    0    0    0 -0.00000000000E+00 -0.00000000000E+00 -0.45593999997E+02  0.45594000000E+02  0.51100000000E-03 0.  1.
         23    2    1    2    0    0  0.00000000000E+00  0.00000000000E+00  0.00000000000E+00  0.91188000000E+02  0.91188000000E+02 0.  0.
    9900012    2    3    3    0    0 -0.28846873558E+02 -0.12228224130E+02 -0.19341822224E+02  0.54367113721E+02  0.40000067350E+02 0.  0.
         12    1    3    3    0    0  0.28846873558E+02  0.12228224130E+02  0.19341822224E+02  0.36820886279E+02  0.00000000000E+00 0. -1.
         11    1    4    4    0    0 -0.13954003811E+02 -0.51244392170E+01 -0.10018299930E+02  0.17925970919E+02  0.51100000000E-03 0. -1.
        -11    1    4    4    0    0 -0.18470076630E+02 -0.10811806617E+02 -0.16906120910E+02  0.27273720273E+02  0.51100000000E-03 0.  1.
         12    1    4    4    0    0  0.35772068844E+01  0.37080217036E+01  0.75825986159E+01  0.91674225286E+01  0.00000000000E+00 0. -1.
</event>
<event>
 8    1  0.2500956E-006  0.9118800E+02  0.7816164E-02  0.1184000E+00
        -11   -1    0    0    0    0  0.00000000000E+00  0.00000000000E+00  0.45593999997E+02  0.45594000000E+02  0.51100000000E-03 0. -1.
         11   -1    0    0    0    0 -0.00000000000E+00 -0.00000000000E+00 -0.45593999997E+02  0.45594000000E+02  0.51100000000E-03 0.  1.
         23    2    1    2    0    0  0.00000000000E+00  0.44408920985E-15  0.00000000000E+00  0.91188000000E+02  0.91188000000E+02 0.  0.
    9900012    2    3    3    0    0  0.34052120911E+02  0.31802199165E+01 -0.13642550396E+02  0.54367083138E+02  0.39999997630E+02 0.  0.
         12    1    3    3    0    0 -0.34052120911E+02 -0.31802199165E+01  0.13642550396E+02  0.36820916862E+02  0.00000000000E+00 0. -1.
         11    1    4    4    0    0  0.14066291894E+02 -0.12163312834E+02 -0.74706042873E+01  0.20040376130E+02  0.51100000000E-03 0.  1.
        -11    1    4    4    0    0  0.10934165902E+02 -0.27112223307E+01  0.36854714513E+01  0.11852822895E+02  0.51100000000E-03 0. -1.
         12    1    4    4    0    0  0.90516631149E+01  0.18054755081E+02 -0.98574175599E+01  0.22473884113E+02  0.00000000000E+00 0. -1.
</event>
<event>
 8    1  0.2500956E-006  0.9118800E+02  0.7816164E-02  0.1184000E+00
        -11   -1    0    0    0    0  0.00000000000E+00  0.00000000000E+00  0.45593999997E+02  0.45594000000E+02  0.51100000000E-03 0. -1.
         11   -1    0    0    0    0 -0.00000000000E+00 -0.00000000000E+00 -0.45593999997E+02  0.45594000000E+02  0.51100000000E-03 0.  1.
         23    2    1    2    0    0  0.17763568394E-14  0.00000000000E+00  0.22204460493E-15  0.91188000000E+02  0.91188000000E+02 0.  0.
    9900012    2    3    3    0    0 -0.11514374380E+02  0.34946563450E+02 -0.13915596909E+01  0.54367088106E+02  0.40000008955E+02 0.  0.
         12    1    3    3    0    0  0.11514374380E+02 -0.34946563450E+02  0.13915596909E+01  0.36820911894E+02  0.00000000000E+00 0. -1.
         11    1    4    4    0    0  0.49864459524E+01 -0.67445198286E+00  0.53621034531E+01  0.73533449815E+01  0.51100000000E-03 0. -1.
        -11    1    4    4    0    0 -0.29281749548E+01  0.31077549537E+02 -0.65447904137E-01  0.31215261932E+02  0.51100000000E-03 0.  1.
        -12    1    4    4    0    0 -0.13572645378E+02  0.45434658962E+01 -0.66882152399E+01  0.15798481193E+02  0.00000000000E+00 0.  1.
</event>
<event>
 8    1  0.2500956E-006  0.9118800E+02  0.7816164E-02  0.1184000E+00
        -11   -1    0    0    0    0  0.00000000000E+00  0.00000000000E+00  0.45593999997E+02  0.45594000000E+02  0.51100000000E-03 0.  1.
         11   -1    0    0    0    0 -0.00000000000E+00 -0.00000000000E+00 -0.45593999997E+02  0.45594000000E+02  0.51100000000E-03 0. -1.
         23    2    1    2    0    0  0.00000000000E+00 -0.17763568394E-14  0.00000000000E+00  0.91188000000E+02  0.91188000000E+02 0.  0.
    9900012    2    3    3    0    0  0.10783416182E+02  0.14540821309E+02 -0.32063400390E+02  0.54367092984E+02  0.40000020076E+02 0.  0.
        -12    1    3    3    0    0 -0.10783416182E+02 -0.14540821309E+02  0.32063400390E+02  0.36820907016E+02  0.00000000000E+00 0.  1.
         11    1    4    4    0    0  0.13989454394E+02  0.22998091318E+02 -0.19317387098E+02  0.33132740349E+02  0.51100000000E-03 0. -1.
        -11    1    4    4    0    0 -0.50521160998E+01  0.25580175926E+01 -0.56647989220E+01  0.80098238543E+01  0.51100000000E-03 0.  1.
         12    1    4    4    0    0  0.18460778876E+01 -0.11015287601E+02 -0.70812143702E+01  0.13224528780E+02  0.00000000000E+00 0. -1.
</event>
<event>
 8    1  0.2500956E-006  0.9118800E+02  0.7816164E-02  0.1184000E+00
        -11   -1    0    0    0    0  0.00000000000E+00  0.00000000000E+00  0.45593999997E+02  0.45594000000E+02  0.51100000000E-03 0. -1.
         11   -1    0    0    0    0 -0.00000000000E+00 -0.00000000000E+00 -0.45593999997E+02  0.45594000000E+02  0.51100000000E-03 0.  1.
         23    2    1    2    0    0  0.00000000000E+00  0.17763568394E-14  0.00000000000E+00  0.91188000000E+02  0.91188000000E+02 0.  0.
    9900012    2    3    3    0    0 -0.18966155655E+02  0.20077387508E+01  0.31496569186E+02  0.54367082769E+02  0.39999996789E+02 0.  0.
        -12    1    3    3    0    0  0.18966155655E+02 -0.20077387508E+01 -0.31496569186E+02  0.36820917231E+02  0.00000000000E+00 0.  1.
         11    1    4    4    0    0 -0.68096829103E+01  0.29478740660E+01  0.10552837486E+02  0.12900547357E+02  0.51100000000E-03 0. -1.
        -11    1    4    4    0    0 -0.99171801662E+00 -0.16501285964E+02  0.11294671249E+02  0.20021127390E+02  0.51100000000E-03 0.  1.
        -12    1    4    4    0    0 -0.11164754728E+02  0.15561150648E+02  0.96490604515E+01  0.21445408022E+02  0.00000000000E+00 0.  1.
</event>
<event>
 8    1  0.2500956E-006  0.9118800E+02  0.7816164E-02  0.1184000E+00
        -11   -1    0    0    0    0  0.00000000000E+00  0.00000000000E+00  0.45593999997E+02  0.45594000000E+02  0.51100000000E-03 0. -1.
         11   -1    0    0    0    0 -0.00000000000E+00 -0.00000000000E+00 -0.45593999997E+02  0.45594000000E+02  0.51100000000E-03 0.  1.
         23    2    1    2    0    0 -0.71054273576E-14  0.00000000000E+00 -0.88817841970E-15  0.91188000000E+02  0.91188000000E+02 0.  0.
    9900012    2    3    3    0    0 -0.34643548347E+02  0.11358931865E+02  0.51556187916E+01  0.54367066005E+02  0.39999958571E+02 0.  0.
        -12    1    3    3    0    0  0.34643548347E+02 -0.11358931865E+02 -0.51556187916E+01  0.36820933995E+02  0.00000000000E+00 0.  1.
         11    1    4    4    0    0 -0.10177802499E+02  0.51234375320E+01  0.15451594477E+02  0.19198673079E+02  0.51100000000E-03 0. -1.
        -11    1    4    4    0    0 -0.15216349728E+01  0.10176293357E+01 -0.11464235392E+02  0.11609463202E+02  0.51100000000E-03 0.  1.
         12    1    4    4    0    0 -0.22944110875E+02  0.52178649973E+01  0.11682597061E+01  0.23558929724E+02  0.00000000000E+00 0. -1.
</event>
<event>
 8    1  0.2500956E-006  0.9118800E+02  0.7816164E-02  0.1184000E+00
        -11   -1    0    0    0    0  0.00000000000E+00  0.00000000000E+00  0.45593999997E+02  0.45594000000E+02  0.51100000000E-03 0.  1.
         11   -1    0    0    0    0 -0.00000000000E+00 -0.00000000000E+00 -0.45593999997E+02  0.45594000000E+02  0.51100000000E-03 0. -1.
         23    2    1    2    0    0 -0.35527136788E-14 -0.66613381478E-15 -0.71054273576E-14  0.91188000000E+02  0.91188000000E+02 0.  0.
    9900012    2    3    3    0    0  0.14153686416E+02 -0.14189751189E+01 -0.33962320100E+02  0.54367088602E+02  0.40000010087E+02 0.  0.
        -12    1    3    3    0    0 -0.14153686416E+02  0.14189751189E+01  0.33962320100E+02  0.36820911398E+02  0.00000000000E+00 0.  1.
         11    1    4    4    0    0  0.21898725502E+02 -0.79987921983E+01 -0.28315119559E+02  0.36678070440E+02  0.51100000000E-03 0. -1.
        -11    1    4    4    0    0 -0.86058068096E+01  0.72384381826E+01  0.68372921182E+00  0.11265983493E+02  0.51100000000E-03 0.  1.
        -12    1    4    4    0    0  0.86076772337E+00 -0.65862110325E+00 -0.63309297527E+01  0.64230346695E+01  0.00000000000E+00 0.  1.
</event>
<event>
 8    1  0.2500956E-006  0.9118800E+02  0.7816164E-02  0.1184000E+00
        -11   -1    0    0    0    0  0.00000000000E+00  0.00000000000E+00  0.45593999997E+02  0.45594000000E+02  0.51100000000E-03 0. -1.
         11   -1    0    0    0    0 -0.00000000000E+00 -0.00000000000E+00 -0.45593999997E+02  0.45594000000E+02  0.51100000000E-03 0.  1.
         23    2    1    2    0    0 -0.88817841970E-15  0.49960036108E-15  0.00000000000E+00  0.91188000000E+02  0.91188000000E+02 0.  0.
    9900012    2    3    3    0    0 -0.53674892781E+01 -0.17353626192E+00 -0.36427179172E+02  0.54367089658E+02  0.40000012493E+02 0.  0.
         12    1    3    3    0    0  0.53674892781E+01  0.17353626192E+00  0.36427179172E+02  0.36820910342E+02  0.00000000000E+00 0. -1.
         11    1    4    4    0    0 -0.85312390764E+01 -0.86456120822E+01 -0.63318086395E+01  0.13697461420E+02  0.51100000000E-03 0. -1.
        -11    1    4    4    0    0 -0.85432525282E+01 -0.37222713089E+01 -0.16608857935E+02  0.19044595812E+02  0.51100000000E-03 0.  1.
        -12    1    4    4    0    0  0.11707002326E+02  0.12194347129E+02 -0.13486512597E+02  0.21625032426E+02  0.00000000000E+00 0.  1.
</event>
<event>
 8    1  0.2500956E-006  0.9118800E+02  0.7816164E-02  0.1184000E+00
        -11   -1    0    0    0    0  0.00000000000E+00  0.00000000000E+00  0.45593999997E+02  0.45594000000E+02  0.51100000000E-03 0. -1.
         11   -1    0    0    0    0 -0.00000000000E+00 -0.00000000000E+00 -0.45593999997E+02  0.45594000000E+02  0.51100000000E-03 0.  1.
         23    2    1    2    0    0 -0.17763568394E-14  0.00000000000E+00  0.00000000000E+00  0.91188000000E+02  0.91188000000E+02 0.  0.
    9900012    2    3    3    0    0 -0.48105001942E+01  0.26313829087E+02 -0.25302593734E+02  0.54367085250E+02  0.40000002445E+02 0.  0.
         12    1    3    3    0    0  0.48105001942E+01 -0.26313829087E+02  0.25302593734E+02  0.36820914750E+02  0.00000000000E+00 0. -1.
         11    1    4    4    0    0 -0.10011434040E+02  0.68289023703E+00 -0.15375485178E+02  0.18360302158E+02  0.51100000000E-03 0. -1.
        -11    1    4    4    0    0  0.62839804725E+01  0.54671790003E+01 -0.13142376053E+02  0.15559579216E+02  0.51100000000E-03 0.  1.
         12    1    4    4    0    0 -0.10830466271E+01  0.20163759850E+02  0.32152674976E+01  0.20447203876E+02  0.00000000000E+00 0. -1.
</event>
<event>
 8    1  0.2500956E-006  0.9118800E+02  0.7816164E-02  0.1184000E+00
        -11   -1    0    0    0    0  0.00000000000E+00  0.00000000000E+00  0.45593999997E+02  0.45594000000E+02  0.51100000000E-03 0.  1.
         11   -1    0    0    0    0 -0.00000000000E+00 -0.00000000000E+00 -0.45593999997E+02  0.45594000000E+02  0.51100000000E-03 0. -1.
         23    2    1    2    0    0  0.00000000000E+00  0.00000000000E+00  0.00000000000E+00  0.91188000000E+02  0.91188000000E+02 0.  0.
    9900012    2    3    3    0    0  0.14459608626E+02  0.83129199535E+01 -0.32826760978E+02  0.54367066333E+02  0.39999959320E+02 0.  0.
        -12    1    3    3    0    0 -0.14459608626E+02 -0.83129199535E+01  0.32826760978E+02  0.36820933667E+02  0.00000000000E+00 0.  1.
         11    1    4    4    0    0  0.10319474371E+02  0.15617837889E+02 -0.93191200615E+01  0.20910629130E+02  0.51100000000E-03 0. -1.
        -11    1    4    4    0    0 -0.71597519415E-01  0.77989021207E+01 -0.10522243350E+02  0.13097541978E+02  0.51100000000E-03 0.  1.
         12    1    4    4    0    0  0.42117317748E+01 -0.15103820056E+02 -0.12985397566E+02  0.20358895225E+02  0.00000000000E+00 0. -1.
</event>
<event>
 8    1  0.2500956E-006  0.9118800E+02  0.7816164E-02  0.1184000E+00
        -11   -1    0    0    0    0  0.00000000000E+00  0.00000000000E+00  0.45593999997E+02  0.45594000000E+02  0.51100000000E-03 0.  1.
         11   -1    0    0    0    0 -0.00000000000E+00 -0.00000000000E+00 -0.45593999997E+02  0.45594000000E+02  0.51100000000E-03 0. -1.
         23    2    1    2    0    0  0.17763568394E-14  0.44408920985E-15  0.71054273576E-14  0.91188000000E+02  0.91188000000E+02 0.  0.
    9900012    2    3    3    0    0  0.13153444082E+02 -0.24692220026E+01  0.34302607956E+02  0.54367094782E+02  0.40000024174E+02 0.  0.
         12    1    3    3    0    0 -0.13153444082E+02  0.24692220026E+01 -0.34302607956E+02  0.36820905218E+02  0.00000000000E+00 0. -1.
         11    1    4    4    0    0  0.27457416323E+00 -0.40854389231E+01 -0.28354867406E+01  0.49805810386E+01  0.51100000000E-03 0. -1.
        -11    1    4    4    0    0  0.13857337339E+00  0.55728863148E+01  0.35512390421E+02  0.35947268855E+02  0.51100000000E-03 0.  1.
        -12    1    4    4    0    0  0.12740296546E+02 -0.39566693943E+01  0.16257042752E+01  0.13439244888E+02  0.00000000000E+00 0.  1.
</event>
<event>
 8    1  0.2500956E-006  0.9118800E+02  0.7816164E-02  0.1184000E+00
        -11   -1    0    0    0    0  0.00000000000E+00  0.00000000000E+00  0.45593999997E+02  0.45594000000E+02  0.51100000000E-03 0.  1.
         11   -1    0    0    0    0 -0.00000000000E+00 -0.00000000000E+00 -0.45593999997E+02  0.45594000000E+02  0.51100000000E-03 0. -1.
         23    2    1    2    0    0 -0.35527136788E-14  0.00000000000E+00  0.00000000000E+00  0.91188000000E+02  0.91188000000E+02 0.  0.
    9900012    2    3    3    0    0 -0.16677180876E+02 -0.28663222882E+02  0.16002209039E+02  0.54367090152E+02  0.40000013619E+02 0.  0.
         12    1    3    3    0    0  0.16677180876E+02  0.28663222882E+02 -0.16002209039E+02  0.36820909848E+02  0.00000000000E+00 0. -1.
         11    1    4    4    0    0  0.55693807024E+01 -0.17590432601E+02 -0.29275434806E+00  0.18453374376E+02  0.51100000000E-03 0. -1.
        -11    1    4    4    0    0 -0.20483528258E+02 -0.13409320987E+02  0.59946296892E+01  0.25205562970E+02  0.51100000000E-03 0.  1.
         12    1    4    4    0    0 -0.17630333196E+01  0.23365307067E+01  0.10300333697E+02  0.10708152806E+02  0.00000000000E+00 0. -1.
</event>
<event>
 8    1  0.2500956E-006  0.9118800E+02  0.7816164E-02  0.1184000E+00
        -11   -1    0    0    0    0  0.00000000000E+00  0.00000000000E+00  0.45593999997E+02  0.45594000000E+02  0.51100000000E-03 0.  1.
         11   -1    0    0    0    0 -0.00000000000E+00 -0.00000000000E+00 -0.45593999997E+02  0.45594000000E+02  0.51100000000E-03 0. -1.
         23    2    1    2    0    0  0.17763568394E-14  0.00000000000E+00  0.71054273576E-14  0.91188000000E+02  0.91188000000E+02 0.  0.
    9900012    2    3    3    0    0  0.10193275147E+02  0.13612931380E+01  0.35355673657E+02  0.54367086962E+02  0.40000006346E+02 0.  0.
         12    1    3    3    0    0 -0.10193275147E+02 -0.13612931380E+01 -0.35355673657E+02  0.36820913038E+02  0.00000000000E+00 0. -1.
         11    1    4    4    0    0  0.16731515984E+02  0.66926082497E+01  0.81308968487E+01  0.19769828429E+02  0.51100000000E-03 0.  1.
        -11    1    4    4    0    0 -0.70189311245E+01  0.37109011543E+00  0.27957872232E+02  0.28827863640E+02  0.51100000000E-03 0. -1.
         12    1    4    4    0    0  0.48069028734E+00 -0.57024052271E+01 -0.73309542367E+00  0.57693948926E+01  0.00000000000E+00 0. -1.
</event>
<event>
 8    1  0.2500956E-006  0.9118800E+02  0.7816164E-02  0.1184000E+00
        -11   -1    0    0    0    0  0.00000000000E+00  0.00000000000E+00  0.45593999997E+02  0.45594000000E+02  0.51100000000E-03 0. -1.
         11   -1    0    0    0    0 -0.00000000000E+00 -0.00000000000E+00 -0.45593999997E+02  0.45594000000E+02  0.51100000000E-03 0.  1.
         23    2    1    2    0    0  0.35527136788E-14  0.17763568394E-14  0.35527136788E-14  0.91188000000E+02  0.91188000000E+02 0.  0.
    9900012    2    3    3    0    0  0.25586711211E+02  0.87789874934E+01  0.24980538764E+02  0.54367112871E+02  0.40000065413E+02 0.  0.
        -12    1    3    3    0    0 -0.25586711211E+02 -0.87789874934E+01 -0.24980538764E+02  0.36820887129E+02  0.00000000000E+00 0.  1.
         11    1    4    4    0    0  0.18059767847E+02  0.17034378764E+02  0.18570581632E+02  0.31003093022E+02  0.51100000000E-03 0. -1.
        -11    1    4    4    0    0  0.12030371095E+02  0.75807458152E+00  0.54920874047E+01  0.13246415744E+02  0.51100000000E-03 0.  1.
        -12    1    4    4    0    0 -0.45034277307E+01 -0.90134658517E+01  0.91786972724E+00  0.10117604105E+02  0.00000000000E+00 0.  1.
</event>
<event>
 8    1  0.2500956E-006  0.9118800E+02  0.7816164E-02  0.1184000E+00
        -11   -1    0    0    0    0  0.00000000000E+00  0.00000000000E+00  0.45593999997E+02  0.45594000000E+02  0.51100000000E-03 0. -1.
         11   -1    0    0    0    0 -0.00000000000E+00 -0.00000000000E+00 -0.45593999997E+02  0.45594000000E+02  0.51100000000E-03 0.  1.
         23    2    1    2    0    0 -0.88817841970E-15 -0.88817841970E-15  0.00000000000E+00  0.91188000000E+02  0.91188000000E+02 0.  0.
    9900012    2    3    3    0    0  0.77120081748E+01  0.22731635091E+01 -0.35932408741E+02  0.54367077411E+02  0.39999984573E+02 0.  0.
         12    1    3    3    0    0 -0.77120081748E+01 -0.22731635091E+01  0.35932408741E+02  0.36820922589E+02  0.00000000000E+00 0. -1.
         11    1    4    4    0    0  0.77021521120E+01 -0.12481542040E+02 -0.23374544528E+02  0.27594951912E+02  0.51100000000E-03 0. -1.
        -11    1    4    4    0    0  0.75599481947E-01  0.31308487819E+01 -0.14632938937E+02  0.14964318613E+02  0.51100000000E-03 0.  1.
         12    1    4    4    0    0 -0.65743419134E-01  0.11623856767E+02  0.20750747243E+01  0.11807806886E+02  0.00000000000E+00 0. -1.
</event>
<event>
 8    1  0.2500956E-006  0.9118800E+02  0.7816164E-02  0.1184000E+00
        -11   -1    0    0    0    0  0.00000000000E+00  0.00000000000E+00  0.45593999997E+02  0.45594000000E+02  0.51100000000E-03 0.  1.
         11   -1    0    0    0    0 -0.00000000000E+00 -0.00000000000E+00 -0.45593999997E+02  0.45594000000E+02  0.51100000000E-03 0. -1.
         23    2    1    2    0    0  0.00000000000E+00  0.00000000000E+00  0.35527136788E-14  0.91188000000E+02  0.91188000000E+02 0.  0.
    9900012    2    3    3    0    0 -0.21656204233E+02 -0.20887271875E+02  0.21225221519E+02  0.54367091039E+02  0.40000015642E+02 0.  0.
         12    1    3    3    0    0  0.21656204233E+02  0.20887271875E+02 -0.21225221519E+02  0.36820908961E+02  0.00000000000E+00 0. -1.
         11    1    4    4    0    0 -0.19027308196E+02 -0.40806276547E+01 -0.30695686542E+01  0.19700564237E+02  0.51100000000E-03 0. -1.
        -11    1    4    4    0    0 -0.60852572126E+01 -0.13677030236E+02  0.65864232033E+01  0.16354585971E+02  0.51100000000E-03 0.  1.
        -12    1    4    4    0    0  0.34563611757E+01 -0.31296139841E+01  0.17708366970E+02  0.18311940831E+02  0.00000000000E+00 0.  1.
</event>
<event>
 8    1  0.2500956E-006  0.9118800E+02  0.7816164E-02  0.1184000E+00
        -11   -1    0    0    0    0  0.00000000000E+00  0.00000000000E+00  0.45593999997E+02  0.45594000000E+02  0.51100000000E-03 0.  1.
         11   -1    0    0    0    0 -0.00000000000E+00 -0.00000000000E+00 -0.45593999997E+02  0.45594000000E+02  0.51100000000E-03 0. -1.
         23    2    1    2    0    0  0.00000000000E+00  0.44408920985E-15  0.71054273576E-14  0.91188000000E+02  0.91188000000E+02 0.  0.
    9900012    2    3    3    0    0  0.19484771259E+02  0.32270595018E+01 -0.31075885798E+02  0.54367069781E+02  0.39999967180E+02 0.  0.
        -12    1    3    3    0    0 -0.19484771259E+02 -0.32270595018E+01  0.31075885798E+02  0.36820930219E+02  0.00000000000E+00 0.  1.
         11    1    4    4    0    0  0.11505639420E+02  0.13660943735E+02 -0.25967888825E+02  0.31517175833E+02  0.51100000000E-03 0. -1.
        -11    1    4    4    0    0  0.11211333560E+02 -0.19228850313E+01  0.16737562941E+01  0.11497519186E+02  0.51100000000E-03 0.  1.
        -12    1    4    4    0    0 -0.32322017209E+01 -0.85109992016E+01 -0.67817532677E+01  0.11352374763E+02  0.00000000000E+00 0.  1.
</event>
<event>
 8    1  0.2500956E-006  0.9118800E+02  0.7816164E-02  0.1184000E+00
        -11   -1    0    0    0    0  0.00000000000E+00  0.00000000000E+00  0.45593999997E+02  0.45594000000E+02  0.51100000000E-03 0. -1.
         11   -1    0    0    0    0 -0.00000000000E+00 -0.00000000000E+00 -0.45593999997E+02  0.45594000000E+02  0.51100000000E-03 0.  1.
         23    2    1    2    0    0  0.71054273576E-14  0.00000000000E+00 -0.12212453271E-14  0.91188000000E+02  0.91188000000E+02 0.  0.
    9900012    2    3    3    0    0  0.35887960794E+02  0.81798204199E+01  0.96156440740E+00  0.54367084773E+02  0.40000001357E+02 0.  0.
        -12    1    3    3    0    0 -0.35887960794E+02 -0.81798204199E+01 -0.96156440740E+00  0.36820915227E+02  0.00000000000E+00 0.  1.
         11    1    4    4    0    0  0.30900547619E+02  0.43805431064E+01  0.15800671800E+02  0.34981341179E+02  0.51100000000E-03 0. -1.
        -11    1    4    4    0    0  0.68853971257E+01 -0.13009951363E+01 -0.77391600472E+01  0.10440109215E+02  0.51100000000E-03 0.  1.
         12    1    4    4    0    0 -0.18979839510E+01  0.51002724498E+01 -0.70999473452E+01  0.89456343791E+01  0.00000000000E+00 0. -1.
</event>
<event>
 8    1  0.2500956E-006  0.9118800E+02  0.7816164E-02  0.1184000E+00
        -11   -1    0    0    0    0  0.00000000000E+00  0.00000000000E+00  0.45593999997E+02  0.45594000000E+02  0.51100000000E-03 0. -1.
         11   -1    0    0    0    0 -0.00000000000E+00 -0.00000000000E+00 -0.45593999997E+02  0.45594000000E+02  0.51100000000E-03 0.  1.
         23    2    1    2    0    0  0.17763568394E-14 -0.35527136788E-14 -0.35527136788E-14  0.91188000000E+02  0.91188000000E+02 0.  0.
    9900012    2    3    3    0    0  0.80553341753E+01 -0.29512180382E+02 -0.20491975286E+02  0.54367105786E+02  0.40000049261E+02 0.  0.
         12    1    3    3    0    0 -0.80553341753E+01  0.29512180382E+02  0.20491975286E+02  0.36820894214E+02  0.00000000000E+00 0. -1.
         11    1    4    4    0    0 -0.34952440916E+00 -0.10078673430E+02  0.19757123360E+01  0.10276442230E+02  0.51100000000E-03 0. -1.
        -11    1    4    4    0    0  0.29871099963E+01 -0.26514604647E+02 -0.22903402354E+02  0.35164085732E+02  0.51100000000E-03 0.  1.
         12    1    4    4    0    0  0.54177485881E+01  0.70810976944E+01  0.43571473254E+00  0.89265778241E+01  0.00000000000E+00 0. -1.
</event>
<event>
 8    1  0.2500956E-006  0.9118800E+02  0.7816164E-02  0.1184000E+00
        -11   -1    0    0    0    0  0.00000000000E+00  0.00000000000E+00  0.45593999997E+02  0.45594000000E+02  0.51100000000E-03 0.  1.
         11   -1    0    0    0    0 -0.00000000000E+00 -0.00000000000E+00 -0.45593999997E+02  0.45594000000E+02  0.51100000000E-03 0. -1.
         23    2    1    2    0    0  0.00000000000E+00 -0.35527136788E-14  0.00000000000E+00  0.91188000000E+02  0.91188000000E+02 0.  0.
    9900012    2    3    3    0    0 -0.12481808834E+02 -0.18855965521E+02 -0.29059185400E+02  0.54367092303E+02  0.40000018523E+02 0.  0.
        -12    1    3    3    0    0  0.12481808834E+02  0.18855965521E+02  0.29059185400E+02  0.36820907697E+02  0.00000000000E+00 0.  1.
         11    1    4    4    0    0 -0.24024769770E+02 -0.94524631302E+01 -0.28891655270E+02  0.38746178730E+02  0.51100000000E-03 0. -1.
        -11    1    4    4    0    0  0.81304429261E+01 -0.90619672454E+01  0.15990921108E+00  0.12175751465E+02  0.51100000000E-03 0.  1.
         12    1    4    4    0    0  0.34125180098E+01 -0.34153514582E+00 -0.32743934136E+00  0.34451621073E+01  0.00000000000E+00 0. -1.
</event>
<event>
 8    1  0.2500956E-006  0.9118800E+02  0.7816164E-02  0.1184000E+00
        -11   -1    0    0    0    0  0.00000000000E+00  0.00000000000E+00  0.45593999997E+02  0.45594000000E+02  0.51100000000E-03 0.  1.
         11   -1    0    0    0    0 -0.00000000000E+00 -0.00000000000E+00 -0.45593999997E+02  0.45594000000E+02  0.51100000000E-03 0. -1.
         23    2    1    2    0    0  0.00000000000E+00 -0.17763568394E-14  0.35527136788E-14  0.91188000000E+02  0.91188000000E+02 0.  0.
    9900012    2    3    3    0    0  0.19612138090E+02  0.12582773167E+02 -0.28509973229E+02  0.54367072329E+02  0.39999972989E+02 0.  0.
        -12    1    3    3    0    0 -0.19612138090E+02 -0.12582773167E+02  0.28509973229E+02  0.36820927671E+02  0.00000000000E+00 0.  1.
         11    1    4    4    0    0  0.15251045935E+02 -0.10106664806E+02 -0.13281203884E+02  0.22608172250E+02  0.51100000000E-03 0. -1.
        -11    1    4    4    0    0 -0.49003040412E+01  0.37298923884E+01 -0.83096554274E+00  0.62141436191E+01  0.51100000000E-03 0.  1.
        -12    1    4    4    0    0  0.92613961963E+01  0.18959545585E+02 -0.14397803802E+02  0.25544756460E+02  0.00000000000E+00 0.  1.
</event>
<event>
 8    1  0.2500956E-006  0.9118800E+02  0.7816164E-02  0.1184000E+00
        -11   -1    0    0    0    0  0.00000000000E+00  0.00000000000E+00  0.45593999997E+02  0.45594000000E+02  0.51100000000E-03 0. -1.
         11   -1    0    0    0    0 -0.00000000000E+00 -0.00000000000E+00 -0.45593999997E+02  0.45594000000E+02  0.51100000000E-03 0.  1.
         23    2    1    2    0    0  0.00000000000E+00  0.17763568394E-14 -0.35527136788E-14  0.91188000000E+02  0.91188000000E+02 0.  0.
    9900012    2    3    3    0    0 -0.11946053594E+02  0.13996768090E+02  0.31892982851E+02  0.54367081101E+02  0.39999992986E+02 0.  0.
        -12    1    3    3    0    0  0.11946053594E+02 -0.13996768090E+02 -0.31892982851E+02  0.36820918899E+02  0.00000000000E+00 0.  1.
         11    1    4    4    0    0 -0.15363203596E+02  0.22417493375E+02  0.27830369978E+02  0.38898605724E+02  0.51100000000E-03 0. -1.
        -11    1    4    4    0    0 -0.37564237192E+00  0.14764107164E+01 -0.25539251680E+01  0.29737904802E+01  0.51100000000E-03 0.  1.
         12    1    4    4    0    0  0.37927923735E+01 -0.98971360012E+01  0.66165380412E+01  0.12494684897E+02  0.00000000000E+00 0. -1.
</event>
<event>
 8    1  0.2500956E-006  0.9118800E+02  0.7816164E-02  0.1184000E+00
        -11   -1    0    0    0    0  0.00000000000E+00  0.00000000000E+00  0.45593999997E+02  0.45594000000E+02  0.51100000000E-03 0.  1.
         11   -1    0    0    0    0 -0.00000000000E+00 -0.00000000000E+00 -0.45593999997E+02  0.45594000000E+02  0.51100000000E-03 0. -1.
         23    2    1    2    0    0  0.00000000000E+00  0.00000000000E+00  0.00000000000E+00  0.91188000000E+02  0.91188000000E+02 0.  0.
    9900012    2    3    3    0    0 -0.36204846535E+02  0.49106180250E+01  0.45691040447E+01  0.54367057674E+02  0.39999939579E+02 0.  0.
         12    1    3    3    0    0  0.36204846535E+02 -0.49106180250E+01 -0.45691040447E+01  0.36820942326E+02  0.00000000000E+00 0. -1.
         11    1    4    4    0    0  0.50610699986E+01 -0.20069264070E+01 -0.11781253993E+01  0.55704724083E+01  0.51100000000E-03 0. -1.
        -11    1    4    4    0    0 -0.29658729413E+01  0.82820989610E+01  0.56812922755E+01  0.10472184475E+02  0.51100000000E-03 0.  1.
        -12    1    4    4    0    0 -0.38300043592E+02 -0.13645545289E+01  0.65937168443E-01  0.38324400790E+02  0.00000000000E+00 0.  1.
</event>
<event>
 8    1  0.2500956E-006  0.9118800E+02  0.7816164E-02  0.1184000E+00
        -11   -1    0    0    0    0  0.00000000000E+00  0.00000000000E+00  0.45593999997E+02  0.45594000000E+02  0.51100000000E-03 0. -1.
         11   -1    0    0    0    0 -0.00000000000E+00 -0.00000000000E+00 -0.45593999997E+02  0.45594000000E+02  0.51100000000E-03 0.  1.
         23    2    1    2    0    0  0.00000000000E+00  0.00000000000E+00  0.00000000000E+00  0.91188000000E+02  0.91188000000E+02 0.  0.
    9900012    2    3    3    0    0  0.29913972432E+02 -0.21327783368E+02  0.24623092789E+01  0.54367040520E+02  0.39999900474E+02 0.  0.
        -12    1    3    3    0    0 -0.29913972432E+02  0.21327783368E+02 -0.24623092789E+01  0.36820959480E+02  0.00000000000E+00 0.  1.
         11    1    4    4    0    0  0.33204386381E+02 -0.63695003191E+01  0.26663756913E+01  0.33914766236E+02  0.51100000000E-03 0. -1.
        -11    1    4    4    0    0 -0.84671786673E+01 -0.93354032256E+01  0.12744690636E+01  0.12667562497E+02  0.51100000000E-03 0.  1.
         12    1    4    4    0    0  0.51767647186E+01 -0.56228798231E+01 -0.14785354760E+01  0.77847117872E+01  0.00000000000E+00 0. -1.
</event>
<event>
 8    1  0.2500956E-006  0.9118800E+02  0.7816164E-02  0.1184000E+00
        -11   -1    0    0    0    0  0.00000000000E+00  0.00000000000E+00  0.45593999997E+02  0.45594000000E+02  0.51100000000E-03 0.  1.
         11   -1    0    0    0    0 -0.00000000000E+00 -0.00000000000E+00 -0.45593999997E+02  0.45594000000E+02  0.51100000000E-03 0. -1.
         23    2    1    2    0    0  0.17763568394E-14  0.44408920985E-15  0.00000000000E+00  0.91188000000E+02  0.91188000000E+02 0.  0.
    9900012    2    3    3    0    0 -0.10398776184E+02  0.30242140738E+01 -0.35192319695E+02  0.54367084987E+02  0.40000001846E+02 0.  0.
        -12    1    3    3    0    0  0.10398776184E+02 -0.30242140738E+01  0.35192319695E+02  0.36820915013E+02  0.00000000000E+00 0.  1.
         11    1    4    4    0    0 -0.25113790245E+01  0.90971486496E+01 -0.28981884276E+01  0.98724178690E+01  0.51100000000E-03 0. -1.
        -11    1    4    4    0    0 -0.96130772155E+01 -0.15995784259E+02 -0.13043929021E+02  0.22768848284E+02  0.51100000000E-03 0.  1.
        -12    1    4    4    0    0  0.17256800563E+01  0.99228496836E+01 -0.19250202246E+02  0.21725818834E+02  0.00000000000E+00 0.  1.
</event>
<event>
 8    1  0.2500956E-006  0.9118800E+02  0.7816164E-02  0.1184000E+00
        -11   -1    0    0    0    0  0.00000000000E+00  0.00000000000E+00  0.45593999997E+02  0.45594000000E+02  0.51100000000E-03 0.  1.
         11   -1    0    0    0    0 -0.00000000000E+00 -0.00000000000E+00 -0.45593999997E+02  0.45594000000E+02  0.51100000000E-03 0. -1.
         23    2    1    2    0    0  0.35527136788E-14 -0.35527136788E-14 -0.17763568394E-14  0.91188000000E+02  0.91188000000E+02 0.  0.
    9900012    2    3    3    0    0 -0.28536956474E+02  0.17389765483E+02  0.15460217626E+02  0.54367079895E+02  0.39999990236E+02 0.  0.
         12    1    3    3    0    0  0.28536956474E+02 -0.17389765483E+02 -0.15460217626E+02  0.36820920105E+02  0.00000000000E+00 0. -1.
         11    1    4    4    0    0 -0.22744771320E+02  0.90072060908E+01 -0.35878876758E+01  0.24725034322E+02  0.51100000000E-03 0. -1.
        -11    1    4    4    0    0 -0.76663117794E+01  0.98124204067E+01  0.22350178529E+02  0.25584886380E+02  0.51100000000E-03 0.  1.
        -12    1    4    4    0    0  0.18741266258E+01 -0.14298610149E+01 -0.33020732263E+01  0.40571591937E+01  0.00000000000E+00 0.  1.
</event>
<event>
 8    1  0.2500956E-006  0.9118800E+02  0.7816164E-02  0.1184000E+00
        -11   -1    0    0    0    0  0.00000000000E+00  0.00000000000E+00  0.45593999997E+02  0.45594000000E+02  0.51100000000E-03 0.  1.
         11   -1    0    0    0    0 -0.00000000000E+00 -0.00000000000E+00 -0.45593999997E+02  0.45594000000E+02  0.51100000000E-03 0. -1.
         23    2    1    2    0    0 -0.44408920985E-15 -0.44408920985E-15 -0.71054273576E-14  0.91188000000E+02  0.91188000000E+02 0.  0.
    9900012    2    3    3    0    0 -0.36837068860E+01  0.31939111746E+01  0.36496705012E+02  0.54367078749E+02  0.39999987625E+02 0.  0.
         12    1    3    3    0    0  0.36837068860E+01 -0.31939111746E+01 -0.36496705012E+02  0.36820921251E+02  0.00000000000E+00 0. -1.
         11    1    4    4    0    0 -0.13737384894E+02  0.10767014792E+01  0.62931805271E+01  0.15148569280E+02  0.51100000000E-03 0. -1.
        -11    1    4    4    0    0 -0.48153387652E+01  0.73662185997E+01  0.74227779226E+01  0.11512875237E+02  0.51100000000E-03 0.  1.
        -12    1    4    4    0    0  0.14869016773E+02 -0.52490089044E+01  0.22780746562E+02  0.27705634232E+02  0.00000000000E+00 0.  1.
</event>
<event>
 8    1  0.2500956E-006  0.9118800E+02  0.7816164E-02  0.1184000E+00
        -11   -1    0    0    0    0  0.00000000000E+00  0.00000000000E+00  0.45593999997E+02  0.45594000000E+02  0.51100000000E-03 0.  1.
         11   -1    0    0    0    0 -0.00000000000E+00 -0.00000000000E+00 -0.45593999997E+02  0.45594000000E+02  0.51100000000E-03 0. -1.
         23    2    1    2    0    0  0.00000000000E+00  0.35527136788E-14  0.00000000000E+00  0.91188000000E+02  0.91188000000E+02 0.  0.
    9900012    2    3    3    0    0 -0.22849413477E+02 -0.28747658333E+02  0.26936454202E+01  0.54367091789E+02  0.40000017350E+02 0.  0.
         12    1    3    3    0    0  0.22849413477E+02  0.28747658333E+02 -0.26936454202E+01  0.36820908211E+02  0.00000000000E+00 0. -1.
         11    1    4    4    0    0 -0.15729938291E+02  0.58347898673E+01 -0.49778727330E+01  0.17500141389E+02  0.51100000000E-03 0. -1.
        -11    1    4    4    0    0 -0.71045724438E+01 -0.26187514463E+02  0.31072914345E+01  0.27311465059E+02  0.51100000000E-03 0.  1.
         12    1    4    4    0    0 -0.14902742050E-01 -0.83949337377E+01  0.45642267187E+01  0.95554853404E+01  0.00000000000E+00 0. -1.
</event>
<event>
 8    1  0.2500956E-006  0.9118800E+02  0.7816164E-02  0.1184000E+00
        -11   -1    0    0    0    0  0.00000000000E+00  0.00000000000E+00  0.45593999997E+02  0.45594000000E+02  0.51100000000E-03 0.  1.
         11   -1    0    0    0    0 -0.00000000000E+00 -0.00000000000E+00 -0.45593999997E+02  0.45594000000E+02  0.51100000000E-03 0. -1.
         23    2    1    2    0    0  0.00000000000E+00 -0.35527136788E-14  0.00000000000E+00  0.91188000000E+02  0.91188000000E+02 0.  0.
    9900012    2    3    3    0    0 -0.23509727063E+02  0.23946923759E+02  0.15153152420E+02  0.54367075889E+02  0.39999981105E+02 0.  0.
         12    1    3    3    0    0  0.23509727063E+02 -0.23946923759E+02 -0.15153152420E+02  0.36820924111E+02  0.00000000000E+00 0. -1.
         11    1    4    4    0    0 -0.26631817519E+02  0.16888247231E+02  0.13138469064E+02  0.34162639952E+02  0.51100000000E-03 0. -1.
        -11    1    4    4    0    0 -0.32387532697E+01  0.18439671971E+01  0.87903878537E+01  0.95478089971E+01  0.51100000000E-03 0.  1.
        -12    1    4    4    0    0  0.63608437253E+01  0.52147093310E+01 -0.67757044975E+01  0.10656626940E+02  0.00000000000E+00 0.  1.
</event>
<event>
 8    1  0.2500956E-006  0.9118800E+02  0.7816164E-02  0.1184000E+00
        -11   -1    0    0    0    0  0.00000000000E+00  0.00000000000E+00  0.45593999997E+02  0.45594000000E+02  0.51100000000E-03 0. -1.
         11   -1    0    0    0    0 -0.00000000000E+00 -0.00000000000E+00 -0.45593999997E+02  0.45594000000E+02  0.51100000000E-03 0.  1.
         23    2    1    2    0    0  0.00000000000E+00  0.00000000000E+00  0.35527136788E-14  0.91188000000E+02  0.91188000000E+02 0.  0.
    9900012    2    3    3    0    0  0.10876025685E+02 -0.25633075786E+02 -0.24092234787E+02  0.54367105307E+02  0.40000048167E+02 0.  0.
         12    1    3    3    0    0 -0.10876025685E+02  0.25633075786E+02  0.24092234787E+02  0.36820894693E+02  0.00000000000E+00 0. -1.
         11    1    4    4    0    0 -0.34991502708E+01 -0.18103873188E+02 -0.10363090557E+01  0.18468032211E+02  0.51100000000E-03 0. -1.
        -11    1    4    4    0    0  0.86965555683E+01 -0.15219562572E+02 -0.11796423763E+02  0.21128671929E+02  0.51100000000E-03 0.  1.
        -12    1    4    4    0    0  0.56786203880E+01  0.76903599737E+01 -0.11259501969E+02  0.14770401167E+02  0.00000000000E+00 0.  1.
</event>
<event>
 8    1  0.2500956E-006  0.9118800E+02  0.7816164E-02  0.1184000E+00
        -11   -1    0    0    0    0  0.00000000000E+00  0.00000000000E+00  0.45593999997E+02  0.45594000000E+02  0.51100000000E-03 0. -1.
         11   -1    0    0    0    0 -0.00000000000E+00 -0.00000000000E+00 -0.45593999997E+02  0.45594000000E+02  0.51100000000E-03 0.  1.
         23    2    1    2    0    0  0.44408920985E-15  0.17763568394E-14  0.00000000000E+00  0.91188000000E+02  0.91188000000E+02 0.  0.
    9900012    2    3    3    0    0  0.19576993154E+01 -0.80708496772E+01  0.35872115284E+02  0.54367083987E+02  0.39999999565E+02 0.  0.
        -12    1    3    3    0    0 -0.19576993154E+01  0.80708496772E+01 -0.35872115284E+02  0.36820916013E+02  0.00000000000E+00 0.  1.
         11    1    4    4    0    0  0.11291642426E+02 -0.20858829908E+01  0.22513578590E+02  0.25272778196E+02  0.51100000000E-03 0. -1.
        -11    1    4    4    0    0  0.52194856994E+01  0.47940230651E+01  0.68315918105E+01  0.98435936040E+01  0.51100000000E-03 0.  1.
         12    1    4    4    0    0 -0.14553428810E+02 -0.10778989751E+02  0.65269448831E+01  0.19250712187E+02  0.00000000000E+00 0. -1.
</event>
<event>
 8    1  0.2500956E-006  0.9118800E+02  0.7816164E-02  0.1184000E+00
        -11   -1    0    0    0    0  0.00000000000E+00  0.00000000000E+00  0.45593999997E+02  0.45594000000E+02  0.51100000000E-03 0. -1.
         11   -1    0    0    0    0 -0.00000000000E+00 -0.00000000000E+00 -0.45593999997E+02  0.45594000000E+02  0.51100000000E-03 0.  1.
         23    2    1    2    0    0  0.35527136788E-14  0.00000000000E+00  0.00000000000E+00  0.91188000000E+02  0.91188000000E+02 0.  0.
    9900012    2    3    3    0    0  0.18333300361E+02  0.27390660587E+02 -0.16414060406E+02  0.54367087891E+02  0.40000008465E+02 0.  0.
        -12    1    3    3    0    0 -0.18333300361E+02 -0.27390660587E+02  0.16414060406E+02  0.36820912109E+02  0.00000000000E+00 0.  1.
         11    1    4    4    0    0  0.77208085744E-01  0.11187248027E+02  0.51462017006E+01  0.12314376627E+02  0.51100000000E-03 0. -1.
        -11    1    4    4    0    0  0.19855337920E+01  0.19319111183E+02 -0.13323899630E+02  0.23551999977E+02  0.51100000000E-03 0.  1.
        -12    1    4    4    0    0  0.16270558483E+02 -0.31156986220E+01 -0.82363624762E+01  0.18500711287E+02  0.00000000000E+00 0.  1.
</event>
<event>
 8    1  0.2500956E-006  0.9118800E+02  0.7816164E-02  0.1184000E+00
        -11   -1    0    0    0    0  0.00000000000E+00  0.00000000000E+00  0.45593999997E+02  0.45594000000E+02  0.51100000000E-03 0. -1.
         11   -1    0    0    0    0 -0.00000000000E+00 -0.00000000000E+00 -0.45593999997E+02  0.45594000000E+02  0.51100000000E-03 0.  1.
         23    2    1    2    0    0 -0.17763568394E-14  0.00000000000E+00  0.71054273576E-14  0.91188000000E+02  0.91188000000E+02 0.  0.
    9900012    2    3    3    0    0  0.15747203202E+02 -0.11483904106E+01 -0.33263797476E+02  0.54367171223E+02  0.40000198438E+02 0.  0.
         12    1    3    3    0    0 -0.15747203202E+02  0.11483904106E+01  0.33263797476E+02  0.36820828777E+02  0.00000000000E+00 0. -1.
         11    1    4    4    0    0 -0.90262145059E+01 -0.37531455885E+01 -0.10203754039E+02  0.14130649202E+02  0.51100000000E-03 0. -1.
        -11    1    4    4    0    0  0.99767008477E+01 -0.86104087246E+01 -0.15081491569E+02  0.20028107410E+02  0.51100000000E-03 0.  1.
        -12    1    4    4    0    0  0.14796716861E+02  0.11215163903E+02 -0.79785518689E+01  0.20208414612E+02  0.00000000000E+00 0.  1.
</event>
<event>
 8    1  0.2500956E-006  0.9118800E+02  0.7816164E-02  0.1184000E+00
        -11   -1    0    0    0    0  0.00000000000E+00  0.00000000000E+00  0.45593999997E+02  0.45594000000E+02  0.51100000000E-03 0. -1.
         11   -1    0    0    0    0 -0.00000000000E+00 -0.00000000000E+00 -0.45593999997E+02  0.45594000000E+02  0.51100000000E-03 0.  1.
         23    2    1    2    0    0 -0.17763568394E-14  0.00000000000E+00  0.00000000000E+00  0.91188000000E+02  0.91188000000E+02 0.  0.
    9900012    2    3    3    0    0  0.11089205164E+02  0.18048435850E+02  0.30117512554E+02  0.54367067499E+02  0.39999961978E+02 0.  0.
        -12    1    3    3    0    0 -0.11089205164E+02 -0.18048435850E+02 -0.30117512554E+02  0.36820932501E+02  0.00000000000E+00 0.  1.
         11    1    4    4    0    0  0.19130470973E+02  0.85320094435E+01  0.27484651821E+02  0.34556854469E+02  0.51100000000E-03 0. -1.
        -11    1    4    4    0    0 -0.33674800565E+01  0.22730945957E+01 -0.62356682328E+01  0.74424753639E+01  0.51100000000E-03 0.  1.
        -12    1    4    4    0    0 -0.46737857525E+01  0.72433318107E+01  0.88685289651E+01  0.12367737666E+02  0.00000000000E+00 0.  1.
</event>
<event>
 8    1  0.2500956E-006  0.9118800E+02  0.7816164E-02  0.1184000E+00
        -11   -1    0    0    0    0  0.00000000000E+00  0.00000000000E+00  0.45593999997E+02  0.45594000000E+02  0.51100000000E-03 0.  1.
         11   -1    0    0    0    0 -0.00000000000E+00 -0.00000000000E+00 -0.45593999997E+02  0.45594000000E+02  0.51100000000E-03 0. -1.
         23    2    1    2    0    0 -0.35527136788E-14 -0.66613381478E-15  0.00000000000E+00  0.91188000000E+02  0.91188000000E+02 0.  0.
    9900012    2    3    3    0    0 -0.31145466426E+02  0.14421448544E+01  0.19587271028E+02  0.54367067815E+02  0.39999962697E+02 0.  0.
         12    1    3    3    0    0  0.31145466426E+02 -0.14421448544E+01 -0.19587271028E+02  0.36820932185E+02  0.00000000000E+00 0. -1.
         11    1    4    4    0    0  0.64852428297E+00  0.72611276259E+01 -0.37017054108E+01  0.81760125583E+01  0.51100000000E-03 0. -1.
        -11    1    4    4    0    0 -0.34898793718E+02 -0.55137380592E+01  0.24334230284E+02  0.42900837686E+02  0.51100000000E-03 0.  1.
        -12    1    4    4    0    0  0.31048030090E+01 -0.30524471230E+00 -0.10452538460E+01  0.32902175706E+01  0.00000000000E+00 0.  1.
</event>
<event>
 8    1  0.2500956E-006  0.9118800E+02  0.7816164E-02  0.1184000E+00
        -11   -1    0    0    0    0  0.00000000000E+00  0.00000000000E+00  0.45593999997E+02  0.45594000000E+02  0.51100000000E-03 0. -1.
         11   -1    0    0    0    0 -0.00000000000E+00 -0.00000000000E+00 -0.45593999997E+02  0.45594000000E+02  0.51100000000E-03 0.  1.
         23    2    1    2    0    0  0.00000000000E+00  0.00000000000E+00  0.00000000000E+00  0.91188000000E+02  0.91188000000E+02 0.  0.
    9900012    2    3    3    0    0  0.34844986492E+02  0.40322508661E+01 -0.11195884519E+02  0.54367082564E+02  0.39999996321E+02 0.  0.
         12    1    3    3    0    0 -0.34844986492E+02 -0.40322508661E+01  0.11195884519E+02  0.36820917436E+02  0.00000000000E+00 0. -1.
         11    1    4    4    0    0 -0.93177793260E+00  0.34342428204E+01 -0.36142603961E+01  0.50719929354E+01  0.51100000000E-03 0.  1.
        -11    1    4    4    0    0  0.31698675717E+02  0.97814253913E+01 -0.15390068938E+02  0.36569612345E+02  0.51100000000E-03 0. -1.
         12    1    4    4    0    0  0.40780887074E+01 -0.91834173457E+01  0.78084448156E+01  0.12725477283E+02  0.00000000000E+00 0. -1.
</event>
<event>
 8    1  0.2500956E-006  0.9118800E+02  0.7816164E-02  0.1184000E+00
        -11   -1    0    0    0    0  0.00000000000E+00  0.00000000000E+00  0.45593999997E+02  0.45594000000E+02  0.51100000000E-03 0.  1.
         11   -1    0    0    0    0 -0.00000000000E+00 -0.00000000000E+00 -0.45593999997E+02  0.45594000000E+02  0.51100000000E-03 0. -1.
         23    2    1    2    0    0  0.00000000000E+00  0.00000000000E+00  0.00000000000E+00  0.91188000000E+02  0.91188000000E+02 0.  0.
    9900012    2    3    3    0    0 -0.33729487328E+02  0.95865233778E+01 -0.11234233447E+02  0.54366976834E+02  0.39999755287E+02 0.  0.
        -12    1    3    3    0    0  0.33729487328E+02 -0.95865233778E+01  0.11234233447E+02  0.36821023166E+02  0.00000000000E+00 0.  1.
         11    1    4    4    0    0 -0.86458199189E+01  0.13545540810E+02 -0.56181314644E+01  0.17023374498E+02  0.51100000000E-03 0.  1.
        -11    1    4    4    0    0 -0.26199031239E+02  0.57537706058E+01 -0.62654754304E+01  0.27545440579E+02  0.51100000000E-03 0. -1.
        -12    1    4    4    0    0  0.11153638299E+01 -0.97127880376E+01  0.64937344802E+00  0.97981617568E+01  0.00000000000E+00 0.  1.
</event>
<event>
 8    1  0.2500956E-006  0.9118800E+02  0.7816164E-02  0.1184000E+00
        -11   -1    0    0    0    0  0.00000000000E+00  0.00000000000E+00  0.45593999997E+02  0.45594000000E+02  0.51100000000E-03 0.  1.
         11   -1    0    0    0    0 -0.00000000000E+00 -0.00000000000E+00 -0.45593999997E+02  0.45594000000E+02  0.51100000000E-03 0. -1.
         23    2    1    2    0    0 -0.17763568394E-14  0.00000000000E+00  0.00000000000E+00  0.91188000000E+02  0.91188000000E+02 0.  0.
    9900012    2    3    3    0    0 -0.82958245546E+01 -0.16528545880E+02 -0.31839704651E+02  0.54367077602E+02  0.39999985010E+02 0.  0.
        -12    1    3    3    0    0  0.82958245546E+01  0.16528545880E+02  0.31839704651E+02  0.36820922398E+02  0.00000000000E+00 0.  1.
         11    1    4    4    0    0 -0.52079494555E+01  0.10489360414E+01 -0.27864533823E+02  0.28366445844E+02  0.51100000000E-03 0. -1.
        -11    1    4    4    0    0 -0.81339757877E+01 -0.75444166577E+01  0.44579574776E+01  0.11956302520E+02  0.51100000000E-03 0.  1.
         12    1    4    4    0    0  0.50461006886E+01 -0.10033065264E+02 -0.84331283052E+01  0.14044329238E+02  0.00000000000E+00 0. -1.
</event>
<event>
 8    1  0.2500956E-006  0.9118800E+02  0.7816164E-02  0.1184000E+00
        -11   -1    0    0    0    0  0.00000000000E+00  0.00000000000E+00  0.45593999997E+02  0.45594000000E+02  0.51100000000E-03 0. -1.
         11   -1    0    0    0    0 -0.00000000000E+00 -0.00000000000E+00 -0.45593999997E+02  0.45594000000E+02  0.51100000000E-03 0.  1.
         23    2    1    2    0    0  0.00000000000E+00  0.00000000000E+00  0.00000000000E+00  0.91188000000E+02  0.91188000000E+02 0.  0.
    9900012    2    3    3    0    0  0.11668942696E+02 -0.97095949332E+01  0.33546072307E+02  0.54367089845E+02  0.40000012919E+02 0.  0.
        -12    1    3    3    0    0 -0.11668942696E+02  0.97095949332E+01 -0.33546072307E+02  0.36820910155E+02  0.00000000000E+00 0.  1.
         11    1    4    4    0    0  0.52182373268E+01 -0.92833586604E+01  0.12501886129E+02  0.16422786178E+02  0.51100000000E-03 0. -1.
        -11    1    4    4    0    0 -0.69587823749E+01  0.36962240440E+01 -0.42999937090E+01  0.89764508846E+01  0.51100000000E-03 0.  1.
        -12    1    4    4    0    0  0.13409487745E+02 -0.41224603168E+01  0.25344179887E+02  0.28967852782E+02  0.00000000000E+00 0.  1.
</event>
<event>
 8    1  0.2500956E-006  0.9118800E+02  0.7816164E-02  0.1184000E+00
        -11   -1    0    0    0    0  0.00000000000E+00  0.00000000000E+00  0.45593999997E+02  0.45594000000E+02  0.51100000000E-03 0. -1.
         11   -1    0    0    0    0 -0.00000000000E+00 -0.00000000000E+00 -0.45593999997E+02  0.45594000000E+02  0.51100000000E-03 0.  1.
         23    2    1    2    0    0  0.17763568394E-14  0.00000000000E+00  0.88817841970E-15  0.91188000000E+02  0.91188000000E+02 0.  0.
    9900012    2    3    3    0    0  0.89872656694E+01 -0.35650795963E+02  0.20076983981E+01  0.54367067776E+02  0.39999962608E+02 0.  0.
         12    1    3    3    0    0 -0.89872656694E+01  0.35650795963E+02 -0.20076983981E+01  0.36820932224E+02  0.00000000000E+00 0. -1.
         11    1    4    4    0    0  0.10232180614E+01  0.18091000074E+01 -0.36556042992E+01  0.42051469762E+01  0.51100000000E-03 0. -1.
        -11    1    4    4    0    0  0.14267900095E+01 -0.54718040053E+01 -0.11836923956E+02  0.13118274956E+02  0.51100000000E-03 0.  1.
         12    1    4    4    0    0  0.65372575985E+01 -0.31988091965E+02  0.17500226654E+02  0.37043645844E+02  0.00000000000E+00 0. -1.
</event>
<event>
 8    1  0.2500956E-006  0.9118800E+02  0.7816164E-02  0.1184000E+00
        -11   -1    0    0    0    0  0.00000000000E+00  0.00000000000E+00  0.45593999997E+02  0.45594000000E+02  0.51100000000E-03 0.  1.
         11   -1    0    0    0    0 -0.00000000000E+00 -0.00000000000E+00 -0.45593999997E+02  0.45594000000E+02  0.51100000000E-03 0. -1.
         23    2    1    2    0    0  0.00000000000E+00  0.00000000000E+00  0.88817841970E-15  0.91188000000E+02  0.91188000000E+02 0.  0.
    9900012    2    3    3    0    0 -0.69318982878E+01  0.35430408432E+02  0.72399703706E+01  0.54367051798E+02  0.39999926185E+02 0.  0.
         12    1    3    3    0    0  0.69318982878E+01 -0.35430408432E+02 -0.72399703706E+01  0.36820948202E+02  0.00000000000E+00 0. -1.
         11    1    4    4    0    0 -0.62452837961E+01  0.17421105781E+02 -0.93346550092E+01  0.20727621203E+02  0.51100000000E-03 0. -1.
        -11    1    4    4    0    0 -0.22674103403E+01  0.23472253027E+02  0.13128393429E+02  0.26989674435E+02  0.51100000000E-03 0.  1.
        -12    1    4    4    0    0  0.15807958486E+01 -0.54629503768E+01  0.34462319512E+01  0.66497561606E+01  0.00000000000E+00 0.  1.
</event>
<event>
 8    1  0.2500956E-006  0.9118800E+02  0.7816164E-02  0.1184000E+00
        -11   -1    0    0    0    0  0.00000000000E+00  0.00000000000E+00  0.45593999997E+02  0.45594000000E+02  0.51100000000E-03 0. -1.
         11   -1    0    0    0    0 -0.00000000000E+00 -0.00000000000E+00 -0.45593999997E+02  0.45594000000E+02  0.51100000000E-03 0.  1.
         23    2    1    2    0    0  0.17763568394E-14  0.00000000000E+00  0.00000000000E+00  0.91188000000E+02  0.91188000000E+02 0.  0.
    9900012    2    3    3    0    0 -0.93862570500E+01 -0.26257839121E+02 -0.24045867536E+02  0.54367086346E+02  0.40000004943E+02 0.  0.
         12    1    3    3    0    0  0.93862570500E+01  0.26257839121E+02  0.24045867536E+02  0.36820913654E+02  0.00000000000E+00 0. -1.
         11    1    4    4    0    0  0.81909720795E+01 -0.20503232711E+02 -0.75598371436E+01  0.23337217339E+02  0.51100000000E-03 0. -1.
        -11    1    4    4    0    0 -0.11679573470E+01  0.10838579503E+00 -0.13255997653E+02  0.13307792675E+02  0.51100000000E-03 0.  1.
         12    1    4    4    0    0 -0.16409271783E+02 -0.58629922055E+01 -0.32300327397E+01  0.17722076332E+02  0.00000000000E+00 0. -1.
</event>
<event>
 8    1  0.2500956E-006  0.9118800E+02  0.7816164E-02  0.1184000E+00
        -11   -1    0    0    0    0  0.00000000000E+00  0.00000000000E+00  0.45593999997E+02  0.45594000000E+02  0.51100000000E-03 0.  1.
         11   -1    0    0    0    0 -0.00000000000E+00 -0.00000000000E+00 -0.45593999997E+02  0.45594000000E+02  0.51100000000E-03 0. -1.
         23    2    1    2    0    0  0.35527136788E-14  0.00000000000E+00  0.00000000000E+00  0.91188000000E+02  0.91188000000E+02 0.  0.
    9900012    2    3    3    0    0  0.31714133272E+02 -0.13666288571E+02 -0.12775972768E+02  0.54367093267E+02  0.40000020720E+02 0.  0.
         12    1    3    3    0    0 -0.31714133272E+02  0.13666288571E+02  0.12775972768E+02  0.36820906733E+02  0.00000000000E+00 0. -1.
         11    1    4    4    0    0 -0.14650313769E+01  0.39370685199E+01 -0.63896643890E+01  0.76468710419E+01  0.51100000000E-03 0. -1.
        -11    1    4    4    0    0  0.23593525507E+02 -0.17187524478E+02  0.72213348331E+01  0.30070136691E+02  0.51100000000E-03 0.  1.
        -12    1    4    4    0    0  0.95856391412E+01 -0.41583261248E+00 -0.13607643212E+02  0.16650085534E+02  0.00000000000E+00 0.  1.
</event>
<event>
 8    1  0.2500956E-006  0.9118800E+02  0.7816164E-02  0.1184000E+00
        -11   -1    0    0    0    0  0.00000000000E+00  0.00000000000E+00  0.45593999997E+02  0.45594000000E+02  0.51100000000E-03 0.  1.
         11   -1    0    0    0    0 -0.00000000000E+00 -0.00000000000E+00 -0.45593999997E+02  0.45594000000E+02  0.51100000000E-03 0. -1.
         23    2    1    2    0    0  0.17763568394E-14  0.00000000000E+00  0.00000000000E+00  0.91188000000E+02  0.91188000000E+02 0.  0.
    9900012    2    3    3    0    0 -0.68009917500E+01 -0.34501115600E+02  0.10917981658E+02  0.54367044147E+02  0.39999908742E+02 0.  0.
         12    1    3    3    0    0  0.68009917500E+01  0.34501115600E+02 -0.10917981658E+02  0.36820955853E+02  0.00000000000E+00 0. -1.
         11    1    4    4    0    0 -0.84230115897E+01 -0.24082821371E+02  0.81941460133E+01  0.26796892331E+02  0.51100000000E-03 0. -1.
        -11    1    4    4    0    0  0.11399691369E+02  0.20119579946E+01  0.37731328364E+00  0.11582025032E+02  0.51100000000E-03 0.  1.
         12    1    4    4    0    0 -0.97776715289E+01 -0.12430252224E+02  0.23465223609E+01  0.15988126784E+02  0.00000000000E+00 0. -1.
</event>
<event>
 8    1  0.2500956E-006  0.9118800E+02  0.7816164E-02  0.1184000E+00
        -11   -1    0    0    0    0  0.00000000000E+00  0.00000000000E+00  0.45593999997E+02  0.45594000000E+02  0.51100000000E-03 0. -1.
         11   -1    0    0    0    0 -0.00000000000E+00 -0.00000000000E+00 -0.45593999997E+02  0.45594000000E+02  0.51100000000E-03 0.  1.
         23    2    1    2    0    0 -0.17763568394E-14  0.00000000000E+00  0.00000000000E+00  0.91188000000E+02  0.91188000000E+02 0.  0.
    9900012    2    3    3    0    0  0.15576199249E+02 -0.16613387171E+02  0.28933675385E+02  0.54367079485E+02  0.39999989301E+02 0.  0.
         12    1    3    3    0    0 -0.15576199249E+02  0.16613387171E+02 -0.28933675385E+02  0.36820920515E+02  0.00000000000E+00 0. -1.
         11    1    4    4    0    0 -0.91502414294E+01 -0.13955486271E+02  0.59304926616E+01  0.17710258574E+02  0.51100000000E-03 0. -1.
        -11    1    4    4    0    0  0.20997653843E+02 -0.40976763282E+01  0.11103019903E+02  0.24103308267E+02  0.51100000000E-03 0.  1.
        -12    1    4    4    0    0  0.37287868351E+01  0.14397754284E+01  0.11900162821E+02  0.12553512644E+02  0.00000000000E+00 0.  1.
</event>
<event>
 8    1  0.2500956E-006  0.9118800E+02  0.7816164E-02  0.1184000E+00
        -11   -1    0    0    0    0  0.00000000000E+00  0.00000000000E+00  0.45593999997E+02  0.45594000000E+02  0.51100000000E-03 0. -1.
         11   -1    0    0    0    0 -0.00000000000E+00 -0.00000000000E+00 -0.45593999997E+02  0.45594000000E+02  0.51100000000E-03 0.  1.
         23    2    1    2    0    0 -0.35527136788E-14  0.17763568394E-14  0.00000000000E+00  0.91188000000E+02  0.91188000000E+02 0.  0.
    9900012    2    3    3    0    0  0.20171716261E+02  0.13020853450E+02  0.27916650009E+02  0.54367080549E+02  0.39999991728E+02 0.  0.
        -12    1    3    3    0    0 -0.20171716261E+02 -0.13020853450E+02 -0.27916650009E+02  0.36820919451E+02  0.00000000000E+00 0.  1.
         11    1    4    4    0    0 -0.89802577440E+01  0.91875466655E+01  0.11730299879E+02  0.17397010617E+02  0.51100000000E-03 0. -1.
        -11    1    4    4    0    0  0.23464465219E+02  0.84850371406E+01  0.15959640109E+02  0.29619032664E+02  0.51100000000E-03 0.  1.
         12    1    4    4    0    0  0.56875087857E+01 -0.46517303556E+01  0.22671002135E+00  0.73510372684E+01  0.00000000000E+00 0. -1.
</event>
<event>
 8    1  0.2500956E-006  0.9118800E+02  0.7816164E-02  0.1184000E+00
        -11   -1    0    0    0    0  0.00000000000E+00  0.00000000000E+00  0.45593999997E+02  0.45594000000E+02  0.51100000000E-03 0. -1.
         11   -1    0    0    0    0 -0.00000000000E+00 -0.00000000000E+00 -0.45593999997E+02  0.45594000000E+02  0.51100000000E-03 0.  1.
         23    2    1    2    0    0 -0.35527136788E-14  0.35527136788E-14  0.17763568394E-14  0.91188000000E+02  0.91188000000E+02 0.  0.
    9900012    2    3    3    0    0  0.30478536609E+02 -0.16596092639E+02 -0.12304901644E+02  0.54367053662E+02  0.39999930434E+02 0.  0.
         12    1    3    3    0    0 -0.30478536609E+02  0.16596092639E+02  0.12304901644E+02  0.36820946338E+02  0.00000000000E+00 0. -1.
         11    1    4    4    0    0  0.99797906949E+01 -0.14933167774E+02  0.67016600826E+01  0.19170497391E+02  0.51100000000E-03 0. -1.
        -11    1    4    4    0    0 -0.19454043160E+00  0.58586270024E+01 -0.96115921132E+01  0.11258066421E+02  0.51100000000E-03 0.  1.
        -12    1    4    4    0    0  0.20693286346E+02 -0.75215518672E+01 -0.93949696134E+01  0.23938489851E+02  0.00000000000E+00 0.  1.
</event>
<event>
 8    1  0.2500956E-006  0.9118800E+02  0.7816164E-02  0.1184000E+00
        -11   -1    0    0    0    0  0.00000000000E+00  0.00000000000E+00  0.45593999997E+02  0.45594000000E+02  0.51100000000E-03 0.  1.
         11   -1    0    0    0    0 -0.00000000000E+00 -0.00000000000E+00 -0.45593999997E+02  0.45594000000E+02  0.51100000000E-03 0. -1.
         23    2    1    2    0    0  0.35527136788E-14 -0.35527136788E-14 -0.88817841970E-15  0.91188000000E+02  0.91188000000E+02 0.  0.
    9900012    2    3    3    0    0  0.22888058152E+02 -0.28305176451E+02 -0.55438488881E+01  0.54367075509E+02  0.39999980237E+02 0.  0.
        -12    1    3    3    0    0 -0.22888058152E+02  0.28305176451E+02  0.55438488881E+01  0.36820924491E+02  0.00000000000E+00 0.  1.
         11    1    4    4    0    0  0.39375650830E+01 -0.16990070686E+02 -0.12821495817E+02  0.21646193106E+02  0.51100000000E-03 0. -1.
        -11    1    4    4    0    0 -0.52300972639E+01 -0.37181920058E+01  0.26405192639E+00  0.64225067429E+01  0.51100000000E-03 0.  1.
        -12    1    4    4    0    0  0.24180590333E+02 -0.75969137590E+01  0.70135950029E+01  0.26298375660E+02  0.00000000000E+00 0.  1.
</event>
<event>
 8    1  0.2500956E-006  0.9118800E+02  0.7816164E-02  0.1184000E+00
        -11   -1    0    0    0    0  0.00000000000E+00  0.00000000000E+00  0.45593999997E+02  0.45594000000E+02  0.51100000000E-03 0.  1.
         11   -1    0    0    0    0 -0.00000000000E+00 -0.00000000000E+00 -0.45593999997E+02  0.45594000000E+02  0.51100000000E-03 0. -1.
         23    2    1    2    0    0  0.00000000000E+00  0.00000000000E+00  0.00000000000E+00  0.91188000000E+02  0.91188000000E+02 0.  0.
    9900012    2    3    3    0    0 -0.43257819286E+01 -0.31429700298E+02  0.18688006774E+02  0.54367081390E+02  0.39999993645E+02 0.  0.
         12    1    3    3    0    0  0.43257819286E+01  0.31429700298E+02 -0.18688006774E+02  0.36820918610E+02  0.00000000000E+00 0. -1.
         11    1    4    4    0    0 -0.80172079618E+01 -0.10664777406E+02 -0.85084838610E+01  0.15824266128E+02  0.51100000000E-03 0. -1.
        -11    1    4    4    0    0  0.77342686521E+01 -0.75817205217E+01  0.20563341277E+02  0.23241179023E+02  0.51100000000E-03 0.  1.
         12    1    4    4    0    0 -0.40428426189E+01 -0.13183202370E+02  0.66331493580E+01  0.15301636238E+02  0.00000000000E+00 0. -1.
</event>
<event>
 8    1  0.2500956E-006  0.9118800E+02  0.7816164E-02  0.1184000E+00
        -11   -1    0    0    0    0  0.00000000000E+00  0.00000000000E+00  0.45593999997E+02  0.45594000000E+02  0.51100000000E-03 0. -1.
         11   -1    0    0    0    0 -0.00000000000E+00 -0.00000000000E+00 -0.45593999997E+02  0.45594000000E+02  0.51100000000E-03 0.  1.
         23    2    1    2    0    0  0.00000000000E+00  0.35527136788E-14  0.00000000000E+00  0.91188000000E+02  0.91188000000E+02 0.  0.
    9900012    2    3    3    0    0  0.11671008777E+02 -0.28896849375E+02  0.19609660669E+02  0.54367093694E+02  0.40000021693E+02 0.  0.
        -12    1    3    3    0    0 -0.11671008777E+02  0.28896849375E+02 -0.19609660669E+02  0.36820906306E+02  0.00000000000E+00 0.  1.
         11    1    4    4    0    0  0.37919852327E+01 -0.43855260125E+01  0.25541340097E+02  0.26191068031E+02  0.51100000000E-03 0. -1.
        -11    1    4    4    0    0  0.25286186943E+01 -0.17825121223E+02 -0.45159178544E+00  0.18009241919E+02  0.51100000000E-03 0.  1.
         12    1    4    4    0    0  0.53504048497E+01 -0.66862021396E+01 -0.54800876424E+01  0.10166783743E+02  0.00000000000E+00 0. -1.
</event>
<event>
 8    1  0.2500956E-006  0.9118800E+02  0.7816164E-02  0.1184000E+00
        -11   -1    0    0    0    0  0.00000000000E+00  0.00000000000E+00  0.45593999997E+02  0.45594000000E+02  0.51100000000E-03 0.  1.
         11   -1    0    0    0    0 -0.00000000000E+00 -0.00000000000E+00 -0.45593999997E+02  0.45594000000E+02  0.51100000000E-03 0. -1.
         23    2    1    2    0    0  0.88817841970E-15  0.35527136788E-14  0.00000000000E+00  0.91188000000E+02  0.91188000000E+02 0.  0.
    9900012    2    3    3    0    0  0.27401233677E+01  0.11716161436E+02  0.34799467362E+02  0.54367086872E+02  0.40000006143E+02 0.  0.
         12    1    3    3    0    0 -0.27401233677E+01 -0.11716161436E+02 -0.34799467362E+02  0.36820913128E+02  0.00000000000E+00 0. -1.
         11    1    4    4    0    0  0.42052433396E+00  0.10702784572E+02 -0.42187330795E+01  0.11511913280E+02  0.51100000000E-03 0. -1.
        -11    1    4    4    0    0 -0.71539229100E+01  0.54985604829E+00  0.98683634139E+01  0.12201047144E+02  0.51100000000E-03 0.  1.
        -12    1    4    4    0    0  0.94735219438E+01  0.46352081531E+00  0.29149837028E+02  0.30654126448E+02  0.00000000000E+00 0.  1.
</event>
<event>
 8    1  0.2500956E-006  0.9118800E+02  0.7816164E-02  0.1184000E+00
        -11   -1    0    0    0    0  0.00000000000E+00  0.00000000000E+00  0.45593999997E+02  0.45594000000E+02  0.51100000000E-03 0.  1.
         11   -1    0    0    0    0 -0.00000000000E+00 -0.00000000000E+00 -0.45593999997E+02  0.45594000000E+02  0.51100000000E-03 0. -1.
         23    2    1    2    0    0  0.00000000000E+00  0.00000000000E+00  0.00000000000E+00  0.91188000000E+02  0.91188000000E+02 0.  0.
    9900012    2    3    3    0    0  0.15737602980E+02 -0.11590312241E+02 -0.31205315099E+02  0.54367093224E+02  0.40000020622E+02 0.  0.
        -12    1    3    3    0    0 -0.15737602980E+02  0.11590312241E+02  0.31205315099E+02  0.36820906776E+02  0.00000000000E+00 0.  1.
         11    1    4    4    0    0 -0.51258917180E+01 -0.10020445367E+02 -0.10920660842E+02  0.15682631308E+02  0.51100000000E-03 0. -1.
        -11    1    4    4    0    0  0.15752854272E+02 -0.12601011323E+02 -0.89724172284E+01  0.22078092655E+02  0.51100000000E-03 0.  1.
        -12    1    4    4    0    0  0.51106404255E+01  0.11031144450E+02 -0.11312237029E+02  0.16606369261E+02  0.00000000000E+00 0.  1.
</event>
<event>
 8    1  0.2500956E-006  0.9118800E+02  0.7816164E-02  0.1184000E+00
        -11   -1    0    0    0    0  0.00000000000E+00  0.00000000000E+00  0.45593999997E+02  0.45594000000E+02  0.51100000000E-03 0.  1.
         11   -1    0    0    0    0 -0.00000000000E+00 -0.00000000000E+00 -0.45593999997E+02  0.45594000000E+02  0.51100000000E-03 0. -1.
         23    2    1    2    0    0  0.00000000000E+00 -0.17763568394E-14  0.00000000000E+00  0.91188000000E+02  0.91188000000E+02 0.  0.
    9900012    2    3    3    0    0  0.16113911086E+02  0.13774369601E+02 -0.30106288683E+02  0.54367081942E+02  0.39999994902E+02 0.  0.
        -12    1    3    3    0    0 -0.16113911086E+02 -0.13774369601E+02  0.30106288683E+02  0.36820918058E+02  0.00000000000E+00 0.  1.
         11    1    4    4    0    0  0.62193195929E+01 -0.60296706480E+01 -0.47972506556E+01  0.99020441544E+01  0.51100000000E-03 0. -1.
        -11    1    4    4    0    0  0.96417754087E+01  0.20639407300E+02 -0.39889050167E+01  0.23127047590E+02  0.51100000000E-03 0.  1.
        -12    1    4    4    0    0  0.25281608495E+00 -0.83536705060E+00 -0.21320133011E+02  0.21337990198E+02  0.00000000000E+00 0.  1.
</event>
<event>
 8    1  0.2500956E-006  0.9118800E+02  0.7816164E-02  0.1184000E+00
        -11   -1    0    0    0    0  0.00000000000E+00  0.00000000000E+00  0.45593999997E+02  0.45594000000E+02  0.51100000000E-03 0. -1.
         11   -1    0    0    0    0 -0.00000000000E+00 -0.00000000000E+00 -0.45593999997E+02  0.45594000000E+02  0.51100000000E-03 0.  1.
         23    2    1    2    0    0  0.00000000000E+00  0.00000000000E+00 -0.35527136788E-14  0.91188000000E+02  0.91188000000E+02 0.  0.
    9900012    2    3    3    0    0 -0.17866072562E+02  0.12123756805E+02 -0.29826136600E+02  0.54367075890E+02  0.39999981105E+02 0.  0.
         12    1    3    3    0    0  0.17866072562E+02 -0.12123756805E+02  0.29826136600E+02  0.36820924110E+02  0.00000000000E+00 0. -1.
         11    1    4    4    0    0 -0.11834429743E+02  0.74334587747E+01  0.42877693092E+01  0.14618310525E+02  0.51100000000E-03 0. -1.
        -11    1    4    4    0    0  0.58894227501E+01  0.33854484724E+01 -0.55586542587E+01  0.87775394683E+01  0.51100000000E-03 0.  1.
        -12    1    4    4    0    0 -0.11921065569E+02  0.13048495579E+01 -0.28555251651E+02  0.30971225896E+02  0.00000000000E+00 0.  1.
</event>
<event>
 8    1  0.2500956E-006  0.9118800E+02  0.7816164E-02  0.1184000E+00
        -11   -1    0    0    0    0  0.00000000000E+00  0.00000000000E+00  0.45593999997E+02  0.45594000000E+02  0.51100000000E-03 0.  1.
         11   -1    0    0    0    0 -0.00000000000E+00 -0.00000000000E+00 -0.45593999997E+02  0.45594000000E+02  0.51100000000E-03 0. -1.
         23    2    1    2    0    0  0.88817841970E-15  0.00000000000E+00  0.00000000000E+00  0.91188000000E+02  0.91188000000E+02 0.  0.
    9900012    2    3    3    0    0 -0.51421815753E+01 -0.28784221693E+02 -0.22378742662E+02  0.54367060673E+02  0.39999946416E+02 0.  0.
        -12    1    3    3    0    0  0.51421815753E+01  0.28784221693E+02  0.22378742662E+02  0.36820939327E+02  0.00000000000E+00 0.  1.
         11    1    4    4    0    0 -0.11312053624E+01 -0.14296942363E+02 -0.34059306463E+01  0.14740507126E+02  0.51100000000E-03 0. -1.
        -11    1    4    4    0    0 -0.64591155858E+01 -0.23182967435E+01  0.76349699781E+01  0.10265838532E+02  0.51100000000E-03 0.  1.
         12    1    4    4    0    0  0.24481393729E+01 -0.12168982586E+02 -0.26607781994E+02  0.29360715015E+02  0.00000000000E+00 0. -1.
</event>
<event>
 8    1  0.2500956E-006  0.9118800E+02  0.7816164E-02  0.1184000E+00
        -11   -1    0    0    0    0  0.00000000000E+00  0.00000000000E+00  0.45593999997E+02  0.45594000000E+02  0.51100000000E-03 0.  1.
         11   -1    0    0    0    0 -0.00000000000E+00 -0.00000000000E+00 -0.45593999997E+02  0.45594000000E+02  0.51100000000E-03 0. -1.
         23    2    1    2    0    0  0.35527136788E-14 -0.22204460493E-14  0.00000000000E+00  0.91188000000E+02  0.91188000000E+02 0.  0.
    9900012    2    3    3    0    0 -0.29466405486E+02 -0.29311992733E+01  0.21884145932E+02  0.54367125151E+02  0.40000093408E+02 0.  0.
         12    1    3    3    0    0  0.29466405486E+02  0.29311992733E+01 -0.21884145932E+02  0.36820874849E+02  0.00000000000E+00 0. -1.
         11    1    4    4    0    0 -0.10816708396E+02  0.13269349019E+02  0.13918408595E+02  0.22063519710E+02  0.51100000000E-03 0. -1.
        -11    1    4    4    0    0 -0.68338577875E+01 -0.14733885542E+02  0.11480131658E+02  0.19889253847E+02  0.51100000000E-03 0.  1.
        -12    1    4    4    0    0 -0.11815839303E+02 -0.14666627503E+01 -0.35143943221E+01  0.12414351594E+02  0.00000000000E+00 0.  1.
</event>
<event>
 8    1  0.2500956E-006  0.9118800E+02  0.7816164E-02  0.1184000E+00
        -11   -1    0    0    0    0  0.00000000000E+00  0.00000000000E+00  0.45593999997E+02  0.45594000000E+02  0.51100000000E-03 0. -1.
         11   -1    0    0    0    0 -0.00000000000E+00 -0.00000000000E+00 -0.45593999997E+02  0.45594000000E+02  0.51100000000E-03 0.  1.
         23    2    1    2    0    0  0.35527136788E-14  0.00000000000E+00  0.71054273576E-14  0.91188000000E+02  0.91188000000E+02 0.  0.
    9900012    2    3    3    0    0  0.22149138738E+02  0.89676661582E+01  0.28013861212E+02  0.54367084705E+02  0.40000001201E+02 0.  0.
        -12    1    3    3    0    0 -0.22149138738E+02 -0.89676661582E+01 -0.28013861212E+02  0.36820915295E+02  0.00000000000E+00 0.  1.
         11    1    4    4    0    0  0.12789108806E+02 -0.32458004973E+01  0.68377622548E+01  0.14861073913E+02  0.51100000000E-03 0.  1.
        -11    1    4    4    0    0  0.85597762450E+01  0.20614333794E+02  0.21594038867E+02  0.31056771275E+02  0.51100000000E-03 0. -1.
         12    1    4    4    0    0  0.80025368730E+00 -0.84008671390E+01 -0.41793991019E+00  0.84492395173E+01  0.00000000000E+00 0. -1.
</event>
<event>
 8    1  0.2500956E-006  0.9118800E+02  0.7816164E-02  0.1184000E+00
        -11   -1    0    0    0    0  0.00000000000E+00  0.00000000000E+00  0.45593999997E+02  0.45594000000E+02  0.51100000000E-03 0.  1.
         11   -1    0    0    0    0 -0.00000000000E+00 -0.00000000000E+00 -0.45593999997E+02  0.45594000000E+02  0.51100000000E-03 0. -1.
         23    2    1    2    0    0  0.71054273576E-14  0.00000000000E+00 -0.17763568394E-14  0.91188000000E+02  0.91188000000E+02 0.  0.
    9900012    2    3    3    0    0 -0.34415051361E+02 -0.11945243526E+02 -0.53564968910E+01  0.54367127360E+02  0.40000098442E+02 0.  0.
        -12    1    3    3    0    0  0.34415051361E+02  0.11945243526E+02  0.53564968910E+01  0.36820872640E+02  0.00000000000E+00 0.  1.
         11    1    4    4    0    0 -0.21626843117E+01 -0.11351878093E+01  0.30761948900E+01  0.39279549459E+01  0.51100000000E-03 0. -1.
        -11    1    4    4    0    0 -0.10311278081E+02 -0.17901647657E+02  0.79685546417E+01  0.22142477455E+02  0.51100000000E-03 0.  1.
         12    1    4    4    0    0 -0.21941088968E+02  0.70915919409E+01 -0.16401246423E+02  0.28296694959E+02  0.00000000000E+00 0. -1.
</event>
<event>
 8    1  0.2500956E-006  0.9118800E+02  0.7816164E-02  0.1184000E+00
        -11   -1    0    0    0    0  0.00000000000E+00  0.00000000000E+00  0.45593999997E+02  0.45594000000E+02  0.51100000000E-03 0. -1.
         11   -1    0    0    0    0 -0.00000000000E+00 -0.00000000000E+00 -0.45593999997E+02  0.45594000000E+02  0.51100000000E-03 0.  1.
         23    2    1    2    0    0 -0.35527136788E-14  0.00000000000E+00 -0.35527136788E-14  0.91188000000E+02  0.91188000000E+02 0.  0.
    9900012    2    3    3    0    0 -0.30614462785E+02  0.10422397976E+02 -0.17604196206E+02  0.54367089701E+02  0.40000012592E+02 0.  0.
         12    1    3    3    0    0  0.30614462785E+02 -0.10422397976E+02  0.17604196206E+02  0.36820910299E+02  0.00000000000E+00 0. -1.
         11    1    4    4    0    0 -0.98337853637E+01 -0.88597488383E+01 -0.11328012569E+02  0.17421892925E+02  0.51100000000E-03 0. -1.
        -11    1    4    4    0    0 -0.11203234737E+02 -0.32360037810E+01 -0.41702236903E+01  0.12384464257E+02  0.51100000000E-03 0.  1.
         12    1    4    4    0    0 -0.95774426850E+01  0.22518150595E+02 -0.21059599458E+01  0.24560732520E+02  0.00000000000E+00 0. -1.
</event>
<event>
 8    1  0.2500956E-006  0.9118800E+02  0.7816164E-02  0.1184000E+00
        -11   -1    0    0    0    0  0.00000000000E+00  0.00000000000E+00  0.45593999997E+02  0.45594000000E+02  0.51100000000E-03 0.  1.
         11   -1    0    0    0    0 -0.00000000000E+00 -0.00000000000E+00 -0.45593999997E+02  0.45594000000E+02  0.51100000000E-03 0. -1.
         23    2    1    2    0    0 -0.71054273576E-14 -0.71054273576E-14 -0.17763568394E-14  0.91188000000E+02  0.91188000000E+02 0.  0.
    9900012    2    3    3    0    0  0.18680761386E+02  0.29685067991E+02  0.11207388007E+02  0.54367086736E+02  0.40000005833E+02 0.  0.
         12    1    3    3    0    0 -0.18680761386E+02 -0.29685067991E+02 -0.11207388007E+02  0.36820913264E+02  0.00000000000E+00 0. -1.
         11    1    4    4    0    0  0.30999080622E+01  0.59555194322E+01  0.30076125240E+01  0.73568590483E+01  0.51100000000E-03 0. -1.
        -11    1    4    4    0    0  0.10311425924E+02  0.18639005605E+02  0.22474421256E+02  0.30965103674E+02  0.51100000000E-03 0.  1.
         12    1    4    4    0    0  0.52694274005E+01  0.50905429545E+01 -0.14274645772E+02  0.16045124014E+02  0.00000000000E+00 0. -1.
</event>
<event>
 8    1  0.2500956E-006  0.9118800E+02  0.7816164E-02  0.1184000E+00
        -11   -1    0    0    0    0  0.00000000000E+00  0.00000000000E+00  0.45593999997E+02  0.45594000000E+02  0.51100000000E-03 0.  1.
         11   -1    0    0    0    0 -0.00000000000E+00 -0.00000000000E+00 -0.45593999997E+02  0.45594000000E+02  0.51100000000E-03 0. -1.
         23    2    1    2    0    0  0.00000000000E+00  0.35527136788E-14  0.35527136788E-14  0.91188000000E+02  0.91188000000E+02 0.  0.
    9900012    2    3    3    0    0  0.11772319450E+02 -0.30352701260E+02  0.17201923392E+02  0.54367080030E+02  0.39999990545E+02 0.  0.
        -12    1    3    3    0    0 -0.11772319450E+02  0.30352701260E+02 -0.17201923392E+02  0.36820919970E+02  0.00000000000E+00 0.  1.
         11    1    4    4    0    0  0.13004286415E+02 -0.24885756472E+02  0.55604142633E+00  0.28084186345E+02  0.51100000000E-03 0. -1.
        -11    1    4    4    0    0  0.56463178359E+01 -0.40447578708E+01 -0.12507727713E+01  0.70572943912E+01  0.51100000000E-03 0.  1.
        -12    1    4    4    0    0 -0.68782848014E+01 -0.14221869177E+01  0.17896654737E+02  0.19225599294E+02  0.00000000000E+00 0.  1.
</event>
<event>
 8    1  0.2500956E-006  0.9118800E+02  0.7816164E-02  0.1184000E+00
        -11   -1    0    0    0    0  0.00000000000E+00  0.00000000000E+00  0.45593999997E+02  0.45594000000E+02  0.51100000000E-03 0.  1.
         11   -1    0    0    0    0 -0.00000000000E+00 -0.00000000000E+00 -0.45593999997E+02  0.45594000000E+02  0.51100000000E-03 0. -1.
         23    2    1    2    0    0 -0.17763568394E-14  0.00000000000E+00  0.00000000000E+00  0.91188000000E+02  0.91188000000E+02 0.  0.
    9900012    2    3    3    0    0  0.14382358541E+02 -0.78356573492E+01  0.32977728373E+02  0.54367077525E+02  0.39999984833E+02 0.  0.
         12    1    3    3    0    0 -0.14382358541E+02  0.78356573492E+01 -0.32977728373E+02  0.36820922475E+02  0.00000000000E+00 0. -1.
         11    1    4    4    0    0  0.86612545711E+01  0.74020480512E+01 -0.32425842190E+01  0.11845758683E+02  0.51100000000E-03 0. -1.
        -11    1    4    4    0    0  0.29062833864E+01 -0.25132134324E+01  0.25091692205E+02  0.25384163230E+02  0.51100000000E-03 0.  1.
        -12    1    4    4    0    0  0.28148205839E+01 -0.12724491968E+02  0.11128620386E+02  0.17137155612E+02  0.00000000000E+00 0.  1.
</event>
<event>
 8    1  0.2500956E-006  0.9118800E+02  0.7816164E-02  0.1184000E+00
        -11   -1    0    0    0    0  0.00000000000E+00  0.00000000000E+00  0.45593999997E+02  0.45594000000E+02  0.51100000000E-03 0. -1.
         11   -1    0    0    0    0 -0.00000000000E+00 -0.00000000000E+00 -0.45593999997E+02  0.45594000000E+02  0.51100000000E-03 0.  1.
         23    2    1    2    0    0  0.00000000000E+00  0.00000000000E+00  0.00000000000E+00  0.91188000000E+02  0.91188000000E+02 0.  0.
    9900012    2    3    3    0    0  0.96894813201E+01  0.24982331958E+02  0.25254215382E+02  0.54367104399E+02  0.40000046098E+02 0.  0.
        -12    1    3    3    0    0 -0.96894813201E+01 -0.24982331958E+02 -0.25254215382E+02  0.36820895601E+02  0.00000000000E+00 0.  1.
         11    1    4    4    0    0  0.12101097462E+02 -0.65705557569E+00  0.59650144171E+00  0.12133593699E+02  0.51100000000E-03 0. -1.
        -11    1    4    4    0    0  0.81425107103E+00  0.35545502656E+01 -0.43222382026E+01  0.56550486946E+01  0.51100000000E-03 0.  1.
         12    1    4    4    0    0 -0.32258672132E+01  0.22084837268E+02  0.28979952143E+02  0.36578462005E+02  0.00000000000E+00 0. -1.
</event>
<event>
 8    1  0.2500956E-006  0.9118800E+02  0.7816164E-02  0.1184000E+00
        -11   -1    0    0    0    0  0.00000000000E+00  0.00000000000E+00  0.45593999997E+02  0.45594000000E+02  0.51100000000E-03 0. -1.
         11   -1    0    0    0    0 -0.00000000000E+00 -0.00000000000E+00 -0.45593999997E+02  0.45594000000E+02  0.51100000000E-03 0.  1.
         23    2    1    2    0    0  0.00000000000E+00  0.00000000000E+00  0.00000000000E+00  0.91188000000E+02  0.91188000000E+02 0.  0.
    9900012    2    3    3    0    0  0.39030652803E+01  0.36883008429E+01 -0.36427220229E+02  0.54367083997E+02  0.39999999587E+02 0.  0.
         12    1    3    3    0    0 -0.39030652803E+01 -0.36883008429E+01  0.36427220229E+02  0.36820916003E+02  0.00000000000E+00 0. -1.
         11    1    4    4    0    0 -0.24006403625E+01 -0.10151352116E+02  0.27920478752E+01  0.10798544139E+02  0.51100000000E-03 0.  1.
        -11    1    4    4    0    0  0.73890630596E+01  0.12418652378E+02 -0.22414525115E+02  0.26668935415E+02  0.51100000000E-03 0. -1.
        -12    1    4    4    0    0 -0.10853574167E+01  0.14210005806E+01 -0.16804742990E+02  0.16899604443E+02  0.00000000000E+00 0.  1.
</event>
<event>
 8    1  0.2500956E-006  0.9118800E+02  0.7816164E-02  0.1184000E+00
        -11   -1    0    0    0    0  0.00000000000E+00  0.00000000000E+00  0.45593999997E+02  0.45594000000E+02  0.51100000000E-03 0. -1.
         11   -1    0    0    0    0 -0.00000000000E+00 -0.00000000000E+00 -0.45593999997E+02  0.45594000000E+02  0.51100000000E-03 0.  1.
         23    2    1    2    0    0  0.00000000000E+00  0.35527136788E-14  0.00000000000E+00  0.91188000000E+02  0.91188000000E+02 0.  0.
    9900012    2    3    3    0    0 -0.11108375256E+02  0.17740602291E+02 -0.30292821435E+02  0.54367082019E+02  0.39999995079E+02 0.  0.
         12    1    3    3    0    0  0.11108375256E+02 -0.17740602291E+02  0.30292821435E+02  0.36820917981E+02  0.00000000000E+00 0. -1.
         11    1    4    4    0    0  0.60881830288E+01  0.86184439013E+01 -0.15985500832E+01  0.10672343253E+02  0.51100000000E-03 0. -1.
        -11    1    4    4    0    0 -0.46689207740E+01  0.16160916295E+02 -0.83307093869E+01  0.18771647659E+02  0.51100000000E-03 0.  1.
        -12    1    4    4    0    0 -0.12527637511E+02 -0.70387579052E+01 -0.20363561965E+02  0.24923091108E+02  0.00000000000E+00 0.  1.
</event>
<event>
 8    1  0.2500956E-006  0.9118800E+02  0.7816164E-02  0.1184000E+00
        -11   -1    0    0    0    0  0.00000000000E+00  0.00000000000E+00  0.45593999997E+02  0.45594000000E+02  0.51100000000E-03 0.  1.
         11   -1    0    0    0    0 -0.00000000000E+00 -0.00000000000E+00 -0.45593999997E+02  0.45594000000E+02  0.51100000000E-03 0. -1.
         23    2    1    2    0    0  0.00000000000E+00  0.00000000000E+00  0.00000000000E+00  0.91188000000E+02  0.91188000000E+02 0.  0.
    9900012    2    3    3    0    0  0.32594539804E+02  0.73456653319E+01  0.15473120127E+02  0.54367078357E+02  0.39999986729E+02 0.  0.
         12    1    3    3    0    0 -0.32594539804E+02 -0.73456653319E+01 -0.15473120127E+02  0.36820921643E+02  0.00000000000E+00 0. -1.
         11    1    4    4    0    0 -0.26504951650E+01 -0.17877514581E+00 -0.65822165323E+01  0.70980743805E+01  0.51100000000E-03 0. -1.
        -11    1    4    4    0    0  0.11568998918E+02  0.32731063913E+01  0.19726644730E+02  0.23101850012E+02  0.51100000000E-03 0.  1.
         12    1    4    4    0    0  0.23676036051E+02  0.42513340865E+01  0.23286919292E+01  0.24167153964E+02  0.00000000000E+00 0. -1.
</event>
<event>
 8    1  0.2500956E-006  0.9118800E+02  0.7816164E-02  0.1184000E+00
        -11   -1    0    0    0    0  0.00000000000E+00  0.00000000000E+00  0.45593999997E+02  0.45594000000E+02  0.51100000000E-03 0. -1.
         11   -1    0    0    0    0 -0.00000000000E+00 -0.00000000000E+00 -0.45593999997E+02  0.45594000000E+02  0.51100000000E-03 0.  1.
         23    2    1    2    0    0 -0.17763568394E-14  0.17763568394E-14  0.00000000000E+00  0.91188000000E+02  0.91188000000E+02 0.  0.
    9900012    2    3    3    0    0  0.12603142099E+02 -0.11469785244E+02 -0.32640232349E+02  0.54367082954E+02  0.39999997210E+02 0.  0.
         12    1    3    3    0    0 -0.12603142099E+02  0.11469785244E+02  0.32640232349E+02  0.36820917046E+02  0.00000000000E+00 0. -1.
         11    1    4    4    0    0  0.63436645522E+01  0.74138230986E+01 -0.37005612010E+01  0.10435564496E+02  0.51100000000E-03 0. -1.
        -11    1    4    4    0    0 -0.61872809904E+01 -0.53337177479E+01  0.15556478960E+01  0.83157099340E+01  0.51100000000E-03 0.  1.
        -12    1    4    4    0    0  0.12446758537E+02 -0.13549890595E+02 -0.30495319044E+02  0.35615808524E+02  0.00000000000E+00 0.  1.
</event>
<event>
 8    1  0.2500956E-006  0.9118800E+02  0.7816164E-02  0.1184000E+00
        -11   -1    0    0    0    0  0.00000000000E+00  0.00000000000E+00  0.45593999997E+02  0.45594000000E+02  0.51100000000E-03 0.  1.
         11   -1    0    0    0    0 -0.00000000000E+00 -0.00000000000E+00 -0.45593999997E+02  0.45594000000E+02  0.51100000000E-03 0. -1.
         23    2    1    2    0    0  0.00000000000E+00 -0.35527136788E-14  0.17763568394E-14  0.91188000000E+02  0.91188000000E+02 0.  0.
    9900012    2    3    3    0    0 -0.16973670120E+02 -0.30812471068E+02  0.10874973392E+02  0.54367097011E+02  0.40000029255E+02 0.  0.
         12    1    3    3    0    0  0.16973670120E+02  0.30812471068E+02 -0.10874973392E+02  0.36820902989E+02  0.00000000000E+00 0. -1.
         11    1    4    4    0    0  0.89860578231E-01 -0.12912102669E+02  0.18025606701E+01  0.13037626145E+02  0.51100000000E-03 0. -1.
        -11    1    4    4    0    0 -0.11010161838E+02 -0.27125396818E+02  0.70534955172E+01  0.30112499324E+02  0.51100000000E-03 0.  1.
         12    1    4    4    0    0 -0.60533688603E+01  0.92250284193E+01  0.20189172052E+01  0.11216971542E+02  0.00000000000E+00 0. -1.
</event>
<event>
 8    1  0.2500956E-006  0.9118800E+02  0.7816164E-02  0.1184000E+00
        -11   -1    0    0    0    0  0.00000000000E+00  0.00000000000E+00  0.45593999997E+02  0.45594000000E+02  0.51100000000E-03 0.  1.
         11   -1    0    0    0    0 -0.00000000000E+00 -0.00000000000E+00 -0.45593999997E+02  0.45594000000E+02  0.51100000000E-03 0. -1.
         23    2    1    2    0    0  0.00000000000E+00 -0.17763568394E-14  0.17763568394E-14  0.91188000000E+02  0.91188000000E+02 0.  0.
    9900012    2    3    3    0    0 -0.33701794023E+02  0.75009226139E+01 -0.12794710653E+02  0.54367090436E+02  0.40000014267E+02 0.  0.
         12    1    3    3    0    0  0.33701794023E+02 -0.75009226139E+01  0.12794710653E+02  0.36820909564E+02  0.00000000000E+00 0. -1.
         11    1    4    4    0    0 -0.14067372061E+02  0.18817757661E+02  0.39544309208E+01  0.23825122965E+02  0.51100000000E-03 0. -1.
        -11    1    4    4    0    0 -0.50215642690E+01 -0.87751906513E+01 -0.36362730719E+01  0.10744419984E+02  0.51100000000E-03 0.  1.
         12    1    4    4    0    0 -0.14612857692E+02 -0.25416443961E+01 -0.13112868502E+02  0.19797547488E+02  0.00000000000E+00 0. -1.
</event>
<event>
 8    1  0.2500956E-006  0.9118800E+02  0.7816164E-02  0.1184000E+00
        -11   -1    0    0    0    0  0.00000000000E+00  0.00000000000E+00  0.45593999997E+02  0.45594000000E+02  0.51100000000E-03 0.  1.
         11   -1    0    0    0    0 -0.00000000000E+00 -0.00000000000E+00 -0.45593999997E+02  0.45594000000E+02  0.51100000000E-03 0. -1.
         23    2    1    2    0    0 -0.44408920985E-15  0.44408920985E-15  0.71054273576E-14  0.91188000000E+02  0.91188000000E+02 0.  0.
    9900012    2    3    3    0    0  0.28430976297E+01  0.11890961688E+01  0.36691720420E+02  0.54367088805E+02  0.40000010550E+02 0.  0.
         12    1    3    3    0    0 -0.28430976297E+01 -0.11890961688E+01 -0.36691720420E+02  0.36820911195E+02  0.00000000000E+00 0. -1.
         11    1    4    4    0    0 -0.20454516624E+01  0.85936418955E+01  0.11284610498E+02  0.14330980004E+02  0.51100000000E-03 0. -1.
        -11    1    4    4    0    0 -0.12369735528E+02 -0.90557938185E+00  0.11786639809E+02  0.17110093784E+02  0.51100000000E-03 0.  1.
         12    1    4    4    0    0  0.17258284820E+02 -0.64989663448E+01  0.13620470113E+02  0.22926015017E+02  0.00000000000E+00 0. -1.
</event>
<event>
 8    1  0.2500956E-006  0.9118800E+02  0.7816164E-02  0.1184000E+00
        -11   -1    0    0    0    0  0.00000000000E+00  0.00000000000E+00  0.45593999997E+02  0.45594000000E+02  0.51100000000E-03 0. -1.
         11   -1    0    0    0    0 -0.00000000000E+00 -0.00000000000E+00 -0.45593999997E+02  0.45594000000E+02  0.51100000000E-03 0.  1.
         23    2    1    2    0    0  0.00000000000E+00  0.00000000000E+00  0.00000000000E+00  0.91188000000E+02  0.91188000000E+02 0.  0.
    9900012    2    3    3    0    0  0.19497710982E+02 -0.16358320549E+02 -0.26608744000E+02  0.54367073314E+02  0.39999975234E+02 0.  0.
         12    1    3    3    0    0 -0.19497710982E+02  0.16358320549E+02  0.26608744000E+02  0.36820926686E+02  0.00000000000E+00 0. -1.
         11    1    4    4    0    0  0.63498497860E+01 -0.87365635188E+00  0.52775679970E+01  0.83028062696E+01  0.51100000000E-03 0. -1.
        -11    1    4    4    0    0  0.13077087597E+01 -0.95322834080E+01  0.18684279680E+01  0.98013036124E+01  0.51100000000E-03 0.  1.
        -12    1    4    4    0    0  0.11840152436E+02 -0.59523807896E+01 -0.33754739965E+02  0.36262963432E+02  0.00000000000E+00 0.  1.
</event>
<event>
 8    1  0.2500956E-006  0.9118800E+02  0.7816164E-02  0.1184000E+00
        -11   -1    0    0    0    0  0.00000000000E+00  0.00000000000E+00  0.45593999997E+02  0.45594000000E+02  0.51100000000E-03 0. -1.
         11   -1    0    0    0    0 -0.00000000000E+00 -0.00000000000E+00 -0.45593999997E+02  0.45594000000E+02  0.51100000000E-03 0.  1.
         23    2    1    2    0    0  0.17763568394E-14  0.35527136788E-14  0.00000000000E+00  0.91188000000E+02  0.91188000000E+02 0.  0.
    9900012    2    3    3    0    0  0.11045636665E+02  0.31313417426E+02 -0.15913612029E+02  0.54367092243E+02  0.40000018386E+02 0.  0.
         12    1    3    3    0    0 -0.11045636665E+02 -0.31313417426E+02  0.15913612029E+02  0.36820907757E+02  0.00000000000E+00 0. -1.
         11    1    4    4    0    0  0.80215868340E+01  0.23863964662E+02 -0.10697181186E+02  0.27354421037E+02  0.51100000000E-03 0. -1.
        -11    1    4    4    0    0  0.35247416644E+01  0.91709663743E+01 -0.14523437138E+02  0.17534556014E+02  0.51100000000E-03 0.  1.
         12    1    4    4    0    0 -0.50069183300E+00 -0.17215136096E+01  0.93070062946E+01  0.94781151917E+01  0.00000000000E+00 0. -1.
</event>
<event>
 8    1  0.2500956E-006  0.9118800E+02  0.7816164E-02  0.1184000E+00
        -11   -1    0    0    0    0  0.00000000000E+00  0.00000000000E+00  0.45593999997E+02  0.45594000000E+02  0.51100000000E-03 0.  1.
         11   -1    0    0    0    0 -0.00000000000E+00 -0.00000000000E+00 -0.45593999997E+02  0.45594000000E+02  0.51100000000E-03 0. -1.
         23    2    1    2    0    0  0.38857805862E-15  0.35527136788E-14  0.00000000000E+00  0.91188000000E+02  0.91188000000E+02 0.  0.
    9900012    2    3    3    0    0 -0.10172041131E+00 -0.31122237373E+02  0.19676741993E+02  0.54367106724E+02  0.40000051399E+02 0.  0.
         12    1    3    3    0    0  0.10172041131E+00  0.31122237373E+02 -0.19676741993E+02  0.36820893276E+02  0.00000000000E+00 0. -1.
         11    1    4    4    0    0 -0.54838528862E+01 -0.15249168072E+02  0.25917813959E+00  0.16207311403E+02  0.51100000000E-03 0. -1.
        -11    1    4    4    0    0  0.70797322529E+01 -0.23622740363E+02  0.16659429720E+02  0.29760595926E+02  0.51100000000E-03 0.  1.
         12    1    4    4    0    0 -0.16975997780E+01  0.77496710615E+01  0.27581341339E+01  0.83991993945E+01  0.00000000000E+00 0. -1.
</event>
<event>
 8    1  0.2500956E-006  0.9118800E+02  0.7816164E-02  0.1184000E+00
        -11   -1    0    0    0    0  0.00000000000E+00  0.00000000000E+00  0.45593999997E+02  0.45594000000E+02  0.51100000000E-03 0.  1.
         11   -1    0    0    0    0 -0.00000000000E+00 -0.00000000000E+00 -0.45593999997E+02  0.45594000000E+02  0.51100000000E-03 0. -1.
         23    2    1    2    0    0  0.00000000000E+00  0.00000000000E+00  0.35527136788E-14  0.91188000000E+02  0.91188000000E+02 0.  0.
    9900012    2    3    3    0    0 -0.15127476040E+02 -0.21029494318E+02  0.26166757738E+02  0.54367090545E+02  0.40000014515E+02 0.  0.
         12    1    3    3    0    0  0.15127476040E+02  0.21029494318E+02 -0.26166757738E+02  0.36820909455E+02  0.00000000000E+00 0. -1.
         11    1    4    4    0    0 -0.13092494948E+02 -0.36438204454E+01 -0.42672898828E+00  0.13596799230E+02  0.51100000000E-03 0. -1.
        -11    1    4    4    0    0 -0.13309753020E+02 -0.13547103899E+02  0.16533862587E+02  0.25180193840E+02  0.51100000000E-03 0.  1.
         12    1    4    4    0    0  0.11274771928E+02 -0.38385699731E+01  0.10059624139E+02  0.15590097475E+02  0.00000000000E+00 0. -1.
</event>
<event>
 8    1  0.2500956E-006  0.9118800E+02  0.7816164E-02  0.1184000E+00
        -11   -1    0    0    0    0  0.00000000000E+00  0.00000000000E+00  0.45593999997E+02  0.45594000000E+02  0.51100000000E-03 0. -1.
         11   -1    0    0    0    0 -0.00000000000E+00 -0.00000000000E+00 -0.45593999997E+02  0.45594000000E+02  0.51100000000E-03 0.  1.
         23    2    1    2    0    0 -0.17763568394E-14  0.00000000000E+00  0.88817841970E-15  0.91188000000E+02  0.91188000000E+02 0.  0.
    9900012    2    3    3    0    0 -0.14158955657E+02 -0.33182138976E+02 -0.73654422914E+01  0.54367080505E+02  0.39999991627E+02 0.  0.
         12    1    3    3    0    0  0.14158955657E+02  0.33182138976E+02  0.73654422914E+01  0.36820919495E+02  0.00000000000E+00 0. -1.
         11    1    4    4    0    0 -0.11284196567E+02  0.15438173757E+00  0.80461875049E+01  0.13859944426E+02  0.51100000000E-03 0. -1.
        -11    1    4    4    0    0  0.68827738903E+00 -0.30504143721E+02 -0.75647313298E+01  0.31435675120E+02  0.51100000000E-03 0.  1.
        -12    1    4    4    0    0 -0.35630364791E+01 -0.28323769930E+01 -0.78468984664E+01  0.90714609586E+01  0.00000000000E+00 0.  1.
</event>
<event>
 8    1  0.2500956E-006  0.9118800E+02  0.7816164E-02  0.1184000E+00
        -11   -1    0    0    0    0  0.00000000000E+00  0.00000000000E+00  0.45593999997E+02  0.45594000000E+02  0.51100000000E-03 0. -1.
         11   -1    0    0    0    0 -0.00000000000E+00 -0.00000000000E+00 -0.45593999997E+02  0.45594000000E+02  0.51100000000E-03 0.  1.
         23    2    1    2    0    0  0.00000000000E+00  0.00000000000E+00  0.00000000000E+00  0.91188000000E+02  0.91188000000E+02 0.  0.
    9900012    2    3    3    0    0  0.40917028365E+01  0.78619585715E+01 -0.35738293171E+02  0.54367108872E+02  0.40000056295E+02 0.  0.
         12    1    3    3    0    0 -0.40917028365E+01 -0.78619585715E+01  0.35738293171E+02  0.36820891128E+02  0.00000000000E+00 0. -1.
         11    1    4    4    0    0 -0.10469695386E+02  0.14460132194E+02 -0.13498671650E+02  0.22381333318E+02  0.51100000000E-03 0. -1.
        -11    1    4    4    0    0  0.25623544386E+01 -0.54104117756E+01 -0.18372363066E+02  0.19323093457E+02  0.51100000000E-03 0.  1.
         12    1    4    4    0    0  0.11999043784E+02 -0.11877618465E+01 -0.38672584549E+01  0.12662682097E+02  0.00000000000E+00 0. -1.
</event>
<event>
 8    1  0.2500956E-006  0.9118800E+02  0.7816164E-02  0.1184000E+00
        -11   -1    0    0    0    0  0.00000000000E+00  0.00000000000E+00  0.45593999997E+02  0.45594000000E+02  0.51100000000E-03 0. -1.
         11   -1    0    0    0    0 -0.00000000000E+00 -0.00000000000E+00 -0.45593999997E+02  0.45594000000E+02  0.51100000000E-03 0.  1.
         23    2    1    2    0    0 -0.71054273576E-14  0.17763568394E-14 -0.35527136788E-14  0.91188000000E+02  0.91188000000E+02 0.  0.
    9900012    2    3    3    0    0 -0.17788689695E+02  0.98880152655E+01 -0.30684999057E+02  0.54367088902E+02  0.40000010770E+02 0.  0.
         12    1    3    3    0    0  0.17788689695E+02 -0.98880152655E+01  0.30684999057E+02  0.36820911098E+02  0.00000000000E+00 0. -1.
         11    1    4    4    0    0  0.22278550962E+01  0.94692447955E+01 -0.44292122421E+01  0.10688678902E+02  0.51100000000E-03 0. -1.
        -11    1    4    4    0    0  0.14762011074E+01 -0.99236007821E+01 -0.12899353372E+02  0.16341674940E+02  0.51100000000E-03 0.  1.
         12    1    4    4    0    0 -0.21492745898E+02  0.10342371252E+02 -0.13356433444E+02  0.27336735059E+02  0.00000000000E+00 0. -1.
</event>
<event>
 8    1  0.2500956E-006  0.9118800E+02  0.7816164E-02  0.1184000E+00
        -11   -1    0    0    0    0  0.00000000000E+00  0.00000000000E+00  0.45593999997E+02  0.45594000000E+02  0.51100000000E-03 0.  1.
         11   -1    0    0    0    0 -0.00000000000E+00 -0.00000000000E+00 -0.45593999997E+02  0.45594000000E+02  0.51100000000E-03 0. -1.
         23    2    1    2    0    0  0.00000000000E+00  0.00000000000E+00  0.71054273576E-14  0.91188000000E+02  0.91188000000E+02 0.  0.
    9900012    2    3    3    0    0  0.10440101792E+02  0.16029712473E+02 -0.31461587392E+02  0.54367097124E+02  0.40000029513E+02 0.  0.
        -12    1    3    3    0    0 -0.10440101792E+02 -0.16029712473E+02  0.31461587392E+02  0.36820902876E+02  0.00000000000E+00 0.  1.
         11    1    4    4    0    0  0.91345446656E+01  0.90768906462E+01 -0.60741349397E+01  0.14238151761E+02  0.51100000000E-03 0.  1.
        -11    1    4    4    0    0  0.15567154532E+02  0.25825464946E+01 -0.99096875971E+01  0.18633511616E+02  0.51100000000E-03 0. -1.
         12    1    4    4    0    0 -0.14261597405E+02  0.43702753318E+01 -0.15477764855E+02  0.21495433746E+02  0.00000000000E+00 0. -1.
</event>
<event>
 8    1  0.2500956E-006  0.9118800E+02  0.7816164E-02  0.1184000E+00
        -11   -1    0    0    0    0  0.00000000000E+00  0.00000000000E+00  0.45593999997E+02  0.45594000000E+02  0.51100000000E-03 0.  1.
         11   -1    0    0    0    0 -0.00000000000E+00 -0.00000000000E+00 -0.45593999997E+02  0.45594000000E+02  0.51100000000E-03 0. -1.
         23    2    1    2    0    0  0.00000000000E+00 -0.17763568394E-14  0.35527136788E-14  0.91188000000E+02  0.91188000000E+02 0.  0.
    9900012    2    3    3    0    0  0.20447829093E+02  0.11024499079E+02  0.28567930905E+02  0.54367082429E+02  0.39999996014E+02 0.  0.
         12    1    3    3    0    0 -0.20447829093E+02 -0.11024499079E+02 -0.28567930905E+02  0.36820917571E+02  0.00000000000E+00 0. -1.
         11    1    4    4    0    0  0.13488040953E+02 -0.45544309879E+01  0.59217002268E+01  0.15418710199E+02  0.51100000000E-03 0. -1.
        -11    1    4    4    0    0  0.16120349809E+02  0.71983351129E+01  0.19157702930E+02  0.26051857673E+02  0.51100000000E-03 0.  1.
         12    1    4    4    0    0 -0.91605616690E+01  0.83805949543E+01  0.34885277479E+01  0.12896514557E+02  0.00000000000E+00 0. -1.
</event>
<event>
 8    1  0.2500956E-006  0.9118800E+02  0.7816164E-02  0.1184000E+00
        -11   -1    0    0    0    0  0.00000000000E+00  0.00000000000E+00  0.45593999997E+02  0.45594000000E+02  0.51100000000E-03 0. -1.
         11   -1    0    0    0    0 -0.00000000000E+00 -0.00000000000E+00 -0.45593999997E+02  0.45594000000E+02  0.51100000000E-03 0.  1.
         23    2    1    2    0    0  0.00000000000E+00 -0.13322676296E-14  0.71054273576E-14  0.91188000000E+02  0.91188000000E+02 0.  0.
    9900012    2    3    3    0    0 -0.19906217086E+02  0.25254505835E+01  0.30873030826E+02  0.54367090021E+02  0.40000013321E+02 0.  0.
        -12    1    3    3    0    0  0.19906217086E+02 -0.25254505835E+01 -0.30873030826E+02  0.36820909979E+02  0.00000000000E+00 0.  1.
         11    1    4    4    0    0 -0.12745462769E+02 -0.87220089630E+01 -0.28700100402E+01  0.15708507868E+02  0.51100000000E-03 0. -1.
        -11    1    4    4    0    0 -0.79879990168E+01  0.10706206282E+02  0.15806591714E+02  0.20694910561E+02  0.51100000000E-03 0.  1.
         12    1    4    4    0    0  0.82724470008E+00  0.54125326415E+00  0.17936449152E+02  0.17963671592E+02  0.00000000000E+00 0. -1.
</event>
<event>
 8    1  0.2500956E-006  0.9118800E+02  0.7816164E-02  0.1184000E+00
        -11   -1    0    0    0    0  0.00000000000E+00  0.00000000000E+00  0.45593999997E+02  0.45594000000E+02  0.51100000000E-03 0.  1.
         11   -1    0    0    0    0 -0.00000000000E+00 -0.00000000000E+00 -0.45593999997E+02  0.45594000000E+02  0.51100000000E-03 0. -1.
         23    2    1    2    0    0  0.00000000000E+00 -0.88817841970E-15  0.71054273576E-14  0.91188000000E+02  0.91188000000E+02 0.  0.
    9900012    2    3    3    0    0  0.90499416846E+01  0.52622682293E+01 -0.35301369587E+02  0.54367087380E+02  0.40000007301E+02 0.  0.
        -12    1    3    3    0    0 -0.90499416846E+01 -0.52622682293E+01  0.35301369587E+02  0.36820912620E+02  0.00000000000E+00 0.  1.
         11    1    4    4    0    0 -0.10058109466E+02  0.10045947864E+02 -0.10026017779E+02  0.17395622072E+02  0.51100000000E-03 0. -1.
        -11    1    4    4    0    0 -0.10192936264E-01  0.53459311761E+01 -0.49289238255E+01  0.72714080049E+01  0.51100000000E-03 0.  1.
         12    1    4    4    0    0  0.19118244087E+02 -0.10129610811E+02 -0.20346427983E+02  0.29700057303E+02  0.00000000000E+00 0. -1.
</event>
<event>
 8    1  0.2500956E-006  0.9118800E+02  0.7816164E-02  0.1184000E+00
        -11   -1    0    0    0    0  0.00000000000E+00  0.00000000000E+00  0.45593999997E+02  0.45594000000E+02  0.51100000000E-03 0. -1.
         11   -1    0    0    0    0 -0.00000000000E+00 -0.00000000000E+00 -0.45593999997E+02  0.45594000000E+02  0.51100000000E-03 0.  1.
         23    2    1    2    0    0 -0.28865798640E-14  0.00000000000E+00  0.00000000000E+00  0.91188000000E+02  0.91188000000E+02 0.  0.
    9900012    2    3    3    0    0  0.14865440352E+01 -0.10558715576E+02  0.35243216754E+02  0.54367073681E+02  0.39999976071E+02 0.  0.
        -12    1    3    3    0    0 -0.14865440352E+01  0.10558715576E+02 -0.35243216754E+02  0.36820926319E+02  0.00000000000E+00 0.  1.
         11    1    4    4    0    0  0.18479543341E+02  0.31698766883E+00  0.20750155555E+02  0.27787820337E+02  0.51100000000E-03 0. -1.
        -11    1    4    4    0    0 -0.15262559781E+02 -0.48670631382E+01  0.10111007802E+02  0.18943772425E+02  0.51100000000E-03 0.  1.
         12    1    4    4    0    0 -0.17304395244E+01 -0.60086401068E+01  0.43820533975E+01  0.76354809187E+01  0.00000000000E+00 0. -1.
</event>
<event>
 8    1  0.2500956E-006  0.9118800E+02  0.7816164E-02  0.1184000E+00
        -11   -1    0    0    0    0  0.00000000000E+00  0.00000000000E+00  0.45593999997E+02  0.45594000000E+02  0.51100000000E-03 0.  1.
         11   -1    0    0    0    0 -0.00000000000E+00 -0.00000000000E+00 -0.45593999997E+02  0.45594000000E+02  0.51100000000E-03 0. -1.
         23    2    1    2    0    0  0.35527136788E-14  0.00000000000E+00  0.00000000000E+00  0.91188000000E+02  0.91188000000E+02 0.  0.
    9900012    2    3    3    0    0  0.24037301193E+02 -0.22805873809E+02 -0.16058657409E+02  0.54367079226E+02  0.39999988712E+02 0.  0.
         12    1    3    3    0    0 -0.24037301193E+02  0.22805873809E+02  0.16058657409E+02  0.36820920774E+02  0.00000000000E+00 0. -1.
         11    1    4    4    0    0  0.43220121986E+01 -0.98616892500E+00 -0.77437400766E+01  0.89228823386E+01  0.51100000000E-03 0. -1.
        -11    1    4    4    0    0  0.27506709261E+02 -0.23051941408E+02 -0.31747908367E+01  0.36029020999E+02  0.51100000000E-03 0.  1.
        -12    1    4    4    0    0 -0.77914202664E+01  0.12322365242E+01 -0.51401264958E+01  0.94151758885E+01  0.00000000000E+00 0.  1.
</event>
<event>
 8    1  0.2500956E-006  0.9118800E+02  0.7816164E-02  0.1184000E+00
        -11   -1    0    0    0    0  0.00000000000E+00  0.00000000000E+00  0.45593999997E+02  0.45594000000E+02  0.51100000000E-03 0.  1.
         11   -1    0    0    0    0 -0.00000000000E+00 -0.00000000000E+00 -0.45593999997E+02  0.45594000000E+02  0.51100000000E-03 0. -1.
         23    2    1    2    0    0 -0.35527136788E-14  0.00000000000E+00  0.00000000000E+00  0.91188000000E+02  0.91188000000E+02 0.  0.
    9900012    2    3    3    0    0 -0.31594934164E+02  0.96463823237E+01 -0.16262838188E+02  0.54367184383E+02  0.40000228437E+02 0.  0.
        -12    1    3    3    0    0  0.31594934164E+02 -0.96463823237E+01  0.16262838188E+02  0.36820815617E+02  0.00000000000E+00 0.  1.
         11    1    4    4    0    0 -0.23583579420E+02  0.29713902463E+01 -0.85781200274E+01  0.25270506954E+02  0.51100000000E-03 0. -1.
        -11    1    4    4    0    0  0.15564010813E+00  0.15654862043E+02 -0.23233906204E+01  0.15827099345E+02  0.51100000000E-03 0.  1.
        -12    1    4    4    0    0 -0.81669948528E+01 -0.89798699661E+01 -0.53613275400E+01  0.13269578084E+02  0.00000000000E+00 0.  1.
</event>
<event>
 8    1  0.2500956E-006  0.9118800E+02  0.7816164E-02  0.1184000E+00
        -11   -1    0    0    0    0  0.00000000000E+00  0.00000000000E+00  0.45593999997E+02  0.45594000000E+02  0.51100000000E-03 0.  1.
         11   -1    0    0    0    0 -0.00000000000E+00 -0.00000000000E+00 -0.45593999997E+02  0.45594000000E+02  0.51100000000E-03 0. -1.
         23    2    1    2    0    0  0.00000000000E+00  0.17763568394E-14  0.26645352591E-14  0.91188000000E+02  0.91188000000E+02 0.  0.
    9900012    2    3    3    0    0  0.33492231552E+02  0.15264479707E+02  0.10225696557E+01  0.54367087956E+02  0.40000008614E+02 0.  0.
         12    1    3    3    0    0 -0.33492231552E+02 -0.15264479707E+02 -0.10225696557E+01  0.36820912044E+02  0.00000000000E+00 0. -1.
         11    1    4    4    0    0  0.15895658369E+02  0.11463928952E+02 -0.91077573889E+01  0.21611220857E+02  0.51100000000E-03 0. -1.
        -11    1    4    4    0    0  0.12782528114E+02  0.57453338527E+01  0.18315981176E+02  0.23062459816E+02  0.51100000000E-03 0.  1.
         12    1    4    4    0    0  0.48140450684E+01 -0.19447830972E+01 -0.81856541310E+01  0.96934072837E+01  0.00000000000E+00 0. -1.
</event>
<event>
 8    1  0.2500956E-006  0.9118800E+02  0.7816164E-02  0.1184000E+00
        -11   -1    0    0    0    0  0.00000000000E+00  0.00000000000E+00  0.45593999997E+02  0.45594000000E+02  0.51100000000E-03 0.  1.
         11   -1    0    0    0    0 -0.00000000000E+00 -0.00000000000E+00 -0.45593999997E+02  0.45594000000E+02  0.51100000000E-03 0. -1.
         23    2    1    2    0    0  0.88817841970E-15 -0.35527136788E-14  0.00000000000E+00  0.91188000000E+02  0.91188000000E+02 0.  0.
    9900012    2    3    3    0    0  0.78449574151E+01 -0.16257171448E+02  0.32092658424E+02  0.54367113196E+02  0.40000066153E+02 0.  0.
         12    1    3    3    0    0 -0.78449574151E+01  0.16257171448E+02 -0.32092658424E+02  0.36820886804E+02  0.00000000000E+00 0. -1.
         11    1    4    4    0    0 -0.59896116677E+01 -0.61858923545E+01  0.11563965986E+01  0.86878055633E+01  0.51100000000E-03 0. -1.
        -11    1    4    4    0    0  0.11366361554E+02  0.85833605812E+01  0.17467951534E+02  0.22538801763E+02  0.51100000000E-03 0.  1.
        -12    1    4    4    0    0  0.24682075283E+01 -0.18654639675E+02  0.13468310291E+02  0.23140505870E+02  0.00000000000E+00 0.  1.
</event>
<event>
 8    1  0.2500956E-006  0.9118800E+02  0.7816164E-02  0.1184000E+00
        -11   -1    0    0    0    0  0.00000000000E+00  0.00000000000E+00  0.45593999997E+02  0.45594000000E+02  0.51100000000E-03 0.  1.
         11   -1    0    0    0    0 -0.00000000000E+00 -0.00000000000E+00 -0.45593999997E+02  0.45594000000E+02  0.51100000000E-03 0. -1.
         23    2    1    2    0    0  0.00000000000E+00  0.35527136788E-14  0.77715611724E-15  0.91188000000E+02  0.91188000000E+02 0.  0.
    9900012    2    3    3    0    0 -0.32720682713E+02  0.16875035749E+02  0.60666454545E+00  0.54367109862E+02  0.40000058552E+02 0.  0.
        -12    1    3    3    0    0  0.32720682713E+02 -0.16875035749E+02 -0.60666454545E+00  0.36820890138E+02  0.00000000000E+00 0.  1.
         11    1    4    4    0    0 -0.10693837082E+02  0.52857365831E+01  0.18133837540E+01  0.12065882631E+02  0.51100000000E-03 0. -1.
        -11    1    4    4    0    0 -0.16205057748E+02 -0.47948651041E+01  0.11779038113E+02  0.20599523468E+02  0.51100000000E-03 0.  1.
         12    1    4    4    0    0 -0.58217878825E+01  0.16384164269E+02 -0.12985757322E+02  0.21701703762E+02  0.00000000000E+00 0. -1.
</event>
<event>
 8    1  0.2500956E-006  0.9118800E+02  0.7816164E-02  0.1184000E+00
        -11   -1    0    0    0    0  0.00000000000E+00  0.00000000000E+00  0.45593999997E+02  0.45594000000E+02  0.51100000000E-03 0.  1.
         11   -1    0    0    0    0 -0.00000000000E+00 -0.00000000000E+00 -0.45593999997E+02  0.45594000000E+02  0.51100000000E-03 0. -1.
         23    2    1    2    0    0  0.17763568394E-14  0.88817841970E-15  0.71054273576E-14  0.91188000000E+02  0.91188000000E+02 0.  0.
    9900012    2    3    3    0    0  0.13978392604E+02  0.73181781769E+01  0.33269003975E+02  0.54367111674E+02  0.40000062684E+02 0.  0.
         12    1    3    3    0    0 -0.13978392604E+02 -0.73181781769E+01 -0.33269003975E+02  0.36820888326E+02  0.00000000000E+00 0. -1.
         11    1    4    4    0    0  0.54059074535E+01 -0.10350692592E+02  0.36202596299E+01  0.12225667776E+02  0.51100000000E-03 0. -1.
        -11    1    4    4    0    0 -0.36856713111E+01 -0.12517033195E+01  0.14418418909E+02  0.14934581960E+02  0.51100000000E-03 0.  1.
         12    1    4    4    0    0  0.12258156462E+02  0.18920574088E+02  0.15230325436E+02  0.27206861938E+02  0.00000000000E+00 0. -1.
</event>
<event>
 8    1  0.2500956E-006  0.9118800E+02  0.7816164E-02  0.1184000E+00
        -11   -1    0    0    0    0  0.00000000000E+00  0.00000000000E+00  0.45593999997E+02  0.45594000000E+02  0.51100000000E-03 0.  1.
         11   -1    0    0    0    0 -0.00000000000E+00 -0.00000000000E+00 -0.45593999997E+02  0.45594000000E+02  0.51100000000E-03 0. -1.
         23    2    1    2    0    0 -0.35527136788E-14  0.00000000000E+00 -0.26645352591E-14  0.91188000000E+02  0.91188000000E+02 0.  0.
    9900012    2    3    3    0    0 -0.23687538848E+02  0.27879215658E+02 -0.41748585869E+01  0.54367087374E+02  0.40000007287E+02 0.  0.
        -12    1    3    3    0    0  0.23687538848E+02 -0.27879215658E+02  0.41748585869E+01  0.36820912626E+02  0.00000000000E+00 0.  1.
         11    1    4    4    0    0 -0.13843096100E+02  0.35193705319E+01 -0.64912653563E+01  0.15689289492E+02  0.51100000000E-03 0. -1.
        -11    1    4    4    0    0 -0.12629096269E+02  0.19573601090E+02  0.12976894928E+02  0.26664953299E+02  0.51100000000E-03 0.  1.
        -12    1    4    4    0    0  0.27846535211E+01  0.47862440356E+01 -0.10660488159E+02  0.12012844583E+02  0.00000000000E+00 0.  1.
</event>
<event>
 8    1  0.2500956E-006  0.9118800E+02  0.7816164E-02  0.1184000E+00
        -11   -1    0    0    0    0  0.00000000000E+00  0.00000000000E+00  0.45593999997E+02  0.45594000000E+02  0.51100000000E-03 0. -1.
         11   -1    0    0    0    0 -0.00000000000E+00 -0.00000000000E+00 -0.45593999997E+02  0.45594000000E+02  0.51100000000E-03 0.  1.
         23    2    1    2    0    0 -0.88817841970E-15  0.00000000000E+00  0.00000000000E+00  0.91188000000E+02  0.91188000000E+02 0.  0.
    9900012    2    3    3    0    0  0.74034036495E+01 -0.23151284670E+02 -0.27658363280E+02  0.54367116974E+02  0.40000074765E+02 0.  0.
         12    1    3    3    0    0 -0.74034036495E+01  0.23151284670E+02  0.27658363280E+02  0.36820883026E+02  0.00000000000E+00 0. -1.
         11    1    4    4    0    0 -0.18590352277E+01 -0.17372992793E+02 -0.83988012241E+01  0.19385993728E+02  0.51100000000E-03 0. -1.
        -11    1    4    4    0    0  0.57859166802E+01 -0.65601301020E+01 -0.25958934494E+02  0.27393035960E+02  0.51100000000E-03 0.  1.
         12    1    4    4    0    0  0.34765221970E+01  0.78183822498E+00  0.66993724375E+01  0.75880872855E+01  0.00000000000E+00 0. -1.
</event>
<event>
 8    1  0.2500956E-006  0.9118800E+02  0.7816164E-02  0.1184000E+00
        -11   -1    0    0    0    0  0.00000000000E+00  0.00000000000E+00  0.45593999997E+02  0.45594000000E+02  0.51100000000E-03 0.  1.
         11   -1    0    0    0    0 -0.00000000000E+00 -0.00000000000E+00 -0.45593999997E+02  0.45594000000E+02  0.51100000000E-03 0. -1.
         23    2    1    2    0    0 -0.17763568394E-14  0.35527136788E-14  0.00000000000E+00  0.91188000000E+02  0.91188000000E+02 0.  0.
    9900012    2    3    3    0    0  0.15416355833E+02 -0.25272645509E+02  0.21895450949E+02  0.54367062879E+02  0.39999951446E+02 0.  0.
        -12    1    3    3    0    0 -0.15416355833E+02  0.25272645509E+02 -0.21895450949E+02  0.36820937121E+02  0.00000000000E+00 0.  1.
         11    1    4    4    0    0  0.71732824535E+01 -0.88146285883E+01  0.10775051626E+02  0.15660632047E+02  0.51100000000E-03 0. -1.
        -11    1    4    4    0    0  0.47877703255E+01  0.95675693745E+01  0.46588200187E+01  0.11669007355E+02  0.51100000000E-03 0.  1.
         12    1    4    4    0    0  0.34553030544E+01 -0.26025586295E+02  0.64615793045E+01  0.27037423478E+02  0.00000000000E+00 0. -1.
</event>
<event>
 8    1  0.2500956E-006  0.9118800E+02  0.7816164E-02  0.1184000E+00
        -11   -1    0    0    0    0  0.00000000000E+00  0.00000000000E+00  0.45593999997E+02  0.45594000000E+02  0.51100000000E-03 0.  1.
         11   -1    0    0    0    0 -0.00000000000E+00 -0.00000000000E+00 -0.45593999997E+02  0.45594000000E+02  0.51100000000E-03 0. -1.
         23    2    1    2    0    0 -0.35527136788E-14  0.00000000000E+00 -0.35527136788E-14  0.91188000000E+02  0.91188000000E+02 0.  0.
    9900012    2    3    3    0    0 -0.27142299630E+02  0.17595140063E+02  0.17592174143E+02  0.54367109542E+02  0.40000057824E+02 0.  0.
         12    1    3    3    0    0  0.27142299630E+02 -0.17595140063E+02 -0.17592174143E+02  0.36820890458E+02  0.00000000000E+00 0. -1.
         11    1    4    4    0    0 -0.20668980713E+02 -0.22020792194E+01  0.20807217745E+01  0.20889837720E+02  0.51100000000E-03 0. -1.
        -11    1    4    4    0    0 -0.51950312600E+01  0.19915708031E+02  0.20066227044E+02  0.28745038601E+02  0.51100000000E-03 0.  1.
        -12    1    4    4    0    0 -0.12782876571E+01 -0.11848874848E+00 -0.45547746754E+01  0.47322332214E+01  0.00000000000E+00 0.  1.
</event>
<event>
 8    1  0.2500956E-006  0.9118800E+02  0.7816164E-02  0.1184000E+00
        -11   -1    0    0    0    0  0.00000000000E+00  0.00000000000E+00  0.45593999997E+02  0.45594000000E+02  0.51100000000E-03 0. -1.
         11   -1    0    0    0    0 -0.00000000000E+00 -0.00000000000E+00 -0.45593999997E+02  0.45594000000E+02  0.51100000000E-03 0.  1.
         23    2    1    2    0    0  0.00000000000E+00  0.00000000000E+00  0.00000000000E+00  0.91188000000E+02  0.91188000000E+02 0.  0.
    9900012    2    3    3    0    0  0.11305992029E+02  0.18563913318E+02 -0.29720964719E+02  0.54367080983E+02  0.39999992717E+02 0.  0.
         12    1    3    3    0    0 -0.11305992029E+02 -0.18563913318E+02  0.29720964719E+02  0.36820919017E+02  0.00000000000E+00 0. -1.
         11    1    4    4    0    0  0.62796461433E-02 -0.41878136497E+01 -0.98921579151E+00  0.43030652728E+01  0.51100000000E-03 0. -1.
        -11    1    4    4    0    0  0.18341639669E+02  0.15490331791E+02 -0.53620373690E+01  0.24599137581E+02  0.51100000000E-03 0.  1.
        -12    1    4    4    0    0 -0.70419272857E+01  0.72613951768E+01 -0.23369711558E+02  0.25464878129E+02  0.00000000000E+00 0.  1.
</event>
<event>
 8    1  0.2500956E-006  0.9118800E+02  0.7816164E-02  0.1184000E+00
        -11   -1    0    0    0    0  0.00000000000E+00  0.00000000000E+00  0.45593999997E+02  0.45594000000E+02  0.51100000000E-03 0. -1.
         11   -1    0    0    0    0 -0.00000000000E+00 -0.00000000000E+00 -0.45593999997E+02  0.45594000000E+02  0.51100000000E-03 0.  1.
         23    2    1    2    0    0  0.17763568394E-14 -0.35527136788E-14  0.00000000000E+00  0.91188000000E+02  0.91188000000E+02 0.  0.
    9900012    2    3    3    0    0 -0.89015091434E+01  0.31468959964E+02  0.16919081452E+02  0.54366978512E+02  0.39999759113E+02 0.  0.
        -12    1    3    3    0    0  0.89015091434E+01 -0.31468959964E+02 -0.16919081452E+02  0.36821021488E+02  0.00000000000E+00 0.  1.
         11    1    4    4    0    0  0.77077822804E+01  0.35865246717E+01  0.62635751047E+01  0.10559613641E+02  0.51100000000E-03 0. -1.
        -11    1    4    4    0    0 -0.21416202385E+02  0.95978477390E+01  0.42813705367E+01  0.23855870132E+02  0.51100000000E-03 0.  1.
        -12    1    4    4    0    0  0.48069109612E+01  0.18284587553E+02  0.63741358101E+01  0.19951494739E+02  0.00000000000E+00 0.  1.
</event>
<event>
 8    1  0.2500956E-006  0.9118800E+02  0.7816164E-02  0.1184000E+00
        -11   -1    0    0    0    0  0.00000000000E+00  0.00000000000E+00  0.45593999997E+02  0.45594000000E+02  0.51100000000E-03 0.  1.
         11   -1    0    0    0    0 -0.00000000000E+00 -0.00000000000E+00 -0.45593999997E+02  0.45594000000E+02  0.51100000000E-03 0. -1.
         23    2    1    2    0    0  0.00000000000E+00 -0.44408920985E-15  0.00000000000E+00  0.91188000000E+02  0.91188000000E+02 0.  0.
    9900012    2    3    3    0    0  0.26632592982E+02  0.14701092689E+01 -0.25383536980E+02  0.54367079590E+02  0.39999989542E+02 0.  0.
        -12    1    3    3    0    0 -0.26632592982E+02 -0.14701092689E+01  0.25383536980E+02  0.36820920410E+02  0.00000000000E+00 0.  1.
         11    1    4    4    0    0  0.33867738947E+02  0.32774780424E+01 -0.21263310716E+02  0.40123484228E+02  0.51100000000E-03 0. -1.
        -11    1    4    4    0    0  0.92401402106E+00 -0.46654531944E+01 -0.22517390343E+00  0.47614030461E+01  0.51100000000E-03 0.  1.
         12    1    4    4    0    0 -0.81591599859E+01  0.28580844208E+01 -0.38950523604E+01  0.94821923162E+01  0.00000000000E+00 0. -1.
</event>
<event>
 8    1  0.2500956E-006  0.9118800E+02  0.7816164E-02  0.1184000E+00
        -11   -1    0    0    0    0  0.00000000000E+00  0.00000000000E+00  0.45593999997E+02  0.45594000000E+02  0.51100000000E-03 0. -1.
         11   -1    0    0    0    0 -0.00000000000E+00 -0.00000000000E+00 -0.45593999997E+02  0.45594000000E+02  0.51100000000E-03 0.  1.
         23    2    1    2    0    0  0.00000000000E+00 -0.16653345369E-14  0.00000000000E+00  0.91188000000E+02  0.91188000000E+02 0.  0.
    9900012    2    3    3    0    0 -0.35888273937E+02 -0.74817192303E+00 -0.82007955987E+01  0.54367068238E+02  0.39999963662E+02 0.  0.
         12    1    3    3    0    0  0.35888273937E+02  0.74817192303E+00  0.82007955987E+01  0.36820931762E+02  0.00000000000E+00 0. -1.
         11    1    4    4    0    0 -0.61476853241E+01  0.49563746110E+01  0.10860804918E+02  0.13428207917E+02  0.51100000000E-03 0. -1.
        -11    1    4    4    0    0 -0.27216346629E+02 -0.95281729936E+01 -0.95414671060E+01  0.30373593782E+02  0.51100000000E-03 0.  1.
        -12    1    4    4    0    0 -0.25242419832E+01  0.38236264596E+01 -0.95201334105E+01  0.10565266539E+02  0.00000000000E+00 0.  1.
</event>
<event>
 8    1  0.2500956E-006  0.9118800E+02  0.7816164E-02  0.1184000E+00
        -11   -1    0    0    0    0  0.00000000000E+00  0.00000000000E+00  0.45593999997E+02  0.45594000000E+02  0.51100000000E-03 0. -1.
         11   -1    0    0    0    0 -0.00000000000E+00 -0.00000000000E+00 -0.45593999997E+02  0.45594000000E+02  0.51100000000E-03 0.  1.
         23    2    1    2    0    0  0.00000000000E+00 -0.88817841970E-15  0.00000000000E+00  0.91188000000E+02  0.91188000000E+02 0.  0.
    9900012    2    3    3    0    0 -0.36286538786E+02  0.56507281570E+01  0.26713644025E+01  0.54367084564E+02  0.40000000881E+02 0.  0.
         12    1    3    3    0    0  0.36286538786E+02 -0.56507281570E+01 -0.26713644025E+01  0.36820915436E+02  0.00000000000E+00 0. -1.
         11    1    4    4    0    0 -0.13145307645E+02  0.11673015170E+02 -0.66386924551E+00  0.17592587044E+02  0.51100000000E-03 0. -1.
        -11    1    4    4    0    0 -0.23768507876E+02  0.36948794201E+01 -0.42561156261E+01  0.24427620045E+02  0.51100000000E-03 0.  1.
         12    1    4    4    0    0  0.62727673478E+00 -0.97171664334E+01  0.75913492741E+01  0.12346877476E+02  0.00000000000E+00 0. -1.
</event>
<event>
 8    1  0.2500956E-006  0.9118800E+02  0.7816164E-02  0.1184000E+00
        -11   -1    0    0    0    0  0.00000000000E+00  0.00000000000E+00  0.45593999997E+02  0.45594000000E+02  0.51100000000E-03 0. -1.
         11   -1    0    0    0    0 -0.00000000000E+00 -0.00000000000E+00 -0.45593999997E+02  0.45594000000E+02  0.51100000000E-03 0.  1.
         23    2    1    2    0    0  0.35527136788E-14  0.00000000000E+00  0.00000000000E+00  0.91188000000E+02  0.91188000000E+02 0.  0.
    9900012    2    3    3    0    0  0.25425406557E+02 -0.25678246930E+02  0.70679988435E+01  0.54367078343E+02  0.39999986699E+02 0.  0.
        -12    1    3    3    0    0 -0.25425406557E+02  0.25678246930E+02 -0.70679988435E+01  0.36820921657E+02  0.00000000000E+00 0.  1.
         11    1    4    4    0    0  0.90360264951E+01 -0.52564986179E+01  0.54185470726E+01  0.11774600001E+02  0.51100000000E-03 0. -1.
        -11    1    4    4    0    0  0.51887481928E+01 -0.23425935642E+02  0.12197730611E+02  0.26916207029E+02  0.51100000000E-03 0.  1.
        -12    1    4    4    0    0  0.11200631869E+02  0.30041873302E+01 -0.10548278840E+02  0.15676271313E+02  0.00000000000E+00 0.  1.
</event>
<event>
 8    1  0.2500956E-006  0.9118800E+02  0.7816164E-02  0.1184000E+00
        -11   -1    0    0    0    0  0.00000000000E+00  0.00000000000E+00  0.45593999997E+02  0.45594000000E+02  0.51100000000E-03 0. -1.
         11   -1    0    0    0    0 -0.00000000000E+00 -0.00000000000E+00 -0.45593999997E+02  0.45594000000E+02  0.51100000000E-03 0.  1.
         23    2    1    2    0    0  0.00000000000E+00 -0.35527136788E-14  0.17763568394E-14  0.91188000000E+02  0.91188000000E+02 0.  0.
    9900012    2    3    3    0    0  0.17374921853E+02 -0.28926163653E+02  0.14736663011E+02  0.54367080813E+02  0.39999992329E+02 0.  0.
        -12    1    3    3    0    0 -0.17374921853E+02  0.28926163653E+02 -0.14736663011E+02  0.36820919187E+02  0.00000000000E+00 0.  1.
         11    1    4    4    0    0  0.55430047607E+01 -0.51513690459E+01  0.38708128361E+01  0.84996880588E+01  0.51100000000E-03 0. -1.
        -11    1    4    4    0    0  0.66541874501E+01 -0.25043252501E+02  0.21696329823E+02  0.33796056494E+02  0.51100000000E-03 0.  1.
        -12    1    4    4    0    0  0.51777296426E+01  0.12684578941E+01 -0.10830479649E+02  0.12071336260E+02  0.00000000000E+00 0.  1.
</event>
<event>
 8    1  0.2500956E-006  0.9118800E+02  0.7816164E-02  0.1184000E+00
        -11   -1    0    0    0    0  0.00000000000E+00  0.00000000000E+00  0.45593999997E+02  0.45594000000E+02  0.51100000000E-03 0. -1.
         11   -1    0    0    0    0 -0.00000000000E+00 -0.00000000000E+00 -0.45593999997E+02  0.45594000000E+02  0.51100000000E-03 0.  1.
         23    2    1    2    0    0 -0.35527136788E-14  0.88817841970E-15  0.35527136788E-14  0.91188000000E+02  0.91188000000E+02 0.  0.
    9900012    2    3    3    0    0  0.25849418181E+02  0.52892217213E+01  0.25682907729E+02  0.54367081542E+02  0.39999993990E+02 0.  0.
        -12    1    3    3    0    0 -0.25849418181E+02 -0.52892217213E+01 -0.25682907729E+02  0.36820918458E+02  0.00000000000E+00 0.  1.
         11    1    4    4    0    0  0.38752353305E+00 -0.62739579976E+01  0.24343631168E+01  0.67408343319E+01  0.51100000000E-03 0. -1.
        -11    1    4    4    0    0  0.26650291154E+02 -0.14326051763E+01  0.86738304687E+01  0.28062888509E+02  0.51100000000E-03 0.  1.
        -12    1    4    4    0    0 -0.11883965065E+01  0.12995784895E+02  0.14574714144E+02  0.19563358701E+02  0.00000000000E+00 0.  1.
</event>
<event>
 8    1  0.2500956E-006  0.9118800E+02  0.7816164E-02  0.1184000E+00
        -11   -1    0    0    0    0  0.00000000000E+00  0.00000000000E+00  0.45593999997E+02  0.45594000000E+02  0.51100000000E-03 0. -1.
         11   -1    0    0    0    0 -0.00000000000E+00 -0.00000000000E+00 -0.45593999997E+02  0.45594000000E+02  0.51100000000E-03 0.  1.
         23    2    1    2    0    0 -0.88817841970E-15  0.00000000000E+00 -0.35527136788E-14  0.91188000000E+02  0.91188000000E+02 0.  0.
    9900012    2    3    3    0    0  0.27574149046E+01 -0.20817962226E+02  0.30245463881E+02  0.54367095970E+02  0.40000026882E+02 0.  0.
        -12    1    3    3    0    0 -0.27574149046E+01  0.20817962226E+02 -0.30245463881E+02  0.36820904030E+02  0.00000000000E+00 0.  1.
         11    1    4    4    0    0  0.20098272142E+02 -0.54044846998E+01  0.12263876450E+02  0.24156814024E+02  0.51100000000E-03 0.  1.
        -11    1    4    4    0    0 -0.13940209163E+02 -0.13704837636E+02  0.17737956623E+02  0.26396725395E+02  0.51100000000E-03 0. -1.
         12    1    4    4    0    0 -0.34006480739E+01 -0.17086398901E+01  0.24363080863E+00  0.38135565510E+01  0.00000000000E+00 0. -1.
</event>
<event>
 8    1  0.2500956E-006  0.9118800E+02  0.7816164E-02  0.1184000E+00
        -11   -1    0    0    0    0  0.00000000000E+00  0.00000000000E+00  0.45593999997E+02  0.45594000000E+02  0.51100000000E-03 0. -1.
         11   -1    0    0    0    0 -0.00000000000E+00 -0.00000000000E+00 -0.45593999997E+02  0.45594000000E+02  0.51100000000E-03 0.  1.
         23    2    1    2    0    0  0.00000000000E+00  0.35527136788E-14  0.17763568394E-14  0.91188000000E+02  0.91188000000E+02 0.  0.
    9900012    2    3    3    0    0 -0.32112022144E+02  0.16038500521E+02  0.82076269928E+01  0.54367073803E+02  0.39999976350E+02 0.  0.
        -12    1    3    3    0    0  0.32112022144E+02 -0.16038500521E+02 -0.82076269928E+01  0.36820926197E+02  0.00000000000E+00 0.  1.
         11    1    4    4    0    0 -0.37466572182E+01  0.54733891419E+01 -0.11159889851E+01  0.67261326693E+01  0.51100000000E-03 0. -1.
        -11    1    4    4    0    0 -0.78747493969E+01  0.16806675861E+02 -0.78838981787E+01  0.20165115480E+02  0.51100000000E-03 0.  1.
         12    1    4    4    0    0 -0.20490615529E+02 -0.62415644821E+01  0.17207514157E+02  0.27475825654E+02  0.00000000000E+00 0. -1.
</event>
<event>
 8    1  0.2500956E-006  0.9118800E+02  0.7816164E-02  0.1184000E+00
        -11   -1    0    0    0    0  0.00000000000E+00  0.00000000000E+00  0.45593999997E+02  0.45594000000E+02  0.51100000000E-03 0. -1.
         11   -1    0    0    0    0 -0.00000000000E+00 -0.00000000000E+00 -0.45593999997E+02  0.45594000000E+02  0.51100000000E-03 0.  1.
         23    2    1    2    0    0 -0.35527136788E-14  0.00000000000E+00 -0.35527136788E-14  0.91188000000E+02  0.91188000000E+02 0.  0.
    9900012    2    3    3    0    0 -0.22501563446E+02 -0.97123876878E+00  0.29129286011E+02  0.54367096077E+02  0.40000027126E+02 0.  0.
        -12    1    3    3    0    0  0.22501563446E+02  0.97123876878E+00 -0.29129286011E+02  0.36820903923E+02  0.00000000000E+00 0.  1.
         11    1    4    4    0    0 -0.22889584278E+02 -0.64803350895E+01  0.20783791136E+02  0.31589456873E+02  0.51100000000E-03 0. -1.
        -11    1    4    4    0    0 -0.49567845594E+01  0.65024734359E+01  0.13175024201E+02  0.15505906517E+02  0.51100000000E-03 0.  1.
        -12    1    4    4    0    0  0.53448053913E+01 -0.99337711512E+00 -0.48295293259E+01  0.72717326872E+01  0.00000000000E+00 0.  1.
</event>
<event>
 8    1  0.2500956E-006  0.9118800E+02  0.7816164E-02  0.1184000E+00
        -11   -1    0    0    0    0  0.00000000000E+00  0.00000000000E+00  0.45593999997E+02  0.45594000000E+02  0.51100000000E-03 0.  1.
         11   -1    0    0    0    0 -0.00000000000E+00 -0.00000000000E+00 -0.45593999997E+02  0.45594000000E+02  0.51100000000E-03 0. -1.
         23    2    1    2    0    0 -0.88817841970E-15 -0.17763568394E-14  0.00000000000E+00  0.91188000000E+02  0.91188000000E+02 0.  0.
    9900012    2    3    3    0    0 -0.67092236813E+01 -0.13291495728E+02 -0.33676435607E+02  0.54367083984E+02  0.39999999558E+02 0.  0.
        -12    1    3    3    0    0  0.67092236813E+01  0.13291495728E+02  0.33676435607E+02  0.36820916016E+02  0.00000000000E+00 0.  1.
         11    1    4    4    0    0 -0.62648376739E+01  0.66327703397E+01 -0.27179340436E+02  0.28669816537E+02  0.51100000000E-03 0. -1.
        -11    1    4    4    0    0 -0.62030825136E+01 -0.10483092327E+02  0.11754742938E+01  0.12237450612E+02  0.51100000000E-03 0.  1.
         12    1    4    4    0    0  0.57586965061E+01 -0.94411737403E+01 -0.76725694650E+01  0.13459816835E+02  0.00000000000E+00 0. -1.
</event>
<event>
 8    1  0.2500956E-006  0.9118800E+02  0.7816164E-02  0.1184000E+00
        -11   -1    0    0    0    0  0.00000000000E+00  0.00000000000E+00  0.45593999997E+02  0.45594000000E+02  0.51100000000E-03 0. -1.
         11   -1    0    0    0    0 -0.00000000000E+00 -0.00000000000E+00 -0.45593999997E+02  0.45594000000E+02  0.51100000000E-03 0.  1.
         23    2    1    2    0    0  0.00000000000E+00 -0.77715611724E-15 -0.71054273576E-14  0.91188000000E+02  0.91188000000E+02 0.  0.
    9900012    2    3    3    0    0 -0.16761245521E+02 -0.33830289344E+00 -0.32783011335E+02  0.54367087023E+02  0.40000006485E+02 0.  0.
         12    1    3    3    0    0  0.16761245521E+02  0.33830289344E+00  0.32783011335E+02  0.36820912977E+02  0.00000000000E+00 0. -1.
         11    1    4    4    0    0 -0.11770868620E+02 -0.23525175989E+01 -0.32669311168E+01  0.12440278386E+02  0.51100000000E-03 0. -1.
        -11    1    4    4    0    0 -0.78045583763E+00 -0.11066050998E+02 -0.21433940727E+01  0.11298704989E+02  0.51100000000E-03 0.  1.
        -12    1    4    4    0    0 -0.42099210636E+01  0.13080265704E+02 -0.27372686146E+02  0.30628103648E+02  0.00000000000E+00 0.  1.
</event>
<event>
 8    1  0.2500956E-006  0.9118800E+02  0.7816164E-02  0.1184000E+00
        -11   -1    0    0    0    0  0.00000000000E+00  0.00000000000E+00  0.45593999997E+02  0.45594000000E+02  0.51100000000E-03 0. -1.
         11   -1    0    0    0    0 -0.00000000000E+00 -0.00000000000E+00 -0.45593999997E+02  0.45594000000E+02  0.51100000000E-03 0.  1.
         23    2    1    2    0    0  0.35527136788E-14  0.00000000000E+00  0.17763568394E-14  0.91188000000E+02  0.91188000000E+02 0.  0.
    9900012    2    3    3    0    0  0.23706339635E+02 -0.28036034675E+02 -0.27876800584E+01  0.54367069277E+02  0.39999966031E+02 0.  0.
        -12    1    3    3    0    0 -0.23706339635E+02  0.28036034675E+02  0.27876800584E+01  0.36820930723E+02  0.00000000000E+00 0.  1.
         11    1    4    4    0    0  0.15073501513E+02 -0.21323861880E+02  0.11261747923E+01  0.26137823231E+02  0.51100000000E-03 0. -1.
        -11    1    4    4    0    0  0.87132736707E+01  0.30749439265E+01  0.84082718388E+01  0.12493016201E+02  0.51100000000E-03 0.  1.
        -12    1    4    4    0    0 -0.80435548735E-01 -0.97871167219E+01 -0.12322126689E+02  0.15736229846E+02  0.00000000000E+00 0.  1.
</event>
<event>
 8    1  0.2500956E-006  0.9118800E+02  0.7816164E-02  0.1184000E+00
        -11   -1    0    0    0    0  0.00000000000E+00  0.00000000000E+00  0.45593999997E+02  0.45594000000E+02  0.51100000000E-03 0. -1.
         11   -1    0    0    0    0 -0.00000000000E+00 -0.00000000000E+00 -0.45593999997E+02  0.45594000000E+02  0.51100000000E-03 0.  1.
         23    2    1    2    0    0  0.00000000000E+00  0.00000000000E+00  0.35527136788E-14  0.91188000000E+02  0.91188000000E+02 0.  0.
    9900012    2    3    3    0    0  0.10073920491E+02 -0.26540800271E+02  0.23449569616E+02  0.54367078389E+02  0.39999986803E+02 0.  0.
        -12    1    3    3    0    0 -0.10073920491E+02  0.26540800271E+02 -0.23449569616E+02  0.36820921611E+02  0.00000000000E+00 0.  1.
         11    1    4    4    0    0  0.14276052952E+02 -0.10780625240E+02  0.50948428553E+01  0.18600671827E+02  0.51100000000E-03 0. -1.
        -11    1    4    4    0    0  0.10834028574E+02 -0.77646615954E+01  0.54537225711E+01  0.14401709446E+02  0.51100000000E-03 0.  1.
        -12    1    4    4    0    0 -0.15036161034E+02 -0.79955134360E+01  0.12901004189E+02  0.21364697116E+02  0.00000000000E+00 0.  1.
</event>
<event>
 8    1  0.2500956E-006  0.9118800E+02  0.7816164E-02  0.1184000E+00
        -11   -1    0    0    0    0  0.00000000000E+00  0.00000000000E+00  0.45593999997E+02  0.45594000000E+02  0.51100000000E-03 0.  1.
         11   -1    0    0    0    0 -0.00000000000E+00 -0.00000000000E+00 -0.45593999997E+02  0.45594000000E+02  0.51100000000E-03 0. -1.
         23    2    1    2    0    0 -0.35527136788E-14  0.17763568394E-14  0.35527136788E-14  0.91188000000E+02  0.91188000000E+02 0.  0.
    9900012    2    3    3    0    0  0.23914021309E+02  0.28137311195E+01 -0.27856495456E+02  0.54367057086E+02  0.39999938239E+02 0.  0.
        -12    1    3    3    0    0 -0.23914021309E+02 -0.28137311195E+01  0.27856495456E+02  0.36820942914E+02  0.00000000000E+00 0.  1.
         11    1    4    4    0    0  0.11200303576E+02  0.16937047459E+01 -0.73412692025E+00  0.11351404255E+02  0.51100000000E-03 0. -1.
        -11    1    4    4    0    0  0.13548042253E+02  0.12960642750E+02 -0.77324625933E+01  0.20280993255E+02  0.51100000000E-03 0.  1.
        -12    1    4    4    0    0 -0.83432452001E+00 -0.11840616377E+02 -0.19389905942E+02  0.22734659576E+02  0.00000000000E+00 0.  1.
</event>
<event>
 8    1  0.2500956E-006  0.9118800E+02  0.7816164E-02  0.1184000E+00
        -11   -1    0    0    0    0  0.00000000000E+00  0.00000000000E+00  0.45593999997E+02  0.45594000000E+02  0.51100000000E-03 0.  1.
         11   -1    0    0    0    0 -0.00000000000E+00 -0.00000000000E+00 -0.45593999997E+02  0.45594000000E+02  0.51100000000E-03 0. -1.
         23    2    1    2    0    0  0.88817841970E-15  0.00000000000E+00  0.71054273576E-14  0.91188000000E+02  0.91188000000E+02 0.  0.
    9900012    2    3    3    0    0  0.42474631580E+01 -0.14937217628E+02  0.33385936929E+02  0.54367052179E+02  0.39999927053E+02 0.  0.
         12    1    3    3    0    0 -0.42474631580E+01  0.14937217628E+02 -0.33385936929E+02  0.36820947821E+02  0.00000000000E+00 0. -1.
         11    1    4    4    0    0 -0.94533045190E+01  0.13951898971E+01  0.40315305838E+01  0.10371343225E+02  0.51100000000E-03 0. -1.
        -11    1    4    4    0    0 -0.23666934458E+01 -0.47018086642E+01  0.22347841888E+02  0.22959405042E+02  0.51100000000E-03 0.  1.
         12    1    4    4    0    0  0.16067461123E+02 -0.11630598861E+02  0.70065644577E+01  0.21036303912E+02  0.00000000000E+00 0. -1.
</event>
<event>
 8    1  0.2500956E-006  0.9118800E+02  0.7816164E-02  0.1184000E+00
        -11   -1    0    0    0    0  0.00000000000E+00  0.00000000000E+00  0.45593999997E+02  0.45594000000E+02  0.51100000000E-03 0.  1.
         11   -1    0    0    0    0 -0.00000000000E+00 -0.00000000000E+00 -0.45593999997E+02  0.45594000000E+02  0.51100000000E-03 0. -1.
         23    2    1    2    0    0 -0.35527136788E-14  0.00000000000E+00  0.44408920985E-15  0.91188000000E+02  0.91188000000E+02 0.  0.
    9900012    2    3    3    0    0 -0.31122586841E+02  0.19334089266E+02  0.36548276368E+01  0.54367079527E+02  0.39999989398E+02 0.  0.
         12    1    3    3    0    0  0.31122586841E+02 -0.19334089266E+02 -0.36548276368E+01  0.36820920473E+02  0.00000000000E+00 0. -1.
         11    1    4    4    0    0  0.31917317792E+01 -0.27674451522E+01 -0.77733323267E+01  0.88470673188E+01  0.51100000000E-03 0. -1.
        -11    1    4    4    0    0 -0.26425665819E+01  0.94154197030E+01  0.92978830448E+00  0.98233290118E+01  0.51100000000E-03 0.  1.
        -12    1    4    4    0    0 -0.31671752038E+02  0.12686114715E+02  0.10498371659E+02  0.35696683197E+02  0.00000000000E+00 0.  1.
</event>
<event>
 8    1  0.2500956E-006  0.9118800E+02  0.7816164E-02  0.1184000E+00
        -11   -1    0    0    0    0  0.00000000000E+00  0.00000000000E+00  0.45593999997E+02  0.45594000000E+02  0.51100000000E-03 0.  1.
         11   -1    0    0    0    0 -0.00000000000E+00 -0.00000000000E+00 -0.45593999997E+02  0.45594000000E+02  0.51100000000E-03 0. -1.
         23    2    1    2    0    0 -0.22204460493E-15  0.00000000000E+00  0.70776717820E-15  0.91188000000E+02  0.91188000000E+02 0.  0.
    9900012    2    3    3    0    0  0.12247367739E+01  0.36800487749E+02  0.63184155582E-01  0.54367083784E+02  0.39999999102E+02 0.  0.
        -12    1    3    3    0    0 -0.12247367739E+01 -0.36800487749E+02 -0.63184155582E-01  0.36820916216E+02  0.00000000000E+00 0.  1.
         11    1    4    4    0    0  0.52023933032E+01 -0.27854512767E+01  0.52530139553E+01  0.79004930714E+01  0.51100000000E-03 0. -1.
        -11    1    4    4    0    0  0.47102650521E+01  0.18118412041E+01 -0.58171323301E+01  0.77011943370E+01  0.51100000000E-03 0.  1.
        -12    1    4    4    0    0 -0.86879215814E+01  0.37774097822E+02  0.62730253037E+00  0.38765396375E+02  0.00000000000E+00 0.  1.
</event>
<event>
 8    1  0.2500956E-006  0.9118800E+02  0.7816164E-02  0.1184000E+00
        -11   -1    0    0    0    0  0.00000000000E+00  0.00000000000E+00  0.45593999997E+02  0.45594000000E+02  0.51100000000E-03 0.  1.
         11   -1    0    0    0    0 -0.00000000000E+00 -0.00000000000E+00 -0.45593999997E+02  0.45594000000E+02  0.51100000000E-03 0. -1.
         23    2    1    2    0    0 -0.35527136788E-14 -0.88817841970E-15 -0.35527136788E-14  0.91188000000E+02  0.91188000000E+02 0.  0.
    9900012    2    3    3    0    0 -0.24210916771E+02 -0.63474180638E+01  0.27005998098E+02  0.54367052969E+02  0.39999928854E+02 0.  0.
        -12    1    3    3    0    0  0.24210916771E+02  0.63474180638E+01 -0.27005998098E+02  0.36820947031E+02  0.00000000000E+00 0.  1.
         11    1    4    4    0    0 -0.17023762193E+02  0.45281680154E+01 -0.32157218832E+01  0.17906804636E+02  0.51100000000E-03 0. -1.
        -11    1    4    4    0    0  0.45418317878E+01 -0.14222784071E+01  0.39895880520E+01  0.62103079587E+01  0.51100000000E-03 0.  1.
        -12    1    4    4    0    0 -0.11728986366E+02 -0.94533076721E+01  0.26232131929E+02  0.30249940374E+02  0.00000000000E+00 0.  1.
</event>
<event>
 8    1  0.2500956E-006  0.9118800E+02  0.7816164E-02  0.1184000E+00
        -11   -1    0    0    0    0  0.00000000000E+00  0.00000000000E+00  0.45593999997E+02  0.45594000000E+02  0.51100000000E-03 0. -1.
         11   -1    0    0    0    0 -0.00000000000E+00 -0.00000000000E+00 -0.45593999997E+02  0.45594000000E+02  0.51100000000E-03 0.  1.
         23    2    1    2    0    0 -0.71054273576E-14  0.00000000000E+00 -0.35527136788E-14  0.91188000000E+02  0.91188000000E+02 0.  0.
    9900012    2    3    3    0    0 -0.26290995811E+02  0.30737219455E+01 -0.25595191521E+02  0.54367108426E+02  0.40000055278E+02 0.  0.
        -12    1    3    3    0    0  0.26290995811E+02 -0.30737219455E+01  0.25595191521E+02  0.36820891574E+02  0.00000000000E+00 0.  1.
         11    1    4    4    0    0 -0.31373691165E+01 -0.11327519739E+01 -0.92115033837E+01  0.97968365739E+01  0.51100000000E-03 0. -1.
        -11    1    4    4    0    0 -0.52196452787E+01 -0.99548036440E+01 -0.18472993173E+02  0.21623928631E+02  0.51100000000E-03 0.  1.
         12    1    4    4    0    0 -0.17933981416E+02  0.14161277563E+02  0.20893050360E+01  0.22946343220E+02  0.00000000000E+00 0. -1.
</event>
<event>
 8    1  0.2500956E-006  0.9118800E+02  0.7816164E-02  0.1184000E+00
        -11   -1    0    0    0    0  0.00000000000E+00  0.00000000000E+00  0.45593999997E+02  0.45594000000E+02  0.51100000000E-03 0.  1.
         11   -1    0    0    0    0 -0.00000000000E+00 -0.00000000000E+00 -0.45593999997E+02  0.45594000000E+02  0.51100000000E-03 0. -1.
         23    2    1    2    0    0  0.00000000000E+00  0.17763568394E-14  0.00000000000E+00  0.91188000000E+02  0.91188000000E+02 0.  0.
    9900012    2    3    3    0    0 -0.96904720795E+01 -0.54619379975E+01  0.35100437176E+02  0.54367099607E+02  0.40000035174E+02 0.  0.
         12    1    3    3    0    0  0.96904720795E+01  0.54619379975E+01 -0.35100437176E+02  0.36820900393E+02  0.00000000000E+00 0. -1.
         11    1    4    4    0    0 -0.23730151620E+01 -0.58189930334E+00 -0.41205411793E+01  0.47904767644E+01  0.51100000000E-03 0. -1.
        -11    1    4    4    0    0 -0.15673912358E+02 -0.80038459523E+01  0.36035908584E+02  0.40103862487E+02  0.51100000000E-03 0.  1.
         12    1    4    4    0    0  0.83564554400E+01  0.31238072581E+01  0.31850697711E+01  0.94727603556E+01  0.00000000000E+00 0. -1.
</event>
<event>
 8    1  0.2500956E-006  0.9118800E+02  0.7816164E-02  0.1184000E+00
        -11   -1    0    0    0    0  0.00000000000E+00  0.00000000000E+00  0.45593999997E+02  0.45594000000E+02  0.51100000000E-03 0. -1.
         11   -1    0    0    0    0 -0.00000000000E+00 -0.00000000000E+00 -0.45593999997E+02  0.45594000000E+02  0.51100000000E-03 0.  1.
         23    2    1    2    0    0  0.35527136788E-14  0.35527136788E-14 -0.35527136788E-14  0.91188000000E+02  0.91188000000E+02 0.  0.
    9900012    2    3    3    0    0  0.18703267787E+02 -0.20855939481E+02 -0.23895563579E+02  0.54367076650E+02  0.39999982840E+02 0.  0.
         12    1    3    3    0    0 -0.18703267787E+02  0.20855939481E+02  0.23895563579E+02  0.36820923350E+02  0.00000000000E+00 0. -1.
         11    1    4    4    0    0  0.11282238877E+02  0.10402818217E+02 -0.21356669404E+01  0.15494147749E+02  0.51100000000E-03 0. -1.
        -11    1    4    4    0    0  0.47614571028E+01 -0.19776679521E+02 -0.15115480830E+02  0.25342973141E+02  0.51100000000E-03 0.  1.
         12    1    4    4    0    0  0.26595718081E+01 -0.11482078177E+02 -0.66444158078E+01  0.13529955761E+02  0.00000000000E+00 0. -1.
</event>
<event>
 8    1  0.2500956E-006  0.9118800E+02  0.7816164E-02  0.1184000E+00
        -11   -1    0    0    0    0  0.00000000000E+00  0.00000000000E+00  0.45593999997E+02  0.45594000000E+02  0.51100000000E-03 0.  1.
         11   -1    0    0    0    0 -0.00000000000E+00 -0.00000000000E+00 -0.45593999997E+02  0.45594000000E+02  0.51100000000E-03 0. -1.
         23    2    1    2    0    0  0.35527136788E-14  0.00000000000E+00  0.71054273576E-14  0.91188000000E+02  0.91188000000E+02 0.  0.
    9900012    2    3    3    0    0  0.16221827076E+02 -0.34594812642E+00  0.33053184011E+02  0.54367077591E+02  0.39999984984E+02 0.  0.
         12    1    3    3    0    0 -0.16221827076E+02  0.34594812642E+00 -0.33053184011E+02  0.36820922409E+02  0.00000000000E+00 0. -1.
         11    1    4    4    0    0 -0.23545502660E+01  0.14556498148E+01 -0.91162677376E+00  0.29144273836E+01  0.51100000000E-03 0. -1.
        -11    1    4    4    0    0  0.12020185578E+02 -0.17177119696E+02  0.13112828578E+02  0.24728214168E+02  0.51100000000E-03 0.  1.
         12    1    4    4    0    0  0.65561917639E+01  0.15375521754E+02  0.20851982206E+02  0.26724436039E+02  0.00000000000E+00 0. -1.
</event>
<event>
 8    1  0.2500956E-006  0.9118800E+02  0.7816164E-02  0.1184000E+00
        -11   -1    0    0    0    0  0.00000000000E+00  0.00000000000E+00  0.45593999997E+02  0.45594000000E+02  0.51100000000E-03 0.  1.
         11   -1    0    0    0    0 -0.00000000000E+00 -0.00000000000E+00 -0.45593999997E+02  0.45594000000E+02  0.51100000000E-03 0. -1.
         23    2    1    2    0    0  0.97144514655E-15 -0.13322676296E-14  0.00000000000E+00  0.91188000000E+02  0.91188000000E+02 0.  0.
    9900012    2    3    3    0    0  0.17415920273E+00 -0.35227314215E+01  0.36651608224E+02  0.54367077232E+02  0.39999984165E+02 0.  0.
         12    1    3    3    0    0 -0.17415920273E+00  0.35227314215E+01 -0.36651608224E+02  0.36820922768E+02  0.00000000000E+00 0. -1.
         11    1    4    4    0    0  0.16990478560E+02  0.66789695615E+01  0.11747613011E+02  0.21709247058E+02  0.51100000000E-03 0.  1.
        -11    1    4    4    0    0 -0.14543264614E+02 -0.11386430080E+02  0.20781161442E+02  0.27803129442E+02  0.51100000000E-03 0. -1.
        -12    1    4    4    0    0 -0.22730547430E+01  0.11847290969E+01  0.41228337705E+01  0.48547007319E+01  0.00000000000E+00 0.  1.
</event>
<event>
 8    1  0.2500956E-006  0.9118800E+02  0.7816164E-02  0.1184000E+00
        -11   -1    0    0    0    0  0.00000000000E+00  0.00000000000E+00  0.45593999997E+02  0.45594000000E+02  0.51100000000E-03 0. -1.
         11   -1    0    0    0    0 -0.00000000000E+00 -0.00000000000E+00 -0.45593999997E+02  0.45594000000E+02  0.51100000000E-03 0.  1.
         23    2    1    2    0    0  0.17763568394E-14  0.17763568394E-14  0.00000000000E+00  0.91188000000E+02  0.91188000000E+02 0.  0.
    9900012    2    3    3    0    0  0.90353005291E+01  0.15014531006E+02 -0.32383741187E+02  0.54367088954E+02  0.40000010887E+02 0.  0.
         12    1    3    3    0    0 -0.90353005291E+01 -0.15014531006E+02  0.32383741187E+02  0.36820911046E+02  0.00000000000E+00 0. -1.
         11    1    4    4    0    0  0.15745604403E+01 -0.59611303358E+01 -0.15013371211E+02  0.16230084129E+02  0.51100000000E-03 0. -1.
        -11    1    4    4    0    0 -0.50521909775E+00 -0.48577184398E+01  0.15682847616E+01  0.51295411229E+01  0.51100000000E-03 0.  1.
        -12    1    4    4    0    0  0.79659591865E+01  0.25833379782E+02 -0.18938654738E+02  0.33007463702E+02  0.00000000000E+00 0.  1.
</event>
<event>
 8    1  0.2500956E-006  0.9118800E+02  0.7816164E-02  0.1184000E+00
        -11   -1    0    0    0    0  0.00000000000E+00  0.00000000000E+00  0.45593999997E+02  0.45594000000E+02  0.51100000000E-03 0.  1.
         11   -1    0    0    0    0 -0.00000000000E+00 -0.00000000000E+00 -0.45593999997E+02  0.45594000000E+02  0.51100000000E-03 0. -1.
         23    2    1    2    0    0  0.00000000000E+00  0.00000000000E+00  0.00000000000E+00  0.91188000000E+02  0.91188000000E+02 0.  0.
    9900012    2    3    3    0    0 -0.12277064647E+02 -0.11985029559E+02  0.32579349267E+02  0.54367065078E+02  0.39999956459E+02 0.  0.
         12    1    3    3    0    0  0.12277064647E+02  0.11985029559E+02 -0.32579349267E+02  0.36820934922E+02  0.00000000000E+00 0. -1.
         11    1    4    4    0    0 -0.66069653611E+01 -0.58501421890E+00  0.12665930411E+00  0.66340241000E+01  0.51100000000E-03 0. -1.
        -11    1    4    4    0    0 -0.18446580685E+02 -0.44577492853E+01  0.25019273625E+02  0.31402419025E+02  0.51100000000E-03 0.  1.
         12    1    4    4    0    0  0.12776481399E+02 -0.69422660549E+01  0.74334163376E+01  0.16330621953E+02  0.00000000000E+00 0. -1.
</event>
<event>
 8    1  0.2500956E-006  0.9118800E+02  0.7816164E-02  0.1184000E+00
        -11   -1    0    0    0    0  0.00000000000E+00  0.00000000000E+00  0.45593999997E+02  0.45594000000E+02  0.51100000000E-03 0. -1.
         11   -1    0    0    0    0 -0.00000000000E+00 -0.00000000000E+00 -0.45593999997E+02  0.45594000000E+02  0.51100000000E-03 0.  1.
         23    2    1    2    0    0  0.00000000000E+00  0.00000000000E+00  0.00000000000E+00  0.91188000000E+02  0.91188000000E+02 0.  0.
    9900012    2    3    3    0    0  0.10983478431E+01 -0.27484208942E+02 -0.24478405401E+02  0.54367076055E+02  0.39999981484E+02 0.  0.
         12    1    3    3    0    0 -0.10983478431E+01  0.27484208942E+02  0.24478405401E+02  0.36820923945E+02  0.00000000000E+00 0. -1.
         11    1    4    4    0    0  0.12665201193E+02 -0.19574330295E+01  0.39187528259E+01  0.13401324162E+02  0.51100000000E-03 0. -1.
        -11    1    4    4    0    0 -0.38098566180E+00 -0.37964463590E+01 -0.89601549278E+01  0.97387130372E+01  0.51100000000E-03 0.  1.
         12    1    4    4    0    0 -0.11185867689E+02 -0.21730329554E+02 -0.19437003299E+02  0.31227038856E+02  0.00000000000E+00 0. -1.
</event>
<event>
 8    1  0.2500956E-006  0.9118800E+02  0.7816164E-02  0.1184000E+00
        -11   -1    0    0    0    0  0.00000000000E+00  0.00000000000E+00  0.45593999997E+02  0.45594000000E+02  0.51100000000E-03 0. -1.
         11   -1    0    0    0    0 -0.00000000000E+00 -0.00000000000E+00 -0.45593999997E+02  0.45594000000E+02  0.51100000000E-03 0.  1.
         23    2    1    2    0    0  0.00000000000E+00  0.44408920985E-15  0.00000000000E+00  0.91188000000E+02  0.91188000000E+02 0.  0.
    9900012    2    3    3    0    0 -0.85456166001E+01 -0.26559815137E+01 -0.35716929054E+02  0.54367070871E+02  0.39999969665E+02 0.  0.
         12    1    3    3    0    0  0.85456166001E+01  0.26559815137E+01  0.35716929054E+02  0.36820929129E+02  0.00000000000E+00 0. -1.
         11    1    4    4    0    0 -0.42066133346E+01 -0.14587795303E+02 -0.48627488821E+00  0.15189991148E+02  0.51100000000E-03 0. -1.
        -11    1    4    4    0    0  0.25259350901E+00  0.45934264850E+01 -0.26449144651E+02  0.26846240396E+02  0.51100000000E-03 0.  1.
        -12    1    4    4    0    0 -0.45915967746E+01  0.73383873042E+01 -0.87815095146E+01  0.12330839328E+02  0.00000000000E+00 0.  1.
</event>
<event>
 8    1  0.2500956E-006  0.9118800E+02  0.7816164E-02  0.1184000E+00
        -11   -1    0    0    0    0  0.00000000000E+00  0.00000000000E+00  0.45593999997E+02  0.45594000000E+02  0.51100000000E-03 0.  1.
         11   -1    0    0    0    0 -0.00000000000E+00 -0.00000000000E+00 -0.45593999997E+02  0.45594000000E+02  0.51100000000E-03 0. -1.
         23    2    1    2    0    0  0.00000000000E+00 -0.27755575616E-16  0.00000000000E+00  0.91188000000E+02  0.91188000000E+02 0.  0.
    9900012    2    3    3    0    0  0.21981356211E+02 -0.14889512792E+00  0.29539422331E+02  0.54367086618E+02  0.40000005563E+02 0.  0.
         12    1    3    3    0    0 -0.21981356211E+02  0.14889512792E+00 -0.29539422331E+02  0.36820913382E+02  0.00000000000E+00 0. -1.
         11    1    4    4    0    0  0.12922059121E+02 -0.10590066445E+02  0.58333632216E+01  0.17696249489E+02  0.51100000000E-03 0. -1.
        -11    1    4    4    0    0 -0.27902797389E+00  0.17274790177E+01  0.23833704918E+02  0.23897856195E+02  0.51100000000E-03 0.  1.
        -12    1    4    4    0    0  0.93383250644E+01  0.87136922994E+01 -0.12764580825E+00  0.12772980934E+02  0.00000000000E+00 0.  1.
</event>
<event>
 8    1  0.2500956E-006  0.9118800E+02  0.7816164E-02  0.1184000E+00
        -11   -1    0    0    0    0  0.00000000000E+00  0.00000000000E+00  0.45593999997E+02  0.45594000000E+02  0.51100000000E-03 0. -1.
         11   -1    0    0    0    0 -0.00000000000E+00 -0.00000000000E+00 -0.45593999997E+02  0.45594000000E+02  0.51100000000E-03 0.  1.
         23    2    1    2    0    0  0.00000000000E+00  0.35527136788E-14 -0.17763568394E-14  0.91188000000E+02  0.91188000000E+02 0.  0.
    9900012    2    3    3    0    0 -0.19944351257E+02  0.29295402055E+02 -0.99890742531E+01  0.54367091088E+02  0.40000015753E+02 0.  0.
         12    1    3    3    0    0  0.19944351257E+02 -0.29295402055E+02  0.99890742531E+01  0.36820908912E+02  0.00000000000E+00 0. -1.
         11    1    4    4    0    0 -0.58002643656E+00  0.73660779864E+01  0.62055902813E+01  0.96490873439E+01  0.51100000000E-03 0. -1.
        -11    1    4    4    0    0 -0.14608734140E+00  0.14633847457E+02  0.47352332981E+01  0.15381588590E+02  0.51100000000E-03 0.  1.
        -12    1    4    4    0    0 -0.19218237480E+02  0.72954766118E+01 -0.20929897832E+02  0.29336415154E+02  0.00000000000E+00 0.  1.
</event>
<event>
 8    1  0.2500956E-006  0.9118800E+02  0.7816164E-02  0.1184000E+00
        -11   -1    0    0    0    0  0.00000000000E+00  0.00000000000E+00  0.45593999997E+02  0.45594000000E+02  0.51100000000E-03 0.  1.
         11   -1    0    0    0    0 -0.00000000000E+00 -0.00000000000E+00 -0.45593999997E+02  0.45594000000E+02  0.51100000000E-03 0. -1.
         23    2    1    2    0    0  0.00000000000E+00 -0.17763568394E-14  0.00000000000E+00  0.91188000000E+02  0.91188000000E+02 0.  0.
    9900012    2    3    3    0    0 -0.13444388225E+02  0.13197829760E+02  0.31636176551E+02  0.54367055527E+02  0.39999934685E+02 0.  0.
         12    1    3    3    0    0  0.13444388225E+02 -0.13197829760E+02 -0.31636176551E+02  0.36820944473E+02  0.00000000000E+00 0. -1.
         11    1    4    4    0    0 -0.13683628442E+02 -0.88985061406E+01  0.23592935267E+02  0.28688877525E+02  0.51100000000E-03 0. -1.
        -11    1    4    4    0    0 -0.38503382664E+01  0.17331994824E+02  0.78063136228E+01  0.19394888037E+02  0.51100000000E-03 0.  1.
         12    1    4    4    0    0  0.40895784832E+01  0.47643410772E+01  0.23692766140E+00  0.62832899652E+01  0.00000000000E+00 0. -1.
</event>
<event>
 8    1  0.2500956E-006  0.9118800E+02  0.7816164E-02  0.1184000E+00
        -11   -1    0    0    0    0  0.00000000000E+00  0.00000000000E+00  0.45593999997E+02  0.45594000000E+02  0.51100000000E-03 0. -1.
         11   -1    0    0    0    0 -0.00000000000E+00 -0.00000000000E+00 -0.45593999997E+02  0.45594000000E+02  0.51100000000E-03 0.  1.
         23    2    1    2    0    0  0.00000000000E+00  0.11102230246E-14 -0.35527136788E-14  0.91188000000E+02  0.91188000000E+02 0.  0.
    9900012    2    3    3    0    0 -0.21490444609E+02 -0.10498215224E+01 -0.29880392882E+02  0.54367092712E+02  0.40000019455E+02 0.  0.
         12    1    3    3    0    0  0.21490444609E+02  0.10498215224E+01  0.29880392882E+02  0.36820907288E+02  0.00000000000E+00 0. -1.
         11    1    4    4    0    0 -0.91122001199E+01  0.17193576744E+02 -0.58207831493E+01  0.20310903205E+02  0.51100000000E-03 0. -1.
        -11    1    4    4    0    0 -0.81099613546E+01 -0.10284133299E+02 -0.72397022716E+01  0.14964897598E+02  0.51100000000E-03 0.  1.
        -12    1    4    4    0    0 -0.42682831345E+01 -0.79592649671E+01 -0.16819907461E+02  0.19091291909E+02  0.00000000000E+00 0.  1.
</event>
<event>
 8    1  0.2500956E-006  0.9118800E+02  0.7816164E-02  0.1184000E+00
        -11   -1    0    0    0    0  0.00000000000E+00  0.00000000000E+00  0.45593999997E+02  0.45594000000E+02  0.51100000000E-03 0. -1.
         11   -1    0    0    0    0 -0.00000000000E+00 -0.00000000000E+00 -0.45593999997E+02  0.45594000000E+02  0.51100000000E-03 0.  1.
         23    2    1    2    0    0  0.00000000000E+00  0.17763568394E-14  0.71054273576E-14  0.91188000000E+02  0.91188000000E+02 0.  0.
    9900012    2    3    3    0    0  0.91040531617E+01  0.10921578203E+02  0.33965099485E+02  0.54366910426E+02  0.39999603895E+02 0.  0.
        -12    1    3    3    0    0 -0.91040531617E+01 -0.10921578203E+02 -0.33965099485E+02  0.36821089574E+02  0.00000000000E+00 0.  1.
         11    1    4    4    0    0  0.16901462669E+02 -0.75197682165E+01  0.12965042900E+02  0.22589791766E+02  0.51100000000E-03 0. -1.
        -11    1    4    4    0    0 -0.61579367610E+01  0.20384611229E+02  0.18436731464E+02  0.28166746839E+02  0.51100000000E-03 0.  1.
         12    1    4    4    0    0 -0.16394727466E+01 -0.19432648098E+01  0.25633251207E+01  0.36103718205E+01  0.00000000000E+00 0. -1.
</event>
<event>
 8    1  0.2500956E-006  0.9118800E+02  0.7816164E-02  0.1184000E+00
        -11   -1    0    0    0    0  0.00000000000E+00  0.00000000000E+00  0.45593999997E+02  0.45594000000E+02  0.51100000000E-03 0.  1.
         11   -1    0    0    0    0 -0.00000000000E+00 -0.00000000000E+00 -0.45593999997E+02  0.45594000000E+02  0.51100000000E-03 0. -1.
         23    2    1    2    0    0  0.00000000000E+00 -0.17763568394E-14  0.00000000000E+00  0.91188000000E+02  0.91188000000E+02 0.  0.
    9900012    2    3    3    0    0  0.23663595503E+01  0.13220688595E+02  0.34284028655E+02  0.54367070011E+02  0.39999967704E+02 0.  0.
         12    1    3    3    0    0 -0.23663595503E+01 -0.13220688595E+02 -0.34284028655E+02  0.36820929989E+02  0.00000000000E+00 0. -1.
         11    1    4    4    0    0 -0.37459098955E+00 -0.59490844312E+01  0.20936088522E+01  0.63178415829E+01  0.51100000000E-03 0. -1.
        -11    1    4    4    0    0 -0.59097829549E+01  0.71977517308E+01  0.31947055449E+02  0.33276831530E+02  0.51100000000E-03 0.  1.
        -12    1    4    4    0    0  0.86507334947E+01  0.11972021296E+02  0.24336435318E+00  0.14772396898E+02  0.00000000000E+00 0.  1.
</event>
<event>
 8    1  0.2500956E-006  0.9118800E+02  0.7816164E-02  0.1184000E+00
        -11   -1    0    0    0    0  0.00000000000E+00  0.00000000000E+00  0.45593999997E+02  0.45594000000E+02  0.51100000000E-03 0.  1.
         11   -1    0    0    0    0 -0.00000000000E+00 -0.00000000000E+00 -0.45593999997E+02  0.45594000000E+02  0.51100000000E-03 0. -1.
         23    2    1    2    0    0  0.00000000000E+00  0.17763568394E-14 -0.35527136788E-14  0.91188000000E+02  0.91188000000E+02 0.  0.
    9900012    2    3    3    0    0 -0.22886119057E+02 -0.68034141041E+01 -0.28030676862E+02  0.54367085640E+02  0.40000003334E+02 0.  0.
        -12    1    3    3    0    0  0.22886119057E+02  0.68034141041E+01  0.28030676862E+02  0.36820914360E+02  0.00000000000E+00 0.  1.
         11    1    4    4    0    0 -0.68697242063E+01  0.65569365120E+01  0.50184005912E-01  0.94967913418E+01  0.51100000000E-03 0.  1.
        -11    1    4    4    0    0 -0.15065238307E+02 -0.14171963558E+02 -0.43871685555E+01  0.21143632718E+02  0.51100000000E-03 0. -1.
         12    1    4    4    0    0 -0.95115654346E+00  0.81161294141E+00 -0.23693692312E+02  0.23726661580E+02  0.00000000000E+00 0. -1.
</event>
<event>
 8    1  0.2500956E-006  0.9118800E+02  0.7816164E-02  0.1184000E+00
        -11   -1    0    0    0    0  0.00000000000E+00  0.00000000000E+00  0.45593999997E+02  0.45594000000E+02  0.51100000000E-03 0. -1.
         11   -1    0    0    0    0 -0.00000000000E+00 -0.00000000000E+00 -0.45593999997E+02  0.45594000000E+02  0.51100000000E-03 0.  1.
         23    2    1    2    0    0  0.00000000000E+00  0.00000000000E+00  0.00000000000E+00  0.91188000000E+02  0.91188000000E+02 0.  0.
    9900012    2    3    3    0    0 -0.85092799652E+01 -0.67708715948E+01 -0.35178500761E+02  0.54367089318E+02  0.40000011718E+02 0.  0.
         12    1    3    3    0    0  0.85092799652E+01  0.67708715948E+01  0.35178500761E+02  0.36820910682E+02  0.00000000000E+00 0. -1.
         11    1    4    4    0    0 -0.76844884871E+01  0.81464561216E+01 -0.22110626597E+02  0.24784993836E+02  0.51100000000E-03 0. -1.
        -11    1    4    4    0    0 -0.46099820078E+01  0.21688832407E+01 -0.10792186902E+02  0.11934290386E+02  0.51100000000E-03 0.  1.
        -12    1    4    4    0    0  0.37851905297E+01 -0.17086210957E+02 -0.22756872621E+01  0.17647805097E+02  0.00000000000E+00 0.  1.
</event>
<event>
 8    1  0.2500956E-006  0.9118800E+02  0.7816164E-02  0.1184000E+00
        -11   -1    0    0    0    0  0.00000000000E+00  0.00000000000E+00  0.45593999997E+02  0.45594000000E+02  0.51100000000E-03 0.  1.
         11   -1    0    0    0    0 -0.00000000000E+00 -0.00000000000E+00 -0.45593999997E+02  0.45594000000E+02  0.51100000000E-03 0. -1.
         23    2    1    2    0    0  0.00000000000E+00 -0.17763568394E-14 -0.44408920985E-15  0.91188000000E+02  0.91188000000E+02 0.  0.
    9900012    2    3    3    0    0 -0.34553592269E+02 -0.12245709198E+02  0.34454058971E+01  0.54367096233E+02  0.40000027481E+02 0.  0.
         12    1    3    3    0    0  0.34553592269E+02  0.12245709198E+02 -0.34454058971E+01  0.36820903767E+02  0.00000000000E+00 0. -1.
         11    1    4    4    0    0 -0.29448481019E+01 -0.48470729029E+00 -0.11052873773E+02  0.11448715666E+02  0.51100000000E-03 0. -1.
        -11    1    4    4    0    0 -0.10533874321E+02  0.34241169562E+01  0.12742089121E+02  0.16883362242E+02  0.51100000000E-03 0.  1.
         12    1    4    4    0    0 -0.21074869846E+02 -0.15185118864E+02  0.17561905484E+01  0.26035018325E+02  0.00000000000E+00 0. -1.
</event>
<event>
 8    1  0.2500956E-006  0.9118800E+02  0.7816164E-02  0.1184000E+00
        -11   -1    0    0    0    0  0.00000000000E+00  0.00000000000E+00  0.45593999997E+02  0.45594000000E+02  0.51100000000E-03 0. -1.
         11   -1    0    0    0    0 -0.00000000000E+00 -0.00000000000E+00 -0.45593999997E+02  0.45594000000E+02  0.51100000000E-03 0.  1.
         23    2    1    2    0    0  0.35527136788E-14 -0.88817841970E-15  0.35527136788E-14  0.91188000000E+02  0.91188000000E+02 0.  0.
    9900012    2    3    3    0    0  0.26703323244E+02  0.24527395917E+01  0.25232879920E+02  0.54367059859E+02  0.39999944560E+02 0.  0.
        -12    1    3    3    0    0 -0.26703323244E+02 -0.24527395917E+01 -0.25232879920E+02  0.36820940141E+02  0.00000000000E+00 0.  1.
         11    1    4    4    0    0  0.80818232466E+01 -0.47568412963E+00  0.13056402863E+01  0.82004170137E+01  0.51100000000E-03 0. -1.
        -11    1    4    4    0    0  0.56594337115E+01 -0.11730722036E+02 -0.25212762994E+01  0.13266343274E+02  0.51100000000E-03 0.  1.
         12    1    4    4    0    0  0.12962066286E+02  0.14659145758E+02  0.26448515934E+02  0.32900299571E+02  0.00000000000E+00 0. -1.
</event>
<event>
 8    1  0.2500956E-006  0.9118800E+02  0.7816164E-02  0.1184000E+00
        -11   -1    0    0    0    0  0.00000000000E+00  0.00000000000E+00  0.45593999997E+02  0.45594000000E+02  0.51100000000E-03 0. -1.
         11   -1    0    0    0    0 -0.00000000000E+00 -0.00000000000E+00 -0.45593999997E+02  0.45594000000E+02  0.51100000000E-03 0.  1.
         23    2    1    2    0    0  0.88817841970E-15  0.00000000000E+00  0.44408920985E-15  0.91188000000E+02  0.91188000000E+02 0.  0.
    9900012    2    3    3    0    0 -0.72432627158E+01  0.36018819752E+02 -0.24408328843E+01  0.54367110599E+02  0.40000060234E+02 0.  0.
         12    1    3    3    0    0  0.72432627158E+01 -0.36018819752E+02  0.24408328843E+01  0.36820889401E+02  0.00000000000E+00 0. -1.
         11    1    4    4    0    0  0.42606707728E+01  0.68818046897E+01 -0.20316751026E+01  0.83450737088E+01  0.51100000000E-03 0. -1.
        -11    1    4    4    0    0 -0.19022707663E+02  0.10851647252E+02  0.95412308530E+01  0.23888422748E+02  0.51100000000E-03 0.  1.
        -12    1    4    4    0    0  0.75187741748E+01  0.18285367810E+02 -0.99503886348E+01  0.22133614143E+02  0.00000000000E+00 0.  1.
</event>
<event>
 8    1  0.2500956E-006  0.9118800E+02  0.7816164E-02  0.1184000E+00
        -11   -1    0    0    0    0  0.00000000000E+00  0.00000000000E+00  0.45593999997E+02  0.45594000000E+02  0.51100000000E-03 0.  1.
         11   -1    0    0    0    0 -0.00000000000E+00 -0.00000000000E+00 -0.45593999997E+02  0.45594000000E+02  0.51100000000E-03 0. -1.
         23    2    1    2    0    0  0.00000000000E+00  0.66613381478E-15  0.00000000000E+00  0.91188000000E+02  0.91188000000E+02 0.  0.
    9900012    2    3    3    0    0  0.23121650977E+02  0.11294633745E+01  0.28633902907E+02  0.54366989325E+02  0.39999783763E+02 0.  0.
         12    1    3    3    0    0 -0.23121650977E+02 -0.11294633745E+01 -0.28633902907E+02  0.36821010675E+02  0.00000000000E+00 0. -1.
         11    1    4    4    0    0  0.18734568899E+02 -0.93289466692E+01  0.16196548509E+01  0.20991345834E+02  0.51100000000E-03 0. -1.
        -11    1    4    4    0    0  0.97949148257E+01  0.39912397884E+01  0.18990959900E+02  0.21737684092E+02  0.51100000000E-03 0.  1.
        -12    1    4    4    0    0 -0.54078327481E+01  0.64671702552E+01  0.80232881562E+01  0.11637959399E+02  0.00000000000E+00 0.  1.
</event>
<event>
 8    1  0.2500956E-006  0.9118800E+02  0.7816164E-02  0.1184000E+00
        -11   -1    0    0    0    0  0.00000000000E+00  0.00000000000E+00  0.45593999997E+02  0.45594000000E+02  0.51100000000E-03 0.  1.
         11   -1    0    0    0    0 -0.00000000000E+00 -0.00000000000E+00 -0.45593999997E+02  0.45594000000E+02  0.51100000000E-03 0. -1.
         23    2    1    2    0    0  0.00000000000E+00 -0.35527136788E-14 -0.88817841970E-15  0.91188000000E+02  0.91188000000E+02 0.  0.
    9900012    2    3    3    0    0  0.17578715022E+02 -0.31915834373E+02  0.53041842128E+01  0.54367271114E+02  0.40000426155E+02 0.  0.
         12    1    3    3    0    0 -0.17578715022E+02  0.31915834373E+02 -0.53041842128E+01  0.36820728886E+02  0.00000000000E+00 0. -1.
         11    1    4    4    0    0 -0.39860314445E+01 -0.11916149086E+02 -0.11192051144E+02  0.16826914892E+02  0.51100000000E-03 0. -1.
        -11    1    4    4    0    0  0.13059668385E+02 -0.19888195913E+02  0.70202995343E+01  0.24806851489E+02  0.51100000000E-03 0.  1.
        -12    1    4    4    0    0  0.85050780815E+01 -0.11148937438E+00  0.94759358225E+01  0.12733504732E+02  0.00000000000E+00 0.  1.
</event>
<event>
 8    1  0.2500956E-006  0.9118800E+02  0.7816164E-02  0.1184000E+00
        -11   -1    0    0    0    0  0.00000000000E+00  0.00000000000E+00  0.45593999997E+02  0.45594000000E+02  0.51100000000E-03 0.  1.
         11   -1    0    0    0    0 -0.00000000000E+00 -0.00000000000E+00 -0.45593999997E+02  0.45594000000E+02  0.51100000000E-03 0. -1.
         23    2    1    2    0    0  0.17763568394E-14 -0.71054273576E-14  0.00000000000E+00  0.91188000000E+02  0.91188000000E+02 0.  0.
    9900012    2    3    3    0    0  0.85053615530E+01 -0.33963397152E+02  0.11398505960E+02  0.54367089374E+02  0.40000011845E+02 0.  0.
         12    1    3    3    0    0 -0.85053615530E+01  0.33963397152E+02 -0.11398505960E+02  0.36820910626E+02  0.00000000000E+00 0. -1.
         11    1    4    4    0    0  0.51038611619E+01  0.53026844028E+01 -0.93636382513E+00  0.74192073775E+01  0.51100000000E-03 0. -1.
        -11    1    4    4    0    0  0.33444446302E+01 -0.26690514273E+02 -0.30563625857E+01  0.27072314540E+02  0.51100000000E-03 0.  1.
        -12    1    4    4    0    0  0.57055760889E-01 -0.12575567282E+02  0.15391232371E+02  0.19875567456E+02  0.00000000000E+00 0.  1.
</event>
<event>
 8    1  0.2500956E-006  0.9118800E+02  0.7816164E-02  0.1184000E+00
        -11   -1    0    0    0    0  0.00000000000E+00  0.00000000000E+00  0.45593999997E+02  0.45594000000E+02  0.51100000000E-03 0.  1.
         11   -1    0    0    0    0 -0.00000000000E+00 -0.00000000000E+00 -0.45593999997E+02  0.45594000000E+02  0.51100000000E-03 0. -1.
         23    2    1    2    0    0 -0.88817841970E-15  0.00000000000E+00  0.00000000000E+00  0.91188000000E+02  0.91188000000E+02 0.  0.
    9900012    2    3    3    0    0 -0.60760654801E+01 -0.21878450568E+02  0.28986123182E+02  0.54367075133E+02  0.39999979380E+02 0.  0.
         12    1    3    3    0    0  0.60760654801E+01  0.21878450568E+02 -0.28986123182E+02  0.36820924867E+02  0.00000000000E+00 0. -1.
         11    1    4    4    0    0 -0.53281275351E+01 -0.16705625402E+02 -0.81540460116E+00  0.17553681893E+02  0.51100000000E-03 0. -1.
        -11    1    4    4    0    0 -0.21048702530E+01 -0.10580742348E+02  0.59525475986E+01  0.12321339643E+02  0.51100000000E-03 0.  1.
        -12    1    4    4    0    0  0.13569323081E+01  0.54079171815E+01  0.23848980184E+02  0.24492053596E+02  0.00000000000E+00 0.  1.
</event>
<event>
 8    1  0.2500956E-006  0.9118800E+02  0.7816164E-02  0.1184000E+00
        -11   -1    0    0    0    0  0.00000000000E+00  0.00000000000E+00  0.45593999997E+02  0.45594000000E+02  0.51100000000E-03 0. -1.
         11   -1    0    0    0    0 -0.00000000000E+00 -0.00000000000E+00 -0.45593999997E+02  0.45594000000E+02  0.51100000000E-03 0.  1.
         23    2    1    2    0    0  0.35527136788E-14  0.00000000000E+00  0.00000000000E+00  0.91188000000E+02  0.91188000000E+02 0.  0.
    9900012    2    3    3    0    0  0.28731911911E+02 -0.87255017368E+01  0.21310149280E+02  0.54367087396E+02  0.40000007337E+02 0.  0.
        -12    1    3    3    0    0 -0.28731911911E+02  0.87255017368E+01 -0.21310149280E+02  0.36820912604E+02  0.00000000000E+00 0.  1.
         11    1    4    4    0    0  0.20214101690E+02 -0.98211058902E+01  0.23517524882E+02  0.32529033261E+02  0.51100000000E-03 0. -1.
        -11    1    4    4    0    0  0.85215221930E+01  0.77936224552E+01 -0.70886222944E+01  0.13550109142E+02  0.51100000000E-03 0.  1.
        -12    1    4    4    0    0 -0.37119711110E-02 -0.66980183018E+01  0.48812466918E+01  0.82879449936E+01  0.00000000000E+00 0.  1.
</event>
<event>
 8    1  0.2500956E-006  0.9118800E+02  0.7816164E-02  0.1184000E+00
        -11   -1    0    0    0    0  0.00000000000E+00  0.00000000000E+00  0.45593999997E+02  0.45594000000E+02  0.51100000000E-03 0.  1.
         11   -1    0    0    0    0 -0.00000000000E+00 -0.00000000000E+00 -0.45593999997E+02  0.45594000000E+02  0.51100000000E-03 0. -1.
         23    2    1    2    0    0 -0.35527136788E-14  0.00000000000E+00  0.35527136788E-14  0.91188000000E+02  0.91188000000E+02 0.  0.
    9900012    2    3    3    0    0  0.27643200129E+02 -0.23971713642E+01 -0.24205097098E+02  0.54367086521E+02  0.40000005342E+02 0.  0.
        -12    1    3    3    0    0 -0.27643200129E+02  0.23971713642E+01  0.24205097098E+02  0.36820913479E+02  0.00000000000E+00 0.  1.
         11    1    4    4    0    0 -0.14790124955E+01 -0.47552648044E+01 -0.13620309013E+01  0.51628625547E+01  0.51100000000E-03 0. -1.
        -11    1    4    4    0    0 -0.57308600897E+01 -0.53952426099E+01 -0.43968098581E+01  0.90157272239E+01  0.51100000000E-03 0.  1.
         12    1    4    4    0    0  0.34853072714E+02  0.77533360501E+01 -0.18446256339E+02  0.40188496742E+02  0.00000000000E+00 0. -1.
</event>
<event>
 8    1  0.2500956E-006  0.9118800E+02  0.7816164E-02  0.1184000E+00
        -11   -1    0    0    0    0  0.00000000000E+00  0.00000000000E+00  0.45593999997E+02  0.45594000000E+02  0.51100000000E-03 0. -1.
         11   -1    0    0    0    0 -0.00000000000E+00 -0.00000000000E+00 -0.45593999997E+02  0.45594000000E+02  0.51100000000E-03 0.  1.
         23    2    1    2    0    0  0.00000000000E+00 -0.44408920985E-15 -0.17763568394E-14  0.91188000000E+02  0.91188000000E+02 0.  0.
    9900012    2    3    3    0    0 -0.36004733396E+02  0.34933224407E+01 -0.68727787729E+01  0.54367092670E+02  0.40000019359E+02 0.  0.
         12    1    3    3    0    0  0.36004733396E+02 -0.34933224407E+01  0.68727787729E+01  0.36820907330E+02  0.00000000000E+00 0. -1.
         11    1    4    4    0    0 -0.45793450275E+01 -0.18600284624E+01  0.25695736633E+01  0.55707105323E+01  0.51100000000E-03 0. -1.
        -11    1    4    4    0    0 -0.25327500177E+02 -0.10671785018E+01  0.10141810225E+02  0.27303432936E+02  0.51100000000E-03 0.  1.
        -12    1    4    4    0    0 -0.60978881911E+01  0.64205294049E+01 -0.19584162662E+02  0.21492949202E+02  0.00000000000E+00 0.  1.
</event>
<event>
 8    1  0.2500956E-006  0.9118800E+02  0.7816164E-02  0.1184000E+00
        -11   -1    0    0    0    0  0.00000000000E+00  0.00000000000E+00  0.45593999997E+02  0.45594000000E+02  0.51100000000E-03 0.  1.
         11   -1    0    0    0    0 -0.00000000000E+00 -0.00000000000E+00 -0.45593999997E+02  0.45594000000E+02  0.51100000000E-03 0. -1.
         23    2    1    2    0    0 -0.35527136788E-14  0.35527136788E-14 -0.35527136788E-14  0.91188000000E+02  0.91188000000E+02 0.  0.
    9900012    2    3    3    0    0  0.15803403424E+02  0.18432032610E+02 -0.27681958314E+02  0.54367106448E+02  0.40000050768E+02 0.  0.
        -12    1    3    3    0    0 -0.15803403424E+02 -0.18432032610E+02  0.27681958314E+02  0.36820893552E+02  0.00000000000E+00 0.  1.
         11    1    4    4    0    0  0.83829676983E+00  0.19091050330E+02 -0.23211593297E+02  0.30065744757E+02  0.51100000000E-03 0. -1.
        -11    1    4    4    0    0 -0.30559808365E+01 -0.84313906229E+00 -0.53929852480E+01  0.62557327706E+01  0.51100000000E-03 0.  1.
        -12    1    4    4    0    0  0.18021087491E+02  0.18412134146E+00  0.92262023041E+00  0.18045628920E+02  0.00000000000E+00 0.  1.
</event>
<event>
 8    1  0.2500956E-006  0.9118800E+02  0.7816164E-02  0.1184000E+00
        -11   -1    0    0    0    0  0.00000000000E+00  0.00000000000E+00  0.45593999997E+02  0.45594000000E+02  0.51100000000E-03 0.  1.
         11   -1    0    0    0    0 -0.00000000000E+00 -0.00000000000E+00 -0.45593999997E+02  0.45594000000E+02  0.51100000000E-03 0. -1.
         23    2    1    2    0    0  0.00000000000E+00  0.00000000000E+00  0.35527136788E-14  0.91188000000E+02  0.91188000000E+02 0.  0.
    9900012    2    3    3    0    0  0.10126398272E+02 -0.21846550822E+02 -0.27856145150E+02  0.54367074598E+02  0.39999978162E+02 0.  0.
         12    1    3    3    0    0 -0.10126398272E+02  0.21846550822E+02  0.27856145150E+02  0.36820925402E+02  0.00000000000E+00 0. -1.
         11    1    4    4    0    0 -0.14929421267E+01 -0.18117899379E+02 -0.18430973067E+02  0.25887987997E+02  0.51100000000E-03 0.  1.
        -11    1    4    4    0    0  0.13057930265E+02 -0.12436512266E+02 -0.58689753192E+01  0.18963682441E+02  0.51100000000E-03 0. -1.
        -12    1    4    4    0    0 -0.14385898665E+01  0.87078608227E+01 -0.35561967643E+01  0.95154041606E+01  0.00000000000E+00 0.  1.
</event>
<event>
 8    1  0.2500956E-006  0.9118800E+02  0.7816164E-02  0.1184000E+00
        -11   -1    0    0    0    0  0.00000000000E+00  0.00000000000E+00  0.45593999997E+02  0.45594000000E+02  0.51100000000E-03 0.  1.
         11   -1    0    0    0    0 -0.00000000000E+00 -0.00000000000E+00 -0.45593999997E+02  0.45594000000E+02  0.51100000000E-03 0. -1.
         23    2    1    2    0    0  0.00000000000E+00  0.35527136788E-14  0.35527136788E-14  0.91188000000E+02  0.91188000000E+02 0.  0.
    9900012    2    3    3    0    0  0.22864181648E+02  0.24015628834E+02 -0.16007974669E+02  0.54367129780E+02  0.40000103960E+02 0.  0.
        -12    1    3    3    0    0 -0.22864181648E+02 -0.24015628834E+02  0.16007974669E+02  0.36820870220E+02  0.00000000000E+00 0.  1.
         11    1    4    4    0    0 -0.29407493964E+01  0.13051624574E+02 -0.75047346478E+01  0.15339946331E+02  0.51100000000E-03 0. -1.
        -11    1    4    4    0    0  0.25739535537E+02 -0.87396897064E+00 -0.28597507374E+01  0.25912654938E+02  0.51100000000E-03 0.  1.
        -12    1    4    4    0    0  0.65395507776E-01  0.11837973230E+02 -0.56434892837E+01  0.13114528511E+02  0.00000000000E+00 0.  1.
</event>
<event>
 8    1  0.2500956E-006  0.9118800E+02  0.7816164E-02  0.1184000E+00
        -11   -1    0    0    0    0  0.00000000000E+00  0.00000000000E+00  0.45593999997E+02  0.45594000000E+02  0.51100000000E-03 0.  1.
         11   -1    0    0    0    0 -0.00000000000E+00 -0.00000000000E+00 -0.45593999997E+02  0.45594000000E+02  0.51100000000E-03 0. -1.
         23    2    1    2    0    0  0.00000000000E+00  0.35527136788E-14  0.35527136788E-14  0.91188000000E+02  0.91188000000E+02 0.  0.
    9900012    2    3    3    0    0  0.13439516114E+01 -0.22584673345E+02 -0.29050295500E+02  0.54366900822E+02  0.39999582002E+02 0.  0.
        -12    1    3    3    0    0 -0.13439516114E+01  0.22584673345E+02  0.29050295500E+02  0.36821099178E+02  0.00000000000E+00 0.  1.
         11    1    4    4    0    0 -0.28398416106E+01 -0.37223191102E+01  0.65310050155E+00  0.47272508351E+01  0.51100000000E-03 0. -1.
        -11    1    4    4    0    0  0.69798942906E+01 -0.36112472439E+01  0.65366612210E+01  0.10221935783E+02  0.51100000000E-03 0.  1.
         12    1    4    4    0    0 -0.27961010686E+01 -0.15251106991E+02 -0.36240057222E+02  0.39417714204E+02  0.00000000000E+00 0. -1.
</event>
<event>
 8    1  0.2500956E-006  0.9118800E+02  0.7816164E-02  0.1184000E+00
        -11   -1    0    0    0    0  0.00000000000E+00  0.00000000000E+00  0.45593999997E+02  0.45594000000E+02  0.51100000000E-03 0.  1.
         11   -1    0    0    0    0 -0.00000000000E+00 -0.00000000000E+00 -0.45593999997E+02  0.45594000000E+02  0.51100000000E-03 0. -1.
         23    2    1    2    0    0  0.17763568394E-14 -0.35527136788E-14 -0.17763568394E-14  0.91188000000E+02  0.91188000000E+02 0.  0.
    9900012    2    3    3    0    0 -0.13921972995E+02  0.31747281209E+02  0.12412394932E+02  0.54367099085E+02  0.40000033985E+02 0.  0.
        -12    1    3    3    0    0  0.13921972995E+02 -0.31747281209E+02 -0.12412394932E+02  0.36820900915E+02  0.00000000000E+00 0.  1.
         11    1    4    4    0    0 -0.14381342367E+02  0.31185440480E+02  0.36404693764E+01  0.34534153005E+02  0.51100000000E-03 0. -1.
        -11    1    4    4    0    0 -0.69531231470E+01 -0.63266418320E+00 -0.14688696764E+01  0.71346873690E+01  0.51100000000E-03 0.  1.
        -12    1    4    4    0    0  0.74124925194E+01  0.11945049122E+01  0.10240795232E+02  0.12698258712E+02  0.00000000000E+00 0.  1.
</event>
<event>
 8    1  0.2500956E-006  0.9118800E+02  0.7816164E-02  0.1184000E+00
        -11   -1    0    0    0    0  0.00000000000E+00  0.00000000000E+00  0.45593999997E+02  0.45594000000E+02  0.51100000000E-03 0.  1.
         11   -1    0    0    0    0 -0.00000000000E+00 -0.00000000000E+00 -0.45593999997E+02  0.45594000000E+02  0.51100000000E-03 0. -1.
         23    2    1    2    0    0 -0.35527136788E-14  0.00000000000E+00  0.35527136788E-14  0.91188000000E+02  0.91188000000E+02 0.  0.
    9900012    2    3    3    0    0 -0.21209630344E+02  0.48910641673E+01  0.29698646557E+02  0.54367074763E+02  0.39999978536E+02 0.  0.
         12    1    3    3    0    0  0.21209630344E+02 -0.48910641673E+01 -0.29698646557E+02  0.36820925237E+02  0.00000000000E+00 0. -1.
         11    1    4    4    0    0  0.12867831430E+01 -0.37087869087E+01 -0.66411750718E+01  0.77146690005E+01  0.51100000000E-03 0. -1.
        -11    1    4    4    0    0 -0.82843565476E+01  0.50788095993E+01  0.28891660284E+01  0.10137660033E+02  0.51100000000E-03 0.  1.
        -12    1    4    4    0    0 -0.14212056939E+02  0.35210414768E+01  0.33450655601E+02  0.36514745729E+02  0.00000000000E+00 0.  1.
</event>
<event>
 8    1  0.2500956E-006  0.9118800E+02  0.7816164E-02  0.1184000E+00
        -11   -1    0    0    0    0  0.00000000000E+00  0.00000000000E+00  0.45593999997E+02  0.45594000000E+02  0.51100000000E-03 0.  1.
         11   -1    0    0    0    0 -0.00000000000E+00 -0.00000000000E+00 -0.45593999997E+02  0.45594000000E+02  0.51100000000E-03 0. -1.
         23    2    1    2    0    0  0.35527136788E-14  0.00000000000E+00 -0.35527136788E-14  0.91188000000E+02  0.91188000000E+02 0.  0.
    9900012    2    3    3    0    0  0.28823726126E+02  0.10763659363E+02 -0.20226654009E+02  0.54367067325E+02  0.39999961581E+02 0.  0.
        -12    1    3    3    0    0 -0.28823726126E+02 -0.10763659363E+02  0.20226654009E+02  0.36820932675E+02  0.00000000000E+00 0.  1.
         11    1    4    4    0    0 -0.43408808741E+01  0.11668222721E+01 -0.71528147753E+01  0.84479275831E+01  0.51100000000E-03 0. -1.
        -11    1    4    4    0    0  0.16696425993E+02 -0.87935492419E+01 -0.89707716860E+01  0.20894302911E+02  0.51100000000E-03 0.  1.
        -12    1    4    4    0    0  0.16468181007E+02  0.18390386333E+02 -0.41030675473E+01  0.25024836831E+02  0.00000000000E+00 0.  1.
</event>
<event>
 8    1  0.2500956E-006  0.9118800E+02  0.7816164E-02  0.1184000E+00
        -11   -1    0    0    0    0  0.00000000000E+00  0.00000000000E+00  0.45593999997E+02  0.45594000000E+02  0.51100000000E-03 0. -1.
         11   -1    0    0    0    0 -0.00000000000E+00 -0.00000000000E+00 -0.45593999997E+02  0.45594000000E+02  0.51100000000E-03 0.  1.
         23    2    1    2    0    0  0.00000000000E+00  0.00000000000E+00  0.00000000000E+00  0.91188000000E+02  0.91188000000E+02 0.  0.
    9900012    2    3    3    0    0 -0.26303613685E+02  0.17010868685E+02 -0.19352791078E+02  0.54367078382E+02  0.39999986788E+02 0.  0.
         12    1    3    3    0    0  0.26303613685E+02 -0.17010868685E+02  0.19352791078E+02  0.36820921618E+02  0.00000000000E+00 0. -1.
         11    1    4    4    0    0 -0.15710847010E+02  0.13169716111E+02  0.82535704178E+01  0.22099628076E+02  0.51100000000E-03 0. -1.
        -11    1    4    4    0    0 -0.71504195557E+01 -0.20124526227E+01 -0.57887142429E+01  0.94174135637E+01  0.51100000000E-03 0.  1.
         12    1    4    4    0    0 -0.34423471191E+01  0.58536051963E+01 -0.21817647253E+02  0.22850036742E+02  0.00000000000E+00 0. -1.
</event>
<event>
 8    1  0.2500956E-006  0.9118800E+02  0.7816164E-02  0.1184000E+00
        -11   -1    0    0    0    0  0.00000000000E+00  0.00000000000E+00  0.45593999997E+02  0.45594000000E+02  0.51100000000E-03 0.  1.
         11   -1    0    0    0    0 -0.00000000000E+00 -0.00000000000E+00 -0.45593999997E+02  0.45594000000E+02  0.51100000000E-03 0. -1.
         23    2    1    2    0    0  0.35527136788E-14  0.00000000000E+00 -0.17763568394E-14  0.91188000000E+02  0.91188000000E+02 0.  0.
    9900012    2    3    3    0    0  0.29783041117E+02  0.18745028511E+02 -0.10834005671E+02  0.54367064230E+02  0.39999954525E+02 0.  0.
        -12    1    3    3    0    0 -0.29783041117E+02 -0.18745028511E+02  0.10834005671E+02  0.36820935770E+02  0.00000000000E+00 0.  1.
         11    1    4    4    0    0  0.13488128866E+02 -0.11173242861E+02 -0.33272595003E+01  0.17828113540E+02  0.51100000000E-03 0. -1.
        -11    1    4    4    0    0  0.24979064944E+01 -0.30400411780E+00 -0.21482341930E+00  0.25254909862E+01  0.51100000000E-03 0.  1.
        -12    1    4    4    0    0  0.13797005757E+02  0.30222275490E+02 -0.72919227517E+01  0.34013459704E+02  0.00000000000E+00 0.  1.
</event>
<event>
 8    1  0.2500956E-006  0.9118800E+02  0.7816164E-02  0.1184000E+00
        -11   -1    0    0    0    0  0.00000000000E+00  0.00000000000E+00  0.45593999997E+02  0.45594000000E+02  0.51100000000E-03 0. -1.
         11   -1    0    0    0    0 -0.00000000000E+00 -0.00000000000E+00 -0.45593999997E+02  0.45594000000E+02  0.51100000000E-03 0.  1.
         23    2    1    2    0    0  0.88817841970E-15  0.35527136788E-14 -0.35527136788E-14  0.91188000000E+02  0.91188000000E+02 0.  0.
    9900012    2    3    3    0    0  0.36854878651E+01 -0.21225048357E+02 -0.29861254494E+02  0.54367081781E+02  0.39999994535E+02 0.  0.
         12    1    3    3    0    0 -0.36854878651E+01  0.21225048357E+02  0.29861254494E+02  0.36820918219E+02  0.00000000000E+00 0. -1.
         11    1    4    4    0    0  0.81954959934E+01 -0.10698910617E+02 -0.10443254599E+02  0.17049762751E+02  0.51100000000E-03 0. -1.
        -11    1    4    4    0    0  0.48240099578E+01 -0.15391223689E+02 -0.21203513112E+02  0.26641129992E+02  0.51100000000E-03 0.  1.
         12    1    4    4    0    0 -0.93340180862E+01  0.48650859480E+01  0.17855132177E+01  0.10676189038E+02  0.00000000000E+00 0. -1.
</event>
<event>
 8    1  0.2500956E-006  0.9118800E+02  0.7816164E-02  0.1184000E+00
        -11   -1    0    0    0    0  0.00000000000E+00  0.00000000000E+00  0.45593999997E+02  0.45594000000E+02  0.51100000000E-03 0.  1.
         11   -1    0    0    0    0 -0.00000000000E+00 -0.00000000000E+00 -0.45593999997E+02  0.45594000000E+02  0.51100000000E-03 0. -1.
         23    2    1    2    0    0  0.35527136788E-14  0.00000000000E+00  0.00000000000E+00  0.91188000000E+02  0.91188000000E+02 0.  0.
    9900012    2    3    3    0    0  0.21094201429E+02 -0.29827279104E+02 -0.45986022427E+01  0.54367094861E+02  0.40000024354E+02 0.  0.
        -12    1    3    3    0    0 -0.21094201429E+02  0.29827279104E+02  0.45986022427E+01  0.36820905139E+02  0.00000000000E+00 0.  1.
         11    1    4    4    0    0 -0.70278858938E+01 -0.68151823008E+01 -0.11821954208E+02  0.15349152794E+02  0.51100000000E-03 0. -1.
        -11    1    4    4    0    0  0.73366619882E+01 -0.13534188645E+02  0.15013414813E+01  0.15467866624E+02  0.51100000000E-03 0.  1.
         12    1    4    4    0    0  0.20785425334E+02 -0.94779081585E+01  0.57220104837E+01  0.23550075443E+02  0.00000000000E+00 0. -1.
</event>
<event>
 8    1  0.2500956E-006  0.9118800E+02  0.7816164E-02  0.1184000E+00
        -11   -1    0    0    0    0  0.00000000000E+00  0.00000000000E+00  0.45593999997E+02  0.45594000000E+02  0.51100000000E-03 0. -1.
         11   -1    0    0    0    0 -0.00000000000E+00 -0.00000000000E+00 -0.45593999997E+02  0.45594000000E+02  0.51100000000E-03 0.  1.
         23    2    1    2    0    0 -0.35527136788E-14  0.00000000000E+00  0.00000000000E+00  0.91188000000E+02  0.91188000000E+02 0.  0.
    9900012    2    3    3    0    0  0.27483849431E+02 -0.24403257719E+02 -0.22133171832E+01  0.54367085565E+02  0.40000003163E+02 0.  0.
         12    1    3    3    0    0 -0.27483849431E+02  0.24403257719E+02  0.22133171832E+01  0.36820914435E+02  0.00000000000E+00 0. -1.
         11    1    4    4    0    0  0.23082758760E+01 -0.22630255981E+02  0.12476882177E+01  0.22781864485E+02  0.51100000000E-03 0. -1.
        -11    1    4    4    0    0  0.25160094322E+02 -0.23935431047E+01 -0.83803565115E+01  0.26626861821E+02  0.51100000000E-03 0.  1.
         12    1    4    4    0    0  0.15479233015E-01  0.62054136606E+00  0.49193511106E+01  0.49583592592E+01  0.00000000000E+00 0. -1.
</event>
<event>
 8    1  0.2500956E-006  0.9118800E+02  0.7816164E-02  0.1184000E+00
        -11   -1    0    0    0    0  0.00000000000E+00  0.00000000000E+00  0.45593999997E+02  0.45594000000E+02  0.51100000000E-03 0.  1.
         11   -1    0    0    0    0 -0.00000000000E+00 -0.00000000000E+00 -0.45593999997E+02  0.45594000000E+02  0.51100000000E-03 0. -1.
         23    2    1    2    0    0  0.88817841970E-15 -0.88817841970E-15  0.00000000000E+00  0.91188000000E+02  0.91188000000E+02 0.  0.
    9900012    2    3    3    0    0 -0.18518807366E+01  0.51736225028E+01  0.36408561080E+02  0.54367093548E+02  0.40000021361E+02 0.  0.
         12    1    3    3    0    0  0.18518807366E+01 -0.51736225028E+01 -0.36408561080E+02  0.36820906452E+02  0.00000000000E+00 0. -1.
         11    1    4    4    0    0 -0.53190679398E+01 -0.10004601230E+01  0.54600646036E+01  0.76880237996E+01  0.51100000000E-03 0. -1.
        -11    1    4    4    0    0 -0.41691177202E+01  0.91971889698E+01 -0.39381179571E+01  0.10838754579E+02  0.51100000000E-03 0.  1.
        -12    1    4    4    0    0  0.76363049234E+01 -0.30231063440E+01  0.34886614433E+02  0.35840315170E+02  0.00000000000E+00 0.  1.
</event>
<event>
 8    1  0.2500956E-006  0.9118800E+02  0.7816164E-02  0.1184000E+00
        -11   -1    0    0    0    0  0.00000000000E+00  0.00000000000E+00  0.45593999997E+02  0.45594000000E+02  0.51100000000E-03 0. -1.
         11   -1    0    0    0    0 -0.00000000000E+00 -0.00000000000E+00 -0.45593999997E+02  0.45594000000E+02  0.51100000000E-03 0.  1.
         23    2    1    2    0    0 -0.35527136788E-14 -0.17763568394E-14  0.00000000000E+00  0.91188000000E+02  0.91188000000E+02 0.  0.
    9900012    2    3    3    0    0 -0.18897763646E+02 -0.10548299073E+02  0.29789066156E+02  0.54367074610E+02  0.39999978188E+02 0.  0.
        -12    1    3    3    0    0  0.18897763646E+02  0.10548299073E+02 -0.29789066156E+02  0.36820925390E+02  0.00000000000E+00 0.  1.
         11    1    4    4    0    0 -0.10515527643E+02 -0.23826640318E+02  0.19439097923E+02  0.32498671338E+02  0.51100000000E-03 0. -1.
        -11    1    4    4    0    0 -0.97300967655E+01  0.63629116831E+01  0.37534769974E+01  0.12216792459E+02  0.51100000000E-03 0.  1.
        -12    1    4    4    0    0  0.13478607624E+01  0.69154295619E+01  0.65964912355E+01  0.96516108127E+01  0.00000000000E+00 0.  1.
</event>
<event>
 8    1  0.2500956E-006  0.9118800E+02  0.7816164E-02  0.1184000E+00
        -11   -1    0    0    0    0  0.00000000000E+00  0.00000000000E+00  0.45593999997E+02  0.45594000000E+02  0.51100000000E-03 0.  1.
         11   -1    0    0    0    0 -0.00000000000E+00 -0.00000000000E+00 -0.45593999997E+02  0.45594000000E+02  0.51100000000E-03 0. -1.
         23    2    1    2    0    0  0.35527136788E-14  0.00000000000E+00  0.00000000000E+00  0.91188000000E+02  0.91188000000E+02 0.  0.
    9900012    2    3    3    0    0 -0.30828539600E+02  0.59737733249E+01  0.19227470735E+02  0.54367075888E+02  0.39999981101E+02 0.  0.
        -12    1    3    3    0    0  0.30828539600E+02 -0.59737733249E+01 -0.19227470735E+02  0.36820924112E+02  0.00000000000E+00 0.  1.
         11    1    4    4    0    0 -0.21843730461E+02  0.10075615289E+02 -0.22003654658E+01  0.24155914231E+02  0.51100000000E-03 0. -1.
        -11    1    4    4    0    0 -0.12692458911E+02 -0.22693205992E+01  0.59684579072E+01  0.14208125114E+02  0.51100000000E-03 0.  1.
         12    1    4    4    0    0  0.37076497714E+01 -0.18325213645E+01  0.15459378294E+02  0.16003036543E+02  0.00000000000E+00 0. -1.
</event>
<event>
 8    1  0.2500956E-006  0.9118800E+02  0.7816164E-02  0.1184000E+00
        -11   -1    0    0    0    0  0.00000000000E+00  0.00000000000E+00  0.45593999997E+02  0.45594000000E+02  0.51100000000E-03 0.  1.
         11   -1    0    0    0    0 -0.00000000000E+00 -0.00000000000E+00 -0.45593999997E+02  0.45594000000E+02  0.51100000000E-03 0. -1.
         23    2    1    2    0    0  0.00000000000E+00 -0.17763568394E-14  0.00000000000E+00  0.91188000000E+02  0.91188000000E+02 0.  0.
    9900012    2    3    3    0    0  0.31154768934E+02 -0.80988699908E+01  0.17876492316E+02  0.54367077958E+02  0.39999985822E+02 0.  0.
         12    1    3    3    0    0 -0.31154768934E+02  0.80988699908E+01 -0.17876492316E+02  0.36820922042E+02  0.00000000000E+00 0. -1.
         11    1    4    4    0    0  0.20729336724E+01  0.12342092761E+02 -0.29745748757E+00  0.12518497871E+02  0.51100000000E-03 0. -1.
        -11    1    4    4    0    0  0.21265216917E+01 -0.60164901934E+01  0.65408064269E+01  0.91379646381E+01  0.51100000000E-03 0.  1.
        -12    1    4    4    0    0  0.26955313570E+02 -0.14424472558E+02  0.11633143376E+02  0.32710615449E+02  0.00000000000E+00 0.  1.
</event>
<event>
 8    1  0.2500956E-006  0.9118800E+02  0.7816164E-02  0.1184000E+00
        -11   -1    0    0    0    0  0.00000000000E+00  0.00000000000E+00  0.45593999997E+02  0.45594000000E+02  0.51100000000E-03 0.  1.
         11   -1    0    0    0    0 -0.00000000000E+00 -0.00000000000E+00 -0.45593999997E+02  0.45594000000E+02  0.51100000000E-03 0. -1.
         23    2    1    2    0    0  0.00000000000E+00  0.00000000000E+00 -0.22204460493E-15  0.91188000000E+02  0.91188000000E+02 0.  0.
    9900012    2    3    3    0    0 -0.44187887413E+01  0.36536900912E+02  0.11439931182E+01  0.54367088245E+02  0.40000009272E+02 0.  0.
         12    1    3    3    0    0  0.44187887413E+01 -0.36536900912E+02 -0.11439931182E+01  0.36820911755E+02  0.00000000000E+00 0. -1.
         11    1    4    4    0    0 -0.52684126648E+01 -0.78013634099E+01 -0.22255097315E+01  0.96731761529E+01  0.51100000000E-03 0. -1.
        -11    1    4    4    0    0 -0.16463178119E+01  0.14424595315E+02  0.18787987579E+01  0.14639303172E+02  0.51100000000E-03 0.  1.
         12    1    4    4    0    0  0.24959417354E+01  0.29913669008E+02  0.14907040917E+01  0.30054608920E+02  0.00000000000E+00 0. -1.
</event>
<event>
 8    1  0.2500956E-006  0.9118800E+02  0.7816164E-02  0.1184000E+00
        -11   -1    0    0    0    0  0.00000000000E+00  0.00000000000E+00  0.45593999997E+02  0.45594000000E+02  0.51100000000E-03 0.  1.
         11   -1    0    0    0    0 -0.00000000000E+00 -0.00000000000E+00 -0.45593999997E+02  0.45594000000E+02  0.51100000000E-03 0. -1.
         23    2    1    2    0    0  0.00000000000E+00  0.35527136788E-14 -0.35527136788E-14  0.91188000000E+02  0.91188000000E+02 0.  0.
    9900012    2    3    3    0    0 -0.26135194083E+02  0.16093443356E+02  0.20340425008E+02  0.54367079610E+02  0.39999989588E+02 0.  0.
         12    1    3    3    0    0  0.26135194083E+02 -0.16093443356E+02 -0.20340425008E+02  0.36820920390E+02  0.00000000000E+00 0. -1.
         11    1    4    4    0    0  0.28753542596E+00  0.17207826544E+00 -0.84927018304E+01  0.84993101009E+01  0.51100000000E-03 0. -1.
        -11    1    4    4    0    0 -0.24064132137E+02  0.18511092670E+02  0.29465994851E+02  0.42308248134E+02  0.51100000000E-03 0.  1.
        -12    1    4    4    0    0 -0.23585973720E+01 -0.25897275794E+01 -0.63286801263E+00  0.35595213751E+01  0.00000000000E+00 0.  1.
</event>
<event>
 8    1  0.2500956E-006  0.9118800E+02  0.7816164E-02  0.1184000E+00
        -11   -1    0    0    0    0  0.00000000000E+00  0.00000000000E+00  0.45593999997E+02  0.45594000000E+02  0.51100000000E-03 0.  1.
         11   -1    0    0    0    0 -0.00000000000E+00 -0.00000000000E+00 -0.45593999997E+02  0.45594000000E+02  0.51100000000E-03 0. -1.
         23    2    1    2    0    0 -0.35527136788E-14  0.00000000000E+00  0.00000000000E+00  0.91188000000E+02  0.91188000000E+02 0.  0.
    9900012    2    3    3    0    0  0.27648909018E+02  0.14056585276E+02  0.19842627875E+02  0.54367086914E+02  0.40000006237E+02 0.  0.
         12    1    3    3    0    0 -0.27648909018E+02 -0.14056585276E+02 -0.19842627875E+02  0.36820913086E+02  0.00000000000E+00 0. -1.
         11    1    4    4    0    0  0.19907050299E+02  0.11044262582E+02  0.16863856955E+02  0.28331185278E+02  0.51100000000E-03 0. -1.
        -11    1    4    4    0    0  0.11596068808E+02  0.96230488010E+01  0.78236876311E+01  0.16978868291E+02  0.51100000000E-03 0.  1.
         12    1    4    4    0    0 -0.38542100888E+01 -0.66107261072E+01 -0.48449167113E+01  0.90570333450E+01  0.00000000000E+00 0. -1.
</event>
<event>
 8    1  0.2500956E-006  0.9118800E+02  0.7816164E-02  0.1184000E+00
        -11   -1    0    0    0    0  0.00000000000E+00  0.00000000000E+00  0.45593999997E+02  0.45594000000E+02  0.51100000000E-03 0.  1.
         11   -1    0    0    0    0 -0.00000000000E+00 -0.00000000000E+00 -0.45593999997E+02  0.45594000000E+02  0.51100000000E-03 0. -1.
         23    2    1    2    0    0 -0.17763568394E-14  0.00000000000E+00  0.00000000000E+00  0.91188000000E+02  0.91188000000E+02 0.  0.
    9900012    2    3    3    0    0  0.14871004992E+02  0.11593001401E+02  0.31626515737E+02  0.54367068879E+02  0.39999965124E+02 0.  0.
         12    1    3    3    0    0 -0.14871004992E+02 -0.11593001401E+02 -0.31626515737E+02  0.36820931121E+02  0.00000000000E+00 0. -1.
         11    1    4    4    0    0  0.88065131045E+01  0.11986453981E+01  0.36405894424E+01  0.96044424929E+01  0.51100000000E-03 0. -1.
        -11    1    4    4    0    0 -0.43911710672E+01  0.20157218928E+02  0.16625694681E+02  0.26495463426E+02  0.51100000000E-03 0.  1.
        -12    1    4    4    0    0  0.10455662954E+02 -0.97628629253E+01  0.11360231613E+02  0.18267162960E+02  0.00000000000E+00 0.  1.
</event>
<event>
 8    1  0.2500956E-006  0.9118800E+02  0.7816164E-02  0.1184000E+00
        -11   -1    0    0    0    0  0.00000000000E+00  0.00000000000E+00  0.45593999997E+02  0.45594000000E+02  0.51100000000E-03 0.  1.
         11   -1    0    0    0    0 -0.00000000000E+00 -0.00000000000E+00 -0.45593999997E+02  0.45594000000E+02  0.51100000000E-03 0. -1.
         23    2    1    2    0    0  0.00000000000E+00  0.00000000000E+00  0.35527136788E-14  0.91188000000E+02  0.91188000000E+02 0.  0.
    9900012    2    3    3    0    0 -0.10577814142E+02 -0.21867853832E+02  0.27671089943E+02  0.54367049417E+02  0.39999920755E+02 0.  0.
         12    1    3    3    0    0  0.10577814142E+02  0.21867853832E+02 -0.27671089943E+02  0.36820950583E+02  0.00000000000E+00 0. -1.
         11    1    4    4    0    0  0.13917833023E+01 -0.22873468183E+01  0.27026210228E+02  0.27158517187E+02  0.51100000000E-03 0.  1.
        -11    1    4    4    0    0 -0.65260213143E+01 -0.30907644388E+01 -0.51865002144E+01  0.88905322533E+01  0.51100000000E-03 0. -1.
        -12    1    4    4    0    0 -0.54435761301E+01 -0.16489742574E+02  0.58313799295E+01  0.18317999976E+02  0.00000000000E+00 0.  1.
</event>
<event>
 8    1  0.2500956E-006  0.9118800E+02  0.7816164E-02  0.1184000E+00
        -11   -1    0    0    0    0  0.00000000000E+00  0.00000000000E+00  0.45593999997E+02  0.45594000000E+02  0.51100000000E-03 0.  1.
         11   -1    0    0    0    0 -0.00000000000E+00 -0.00000000000E+00 -0.45593999997E+02  0.45594000000E+02  0.51100000000E-03 0. -1.
         23    2    1    2    0    0  0.00000000000E+00  0.00000000000E+00  0.00000000000E+00  0.91188000000E+02  0.91188000000E+02 0.  0.
    9900012    2    3    3    0    0 -0.83177346143E+01 -0.31279769772E+02  0.17554532528E+02  0.54367213502E+02  0.40000294819E+02 0.  0.
         12    1    3    3    0    0  0.83177346143E+01  0.31279769772E+02 -0.17554532528E+02  0.36820786498E+02  0.00000000000E+00 0. -1.
         11    1    4    4    0    0 -0.22342999624E+01  0.75304951500E+01  0.72078893184E-01  0.78552943391E+01  0.51100000000E-03 0. -1.
        -11    1    4    4    0    0  0.25107931021E+01 -0.45936608975E+01  0.87035397266E+01  0.10156643465E+02  0.51100000000E-03 0.  1.
         12    1    4    4    0    0 -0.85942277541E+01 -0.34216604024E+02  0.87789139079E+01  0.36355275697E+02  0.00000000000E+00 0. -1.
</event>
<event>
 8    1  0.2500956E-006  0.9118800E+02  0.7816164E-02  0.1184000E+00
        -11   -1    0    0    0    0  0.00000000000E+00  0.00000000000E+00  0.45593999997E+02  0.45594000000E+02  0.51100000000E-03 0.  1.
         11   -1    0    0    0    0 -0.00000000000E+00 -0.00000000000E+00 -0.45593999997E+02  0.45594000000E+02  0.51100000000E-03 0. -1.
         23    2    1    2    0    0  0.00000000000E+00  0.00000000000E+00  0.35527136788E-14  0.91188000000E+02  0.91188000000E+02 0.  0.
    9900012    2    3    3    0    0 -0.18522647216E+02 -0.49934884155E+01 -0.31428581469E+02  0.54367093987E+02  0.40000022363E+02 0.  0.
        -12    1    3    3    0    0  0.18522647216E+02  0.49934884155E+01  0.31428581469E+02  0.36820906013E+02  0.00000000000E+00 0.  1.
         11    1    4    4    0    0  0.57798456338E+01 -0.97987249398E+00 -0.16132999995E+02  0.17165094080E+02  0.51100000000E-03 0. -1.
        -11    1    4    4    0    0 -0.26261307452E+02 -0.38920997565E+01 -0.53720066172E+01  0.27086217251E+02  0.51100000000E-03 0.  1.
        -12    1    4    4    0    0  0.19588146023E+01 -0.12151616504E+00 -0.99235748563E+01  0.10115782656E+02  0.00000000000E+00 0.  1.
</event>
<event>
 8    1  0.2500956E-006  0.9118800E+02  0.7816164E-02  0.1184000E+00
        -11   -1    0    0    0    0  0.00000000000E+00  0.00000000000E+00  0.45593999997E+02  0.45594000000E+02  0.51100000000E-03 0. -1.
         11   -1    0    0    0    0 -0.00000000000E+00 -0.00000000000E+00 -0.45593999997E+02  0.45594000000E+02  0.51100000000E-03 0.  1.
         23    2    1    2    0    0 -0.35527136788E-14  0.88817841970E-15  0.71054273576E-14  0.91188000000E+02  0.91188000000E+02 0.  0.
    9900012    2    3    3    0    0  0.21309428183E+02 -0.70170864628E+01 -0.29196703598E+02  0.54367099238E+02  0.40000034333E+02 0.  0.
         12    1    3    3    0    0 -0.21309428183E+02  0.70170864628E+01  0.29196703598E+02  0.36820900762E+02  0.00000000000E+00 0. -1.
         11    1    4    4    0    0  0.18549929848E+02 -0.44965494817E+01 -0.10205163269E+02  0.21644034102E+02  0.51100000000E-03 0. -1.
        -11    1    4    4    0    0  0.46623010117E+01  0.39952004999E+00 -0.25185138177E+02  0.25616163886E+02  0.51100000000E-03 0.  1.
         12    1    4    4    0    0 -0.19028026762E+01 -0.29200570310E+01  0.61935978472E+01  0.71069012503E+01  0.00000000000E+00 0. -1.
</event>
<event>
 8    1  0.2500956E-006  0.9118800E+02  0.7816164E-02  0.1184000E+00
        -11   -1    0    0    0    0  0.00000000000E+00  0.00000000000E+00  0.45593999997E+02  0.45594000000E+02  0.51100000000E-03 0.  1.
         11   -1    0    0    0    0 -0.00000000000E+00 -0.00000000000E+00 -0.45593999997E+02  0.45594000000E+02  0.51100000000E-03 0. -1.
         23    2    1    2    0    0 -0.35527136788E-14 -0.35527136788E-14  0.00000000000E+00  0.91188000000E+02  0.91188000000E+02 0.  0.
    9900012    2    3    3    0    0  0.19931608131E+02  0.25567465093E+02 -0.17458937750E+02  0.54367098581E+02  0.40000032835E+02 0.  0.
        -12    1    3    3    0    0 -0.19931608131E+02 -0.25567465093E+02  0.17458937750E+02  0.36820901419E+02  0.00000000000E+00 0.  1.
         11    1    4    4    0    0  0.19461310335E+02  0.13587005285E+02 -0.13137114422E+02  0.27128086703E+02  0.51100000000E-03 0. -1.
        -11    1    4    4    0    0  0.43214521978E+01  0.11354363550E+02 -0.12957916647E+02  0.17762435779E+02  0.51100000000E-03 0.  1.
        -12    1    4    4    0    0 -0.38511544020E+01  0.62609625779E+00  0.86360933184E+01  0.94765760988E+01  0.00000000000E+00 0.  1.
</event>
<event>
 8    1  0.2500956E-006  0.9118800E+02  0.7816164E-02  0.1184000E+00
        -11   -1    0    0    0    0  0.00000000000E+00  0.00000000000E+00  0.45593999997E+02  0.45594000000E+02  0.51100000000E-03 0.  1.
         11   -1    0    0    0    0 -0.00000000000E+00 -0.00000000000E+00 -0.45593999997E+02  0.45594000000E+02  0.51100000000E-03 0. -1.
         23    2    1    2    0    0  0.71054273576E-14 -0.88817841970E-15  0.00000000000E+00  0.91188000000E+02  0.91188000000E+02 0.  0.
    9900012    2    3    3    0    0 -0.26683659492E+02  0.71157435473E+01  0.24354220753E+02  0.54367088026E+02  0.40000008772E+02 0.  0.
         12    1    3    3    0    0  0.26683659492E+02 -0.71157435473E+01 -0.24354220753E+02  0.36820911974E+02  0.00000000000E+00 0. -1.
         11    1    4    4    0    0 -0.94248955320E+01  0.13700839872E+02  0.17727315977E+02  0.24306365442E+02  0.51100000000E-03 0. -1.
        -11    1    4    4    0    0 -0.16258284499E+02 -0.97843544167E+00  0.13485445970E+02  0.21145836565E+02  0.51100000000E-03 0.  1.
         12    1    4    4    0    0 -0.10004794618E+01 -0.56066608833E+01 -0.68585411942E+01  0.89148860187E+01  0.00000000000E+00 0. -1.
</event>
<event>
 8    1  0.2500956E-006  0.9118800E+02  0.7816164E-02  0.1184000E+00
        -11   -1    0    0    0    0  0.00000000000E+00  0.00000000000E+00  0.45593999997E+02  0.45594000000E+02  0.51100000000E-03 0.  1.
         11   -1    0    0    0    0 -0.00000000000E+00 -0.00000000000E+00 -0.45593999997E+02  0.45594000000E+02  0.51100000000E-03 0. -1.
         23    2    1    2    0    0  0.00000000000E+00  0.00000000000E+00  0.00000000000E+00  0.91188000000E+02  0.91188000000E+02 0.  0.
    9900012    2    3    3    0    0 -0.16095404114E+02  0.17836296348E+02 -0.27902901980E+02  0.54367252589E+02  0.40000383926E+02 0.  0.
        -12    1    3    3    0    0  0.16095404114E+02 -0.17836296348E+02  0.27902901980E+02  0.36820747411E+02  0.00000000000E+00 0.  1.
         11    1    4    4    0    0 -0.64286995236E+01 -0.68934690622E+01  0.13938314275E+01  0.95284237723E+01  0.51100000000E-03 0. -1.
        -11    1    4    4    0    0 -0.36483614769E+01 -0.97518935345E+00  0.16844087960E+01  0.41350657788E+01  0.51100000000E-03 0.  1.
        -12    1    4    4    0    0 -0.60183431130E+01  0.25704954764E+02 -0.30981142203E+02  0.40703763038E+02  0.00000000000E+00 0.  1.
</event>
<event>
 8    1  0.2500956E-006  0.9118800E+02  0.7816164E-02  0.1184000E+00
        -11   -1    0    0    0    0  0.00000000000E+00  0.00000000000E+00  0.45593999997E+02  0.45594000000E+02  0.51100000000E-03 0. -1.
         11   -1    0    0    0    0 -0.00000000000E+00 -0.00000000000E+00 -0.45593999997E+02  0.45594000000E+02  0.51100000000E-03 0.  1.
         23    2    1    2    0    0  0.00000000000E+00  0.35527136788E-14  0.00000000000E+00  0.91188000000E+02  0.91188000000E+02 0.  0.
    9900012    2    3    3    0    0 -0.23663475120E+02  0.19255520168E+02 -0.20616586959E+02  0.54367098741E+02  0.40000033200E+02 0.  0.
        -12    1    3    3    0    0  0.23663475120E+02 -0.19255520168E+02  0.20616586959E+02  0.36820901259E+02  0.00000000000E+00 0.  1.
         11    1    4    4    0    0 -0.12737659652E+02  0.13794970565E+02 -0.10941441806E+02  0.21731643641E+02  0.51100000000E-03 0. -1.
        -11    1    4    4    0    0  0.91402153511E+01  0.31155052860E+00  0.12241233729E+01  0.92270839755E+01  0.51100000000E-03 0.  1.
        -12    1    4    4    0    0 -0.20066030819E+02  0.51489990737E+01 -0.10899268526E+02  0.23408371124E+02  0.00000000000E+00 0.  1.
</event>
<event>
 8    1  0.2500956E-006  0.9118800E+02  0.7816164E-02  0.1184000E+00
        -11   -1    0    0    0    0  0.00000000000E+00  0.00000000000E+00  0.45593999997E+02  0.45594000000E+02  0.51100000000E-03 0.  1.
         11   -1    0    0    0    0 -0.00000000000E+00 -0.00000000000E+00 -0.45593999997E+02  0.45594000000E+02  0.51100000000E-03 0. -1.
         23    2    1    2    0    0  0.00000000000E+00  0.18873791419E-14  0.88817841970E-15  0.91188000000E+02  0.91188000000E+02 0.  0.
    9900012    2    3    3    0    0  0.36413759324E+02  0.79307062097E+00  0.54026494727E+01  0.54367089494E+02  0.40000012120E+02 0.  0.
         12    1    3    3    0    0 -0.36413759324E+02 -0.79307062097E+00 -0.54026494727E+01  0.36820910506E+02  0.00000000000E+00 0. -1.
         11    1    4    4    0    0  0.16743630439E+02 -0.14332711596E+02  0.10704391246E+02  0.24502240187E+02  0.51100000000E-03 0. -1.
        -11    1    4    4    0    0  0.51060113827E+01 -0.20293601843E+01  0.25143887923E+01  0.60425000006E+01  0.51100000000E-03 0.  1.
        -12    1    4    4    0    0  0.14564117503E+02  0.17155142402E+02 -0.78161305659E+01  0.23822349306E+02  0.00000000000E+00 0.  1.
</event>
<event>
 8    1  0.2500956E-006  0.9118800E+02  0.7816164E-02  0.1184000E+00
        -11   -1    0    0    0    0  0.00000000000E+00  0.00000000000E+00  0.45593999997E+02  0.45594000000E+02  0.51100000000E-03 0.  1.
         11   -1    0    0    0    0 -0.00000000000E+00 -0.00000000000E+00 -0.45593999997E+02  0.45594000000E+02  0.51100000000E-03 0. -1.
         23    2    1    2    0    0  0.17763568394E-14  0.00000000000E+00  0.17763568394E-14  0.91188000000E+02  0.91188000000E+02 0.  0.
    9900012    2    3    3    0    0  0.10078080509E+02 -0.35280812109E+02  0.30787245138E+01  0.54367055493E+02  0.39999934606E+02 0.  0.
         12    1    3    3    0    0 -0.10078080509E+02  0.35280812109E+02 -0.30787245138E+01  0.36820944507E+02  0.00000000000E+00 0. -1.
         11    1    4    4    0    0  0.40669754600E+01 -0.29721655484E+01 -0.60705984174E+01  0.78883599592E+01  0.51100000000E-03 0. -1.
        -11    1    4    4    0    0 -0.41413048397E+01 -0.29421525753E+02 -0.35981331529E+01  0.29928634213E+02  0.51100000000E-03 0.  1.
        -12    1    4    4    0    0  0.10152409888E+02 -0.28871208073E+01  0.12747456084E+02  0.16550061320E+02  0.00000000000E+00 0.  1.
</event>
<event>
 8    1  0.2500956E-006  0.9118800E+02  0.7816164E-02  0.1184000E+00
        -11   -1    0    0    0    0  0.00000000000E+00  0.00000000000E+00  0.45593999997E+02  0.45594000000E+02  0.51100000000E-03 0.  1.
         11   -1    0    0    0    0 -0.00000000000E+00 -0.00000000000E+00 -0.45593999997E+02  0.45594000000E+02  0.51100000000E-03 0. -1.
         23    2    1    2    0    0  0.00000000000E+00  0.00000000000E+00  0.00000000000E+00  0.91188000000E+02  0.91188000000E+02 0.  0.
    9900012    2    3    3    0    0  0.21807352668E+02 -0.20850765419E+02  0.21106077352E+02  0.54367060982E+02  0.39999947121E+02 0.  0.
         12    1    3    3    0    0 -0.21807352668E+02  0.20850765419E+02 -0.21106077352E+02  0.36820939018E+02  0.00000000000E+00 0. -1.
         11    1    4    4    0    0  0.13648132926E+02 -0.17440115445E+02 -0.33859798538E+01  0.22402991295E+02  0.51100000000E-03 0. -1.
        -11    1    4    4    0    0 -0.15542623297E+01 -0.88283228675E+01  0.14305420443E+02  0.16881945100E+02  0.51100000000E-03 0.  1.
         12    1    4    4    0    0  0.97134820719E+01  0.54176728936E+01  0.10186636763E+02  0.15082124588E+02  0.00000000000E+00 0. -1.
</event>
<event>
 8    1  0.2500956E-006  0.9118800E+02  0.7816164E-02  0.1184000E+00
        -11   -1    0    0    0    0  0.00000000000E+00  0.00000000000E+00  0.45593999997E+02  0.45594000000E+02  0.51100000000E-03 0.  1.
         11   -1    0    0    0    0 -0.00000000000E+00 -0.00000000000E+00 -0.45593999997E+02  0.45594000000E+02  0.51100000000E-03 0. -1.
         23    2    1    2    0    0 -0.35527136788E-14  0.00000000000E+00  0.00000000000E+00  0.91188000000E+02  0.91188000000E+02 0.  0.
    9900012    2    3    3    0    0  0.20897744156E+02 -0.23618699721E+02 -0.19005887613E+02  0.54367048745E+02  0.39999919225E+02 0.  0.
        -12    1    3    3    0    0 -0.20897744156E+02  0.23618699721E+02  0.19005887613E+02  0.36820951255E+02  0.00000000000E+00 0.  1.
         11    1    4    4    0    0  0.11965376552E+02  0.92227144882E+00 -0.12663694484E+02  0.17446775602E+02  0.51100000000E-03 0. -1.
        -11    1    4    4    0    0  0.15352440888E+02 -0.16312046458E+02  0.33830517977E+01  0.22654477275E+02  0.51100000000E-03 0.  1.
         12    1    4    4    0    0 -0.64200732836E+01 -0.82289247118E+01 -0.97252449270E+01  0.14265795869E+02  0.00000000000E+00 0. -1.
</event>
<event>
 8    1  0.2500956E-006  0.9118800E+02  0.7816164E-02  0.1184000E+00
        -11   -1    0    0    0    0  0.00000000000E+00  0.00000000000E+00  0.45593999997E+02  0.45594000000E+02  0.51100000000E-03 0. -1.
         11   -1    0    0    0    0 -0.00000000000E+00 -0.00000000000E+00 -0.45593999997E+02  0.45594000000E+02  0.51100000000E-03 0.  1.
         23    2    1    2    0    0 -0.26645352591E-14 -0.35527136788E-14  0.71054273576E-14  0.91188000000E+02  0.91188000000E+02 0.  0.
    9900012    2    3    3    0    0  0.66283811426E+01  0.12795929913E+02 -0.33883749598E+02  0.54367085485E+02  0.40000002981E+02 0.  0.
         12    1    3    3    0    0 -0.66283811426E+01 -0.12795929913E+02  0.33883749598E+02  0.36820914515E+02  0.00000000000E+00 0. -1.
         11    1    4    4    0    0  0.46926900687E+01 -0.79322081049E+01  0.10779629171E-01  0.92163648995E+01  0.51100000000E-03 0. -1.
        -11    1    4    4    0    0 -0.66896229516E+00  0.32977659215E+01  0.28426247944E+01  0.44049161863E+01  0.51100000000E-03 0.  1.
        -12    1    4    4    0    0  0.26046533690E+01  0.17430372096E+02 -0.36737154021E+02  0.40745804399E+02  0.00000000000E+00 0.  1.
</event>
<event>
 8    1  0.2500956E-006  0.9118800E+02  0.7816164E-02  0.1184000E+00
        -11   -1    0    0    0    0  0.00000000000E+00  0.00000000000E+00  0.45593999997E+02  0.45594000000E+02  0.51100000000E-03 0.  1.
         11   -1    0    0    0    0 -0.00000000000E+00 -0.00000000000E+00 -0.45593999997E+02  0.45594000000E+02  0.51100000000E-03 0. -1.
         23    2    1    2    0    0  0.00000000000E+00  0.00000000000E+00 -0.17763568394E-14  0.91188000000E+02  0.91188000000E+02 0.  0.
    9900012    2    3    3    0    0 -0.33847419680E+02  0.11089220558E+02 -0.93359507803E+01  0.54367100927E+02  0.40000038183E+02 0.  0.
         12    1    3    3    0    0  0.33847419680E+02 -0.11089220558E+02  0.93359507803E+01  0.36820899073E+02  0.00000000000E+00 0. -1.
         11    1    4    4    0    0 -0.17391871726E+01 -0.54757499804E+01 -0.48413241757E+01  0.75131238446E+01  0.51100000000E-03 0. -1.
        -11    1    4    4    0    0 -0.21285773708E+02 -0.46350822937E+01  0.27876558961E+01  0.21962221560E+02  0.51100000000E-03 0.  1.
        -12    1    4    4    0    0 -0.10822458799E+02  0.21200052832E+02 -0.72822825006E+01  0.24891755522E+02  0.00000000000E+00 0.  1.
</event>
<event>
 8    1  0.2500956E-006  0.9118800E+02  0.7816164E-02  0.1184000E+00
        -11   -1    0    0    0    0  0.00000000000E+00  0.00000000000E+00  0.45593999997E+02  0.45594000000E+02  0.51100000000E-03 0. -1.
         11   -1    0    0    0    0 -0.00000000000E+00 -0.00000000000E+00 -0.45593999997E+02  0.45594000000E+02  0.51100000000E-03 0.  1.
         23    2    1    2    0    0  0.00000000000E+00  0.17763568394E-14 -0.22204460493E-15  0.91188000000E+02  0.91188000000E+02 0.  0.
    9900012    2    3    3    0    0  0.35430287973E+02  0.10005896102E+02  0.59800652947E+00  0.54367070158E+02  0.39999968038E+02 0.  0.
         12    1    3    3    0    0 -0.35430287973E+02 -0.10005896102E+02 -0.59800652947E+00  0.36820929842E+02  0.00000000000E+00 0. -1.
         11    1    4    4    0    0 -0.45086528675E+01  0.22955714225E+01 -0.46668184186E+01  0.68830802152E+01  0.51100000000E-03 0. -1.
        -11    1    4    4    0    0  0.17147602164E+02 -0.77061505571E+01  0.66300544318E+01  0.19934458569E+02  0.51100000000E-03 0.  1.
         12    1    4    4    0    0  0.22791338676E+02  0.15416475236E+02 -0.13652294837E+01  0.27549531374E+02  0.00000000000E+00 0. -1.
</event>
<event>
 8    1  0.2500956E-006  0.9118800E+02  0.7816164E-02  0.1184000E+00
        -11   -1    0    0    0    0  0.00000000000E+00  0.00000000000E+00  0.45593999997E+02  0.45594000000E+02  0.51100000000E-03 0. -1.
         11   -1    0    0    0    0 -0.00000000000E+00 -0.00000000000E+00 -0.45593999997E+02  0.45594000000E+02  0.51100000000E-03 0.  1.
         23    2    1    2    0    0  0.00000000000E+00  0.00000000000E+00  0.35527136788E-14  0.91188000000E+02  0.91188000000E+02 0.  0.
    9900012    2    3    3    0    0  0.12291847590E+02  0.17800163804E+02 -0.29796715606E+02  0.54367087334E+02  0.40000007196E+02 0.  0.
         12    1    3    3    0    0 -0.12291847590E+02 -0.17800163804E+02  0.29796715606E+02  0.36820912666E+02  0.00000000000E+00 0. -1.
         11    1    4    4    0    0  0.10663284779E+02 -0.18739011419E+01 -0.66682379401E+01  0.12715445146E+02  0.51100000000E-03 0. -1.
        -11    1    4    4    0    0  0.37923177566E+01  0.19046303320E+02 -0.29260597289E+02  0.35118739985E+02  0.51100000000E-03 0.  1.
         12    1    4    4    0    0 -0.21637549454E+01  0.62776162581E+00  0.61321196235E+01  0.65329022034E+01  0.00000000000E+00 0. -1.
</event>
<event>
 8    1  0.2500956E-006  0.9118800E+02  0.7816164E-02  0.1184000E+00
        -11   -1    0    0    0    0  0.00000000000E+00  0.00000000000E+00  0.45593999997E+02  0.45594000000E+02  0.51100000000E-03 0. -1.
         11   -1    0    0    0    0 -0.00000000000E+00 -0.00000000000E+00 -0.45593999997E+02  0.45594000000E+02  0.51100000000E-03 0.  1.
         23    2    1    2    0    0 -0.35527136788E-14  0.00000000000E+00 -0.88817841970E-15  0.91188000000E+02  0.91188000000E+02 0.  0.
    9900012    2    3    3    0    0  0.30219885215E+02  0.19601890571E+02  0.76357550729E+01  0.54367077525E+02  0.39999984834E+02 0.  0.
         12    1    3    3    0    0 -0.30219885215E+02 -0.19601890571E+02 -0.76357550729E+01  0.36820922475E+02  0.00000000000E+00 0. -1.
         11    1    4    4    0    0  0.16884832022E+01  0.15717096325E+02 -0.55834181511E+01  0.16764624986E+02  0.51100000000E-03 0. -1.
        -11    1    4    4    0    0  0.30537599398E+02  0.70768249265E+01  0.12587592958E+02  0.33779785742E+02  0.51100000000E-03 0.  1.
        -12    1    4    4    0    0 -0.20061973843E+01 -0.31920306807E+01  0.63158026555E+00  0.38226667973E+01  0.00000000000E+00 0.  1.
</event>
<event>
 8    1  0.2500956E-006  0.9118800E+02  0.7816164E-02  0.1184000E+00
        -11   -1    0    0    0    0  0.00000000000E+00  0.00000000000E+00  0.45593999997E+02  0.45594000000E+02  0.51100000000E-03 0.  1.
         11   -1    0    0    0    0 -0.00000000000E+00 -0.00000000000E+00 -0.45593999997E+02  0.45594000000E+02  0.51100000000E-03 0. -1.
         23    2    1    2    0    0  0.00000000000E+00  0.88817841970E-15  0.00000000000E+00  0.91188000000E+02  0.91188000000E+02 0.  0.
    9900012    2    3    3    0    0  0.19592994353E+02  0.67539613859E+01  0.30434801637E+02  0.54367101412E+02  0.40000039289E+02 0.  0.
         12    1    3    3    0    0 -0.19592994353E+02 -0.67539613859E+01 -0.30434801637E+02  0.36820898588E+02  0.00000000000E+00 0. -1.
         11    1    4    4    0    0  0.28426063608E+01  0.19878141463E-01 -0.51092710626E+01  0.58468330842E+01  0.51100000000E-03 0. -1.
        -11    1    4    4    0    0  0.37565562629E+01  0.15736149793E+02  0.24010583727E+02  0.28952482734E+02  0.51100000000E-03 0.  1.
        -12    1    4    4    0    0  0.12993831729E+02 -0.90020665489E+01  0.11533488973E+02  0.19567785594E+02  0.00000000000E+00 0.  1.
</event>
<event>
 8    1  0.2500956E-006  0.9118800E+02  0.7816164E-02  0.1184000E+00
        -11   -1    0    0    0    0  0.00000000000E+00  0.00000000000E+00  0.45593999997E+02  0.45594000000E+02  0.51100000000E-03 0.  1.
         11   -1    0    0    0    0 -0.00000000000E+00 -0.00000000000E+00 -0.45593999997E+02  0.45594000000E+02  0.51100000000E-03 0. -1.
         23    2    1    2    0    0 -0.10658141036E-13  0.00000000000E+00  0.00000000000E+00  0.91188000000E+02  0.91188000000E+02 0.  0.
    9900012    2    3    3    0    0 -0.31310990122E+02 -0.15230754337E+02  0.11976062759E+02  0.54367081227E+02  0.39999993274E+02 0.  0.
         12    1    3    3    0    0  0.31310990122E+02  0.15230754337E+02 -0.11976062759E+02  0.36820918773E+02  0.00000000000E+00 0. -1.
         11    1    4    4    0    0 -0.98879619495E+01 -0.20067598151E+01 -0.36114688329E+01  0.10716416559E+02  0.51100000000E-03 0. -1.
        -11    1    4    4    0    0  0.82143459546E+00 -0.14209188135E+02  0.15955763659E+02  0.21381351138E+02  0.51100000000E-03 0.  1.
        -12    1    4    4    0    0 -0.22244462768E+02  0.98519361369E+00 -0.36823206803E+00  0.22269313531E+02  0.00000000000E+00 0.  1.
</event>
<event>
 8    1  0.2500956E-006  0.9118800E+02  0.7816164E-02  0.1184000E+00
        -11   -1    0    0    0    0  0.00000000000E+00  0.00000000000E+00  0.45593999997E+02  0.45594000000E+02  0.51100000000E-03 0.  1.
         11   -1    0    0    0    0 -0.00000000000E+00 -0.00000000000E+00 -0.45593999997E+02  0.45594000000E+02  0.51100000000E-03 0. -1.
         23    2    1    2    0    0 -0.17763568394E-14 -0.35527136788E-14  0.00000000000E+00  0.91188000000E+02  0.91188000000E+02 0.  0.
    9900012    2    3    3    0    0 -0.15775635869E+02 -0.21010183028E+02  0.25796929978E+02  0.54367081024E+02  0.39999992810E+02 0.  0.
         12    1    3    3    0    0  0.15775635869E+02  0.21010183028E+02 -0.25796929978E+02  0.36820918976E+02  0.00000000000E+00 0. -1.
         11    1    4    4    0    0 -0.14144259349E+02 -0.12958928704E+02  0.15834283825E+01  0.19248406464E+02  0.51100000000E-03 0. -1.
        -11    1    4    4    0    0 -0.91990399663E+01 -0.11825864672E+02  0.21561353719E+02  0.26255768623E+02  0.51100000000E-03 0.  1.
        -12    1    4    4    0    0  0.75676634455E+01  0.37746103476E+01  0.26521478764E+01  0.88629059376E+01  0.00000000000E+00 0.  1.
</event>
<event>
 8    1  0.2500956E-006  0.9118800E+02  0.7816164E-02  0.1184000E+00
        -11   -1    0    0    0    0  0.00000000000E+00  0.00000000000E+00  0.45593999997E+02  0.45594000000E+02  0.51100000000E-03 0.  1.
         11   -1    0    0    0    0 -0.00000000000E+00 -0.00000000000E+00 -0.45593999997E+02  0.45594000000E+02  0.51100000000E-03 0. -1.
         23    2    1    2    0    0  0.35527136788E-14  0.00000000000E+00 -0.17763568394E-14  0.91188000000E+02  0.91188000000E+02 0.  0.
    9900012    2    3    3    0    0 -0.29618406536E+02  0.18735821846E+02  0.11291897101E+02  0.54366973859E+02  0.39999748505E+02 0.  0.
         12    1    3    3    0    0  0.29618406536E+02 -0.18735821846E+02 -0.11291897101E+02  0.36821026141E+02  0.00000000000E+00 0. -1.
         11    1    4    4    0    0  0.24623766058E+01  0.10472202421E+01 -0.33395811643E+01  0.42793424025E+01  0.51100000000E-03 0. -1.
        -11    1    4    4    0    0 -0.12280193491E+02 -0.44946506538E+01 -0.54920561160E+01  0.14183360579E+02  0.51100000000E-03 0.  1.
        -12    1    4    4    0    0 -0.19800589651E+02  0.22183252257E+02  0.20123534381E+02  0.35904270877E+02  0.00000000000E+00 0.  1.
</event>
<event>
 8    1  0.2500956E-006  0.9118800E+02  0.7816164E-02  0.1184000E+00
        -11   -1    0    0    0    0  0.00000000000E+00  0.00000000000E+00  0.45593999997E+02  0.45594000000E+02  0.51100000000E-03 0.  1.
         11   -1    0    0    0    0 -0.00000000000E+00 -0.00000000000E+00 -0.45593999997E+02  0.45594000000E+02  0.51100000000E-03 0. -1.
         23    2    1    2    0    0  0.44408920985E-15  0.35527136788E-14  0.71054273576E-14  0.91188000000E+02  0.91188000000E+02 0.  0.
    9900012    2    3    3    0    0  0.19708169585E+01  0.27103432458E+02  0.24845511710E+02  0.54367087156E+02  0.40000006790E+02 0.  0.
         12    1    3    3    0    0 -0.19708169585E+01 -0.27103432458E+02 -0.24845511710E+02  0.36820912844E+02  0.00000000000E+00 0. -1.
         11    1    4    4    0    0 -0.98796314987E+00  0.15529255491E+01  0.16062081260E+01  0.24428577019E+01  0.51100000000E-03 0. -1.
        -11    1    4    4    0    0  0.56239563457E+00  0.32446570573E+02  0.28286313154E+02  0.43048945898E+02  0.51100000000E-03 0.  1.
         12    1    4    4    0    0  0.23963844738E+01 -0.68960636640E+01 -0.50470095703E+01  0.88752835564E+01  0.00000000000E+00 0. -1.
</event>
<event>
 8    1  0.2500956E-006  0.9118800E+02  0.7816164E-02  0.1184000E+00
        -11   -1    0    0    0    0  0.00000000000E+00  0.00000000000E+00  0.45593999997E+02  0.45594000000E+02  0.51100000000E-03 0.  1.
         11   -1    0    0    0    0 -0.00000000000E+00 -0.00000000000E+00 -0.45593999997E+02  0.45594000000E+02  0.51100000000E-03 0. -1.
         23    2    1    2    0    0 -0.17763568394E-14  0.88817841970E-15  0.00000000000E+00  0.91188000000E+02  0.91188000000E+02 0.  0.
    9900012    2    3    3    0    0  0.14654976521E+02  0.62137026165E+01 -0.33202437314E+02  0.54367078221E+02  0.39999986421E+02 0.  0.
        -12    1    3    3    0    0 -0.14654976521E+02 -0.62137026165E+01  0.33202437314E+02  0.36820921779E+02  0.00000000000E+00 0.  1.
         11    1    4    4    0    0  0.17048007625E+02 -0.80380006200E+00 -0.30488986414E+02  0.34940792082E+02  0.51100000000E-03 0. -1.
        -11    1    4    4    0    0 -0.17015327913E+01 -0.55190864895E+01  0.18539498093E+01  0.60656953167E+01  0.51100000000E-03 0.  1.
         12    1    4    4    0    0 -0.69149831294E+00  0.12536589168E+02 -0.45674007095E+01  0.13360590822E+02  0.00000000000E+00 0. -1.
</event>
<event>
 8    1  0.2500956E-006  0.9118800E+02  0.7816164E-02  0.1184000E+00
        -11   -1    0    0    0    0  0.00000000000E+00  0.00000000000E+00  0.45593999997E+02  0.45594000000E+02  0.51100000000E-03 0. -1.
         11   -1    0    0    0    0 -0.00000000000E+00 -0.00000000000E+00 -0.45593999997E+02  0.45594000000E+02  0.51100000000E-03 0.  1.
         23    2    1    2    0    0  0.00000000000E+00  0.00000000000E+00  0.35527136788E-14  0.91188000000E+02  0.91188000000E+02 0.  0.
    9900012    2    3    3    0    0 -0.17221866407E+02 -0.23808717524E+02 -0.22188521208E+02  0.54367106663E+02  0.40000051260E+02 0.  0.
         12    1    3    3    0    0  0.17221866407E+02  0.23808717524E+02  0.22188521208E+02  0.36820893337E+02  0.00000000000E+00 0. -1.
         11    1    4    4    0    0 -0.11141968243E+02 -0.69555998247E+01 -0.70228190124E+01  0.14894422190E+02  0.51100000000E-03 0.  1.
        -11    1    4    4    0    0 -0.12565275402E+02  0.50930708844E+01 -0.57329570443E+01  0.14720472605E+02  0.51100000000E-03 0. -1.
         12    1    4    4    0    0  0.64853772379E+01 -0.21946188584E+02 -0.94327451518E+01  0.24752211868E+02  0.00000000000E+00 0. -1.
</event>
<event>
 8    1  0.2500956E-006  0.9118800E+02  0.7816164E-02  0.1184000E+00
        -11   -1    0    0    0    0  0.00000000000E+00  0.00000000000E+00  0.45593999997E+02  0.45594000000E+02  0.51100000000E-03 0.  1.
         11   -1    0    0    0    0 -0.00000000000E+00 -0.00000000000E+00 -0.45593999997E+02  0.45594000000E+02  0.51100000000E-03 0. -1.
         23    2    1    2    0    0  0.00000000000E+00  0.00000000000E+00 -0.66613381478E-15  0.91188000000E+02  0.91188000000E+02 0.  0.
    9900012    2    3    3    0    0 -0.24003151641E+02 -0.27902540089E+02 -0.10375372431E+01  0.54367088609E+02  0.40000010103E+02 0.  0.
        -12    1    3    3    0    0  0.24003151641E+02  0.27902540089E+02  0.10375372431E+01  0.36820911391E+02  0.00000000000E+00 0.  1.
         11    1    4    4    0    0 -0.13850804083E+02 -0.16264596081E+02 -0.24678645513E+01  0.21505167173E+02  0.51100000000E-03 0. -1.
        -11    1    4    4    0    0  0.34987971007E+01 -0.17017221168E+02  0.43316611524E+01  0.17905046384E+02  0.51100000000E-03 0.  1.
        -12    1    4    4    0    0 -0.13651144658E+02  0.53792771599E+01 -0.29013338443E+01  0.14956875052E+02  0.00000000000E+00 0.  1.
</event>
<event>
 8    1  0.2500956E-006  0.9118800E+02  0.7816164E-02  0.1184000E+00
        -11   -1    0    0    0    0  0.00000000000E+00  0.00000000000E+00  0.45593999997E+02  0.45594000000E+02  0.51100000000E-03 0. -1.
         11   -1    0    0    0    0 -0.00000000000E+00 -0.00000000000E+00 -0.45593999997E+02  0.45594000000E+02  0.51100000000E-03 0.  1.
         23    2    1    2    0    0  0.00000000000E+00 -0.17763568394E-14  0.00000000000E+00  0.91188000000E+02  0.91188000000E+02 0.  0.
    9900012    2    3    3    0    0 -0.25170951952E+02 -0.73237699265E+01 -0.25856663930E+02  0.54367061694E+02  0.39999948744E+02 0.  0.
         12    1    3    3    0    0  0.25170951952E+02  0.73237699265E+01  0.25856663930E+02  0.36820938306E+02  0.00000000000E+00 0. -1.
         11    1    4    4    0    0  0.53384151943E-01 -0.19925751901E+01  0.86094429978E+00  0.21712740740E+01  0.51100000000E-03 0. -1.
        -11    1    4    4    0    0 -0.20026919221E+02 -0.20445837140E+02 -0.19669469128E+02  0.34727478542E+02  0.51100000000E-03 0.  1.
        -12    1    4    4    0    0 -0.51974168830E+01  0.15114642404E+02 -0.70481391019E+01  0.17468309078E+02  0.00000000000E+00 0.  1.
</event>
<event>
 8    1  0.2500956E-006  0.9118800E+02  0.7816164E-02  0.1184000E+00
        -11   -1    0    0    0    0  0.00000000000E+00  0.00000000000E+00  0.45593999997E+02  0.45594000000E+02  0.51100000000E-03 0. -1.
         11   -1    0    0    0    0 -0.00000000000E+00 -0.00000000000E+00 -0.45593999997E+02  0.45594000000E+02  0.51100000000E-03 0.  1.
         23    2    1    2    0    0  0.00000000000E+00  0.00000000000E+00  0.00000000000E+00  0.91188000000E+02  0.91188000000E+02 0.  0.
    9900012    2    3    3    0    0 -0.33905715695E+02 -0.92230278348E+01  0.11005362687E+02  0.54367084652E+02  0.40000001080E+02 0.  0.
        -12    1    3    3    0    0  0.33905715695E+02  0.92230278348E+01 -0.11005362687E+02  0.36820915348E+02  0.00000000000E+00 0.  1.
         11    1    4    4    0    0 -0.24438979627E+02 -0.65489043408E+01  0.60828143740E+01  0.26022154105E+02  0.51100000000E-03 0. -1.
        -11    1    4    4    0    0 -0.10618409973E+02 -0.13159274084E+02  0.52634601004E+00  0.16917274165E+02  0.51100000000E-03 0.  1.
         12    1    4    4    0    0  0.11516739058E+01  0.10485150590E+02  0.43962023033E+01  0.11427656382E+02  0.00000000000E+00 0. -1.
</event>
<event>
 8    1  0.2500956E-006  0.9118800E+02  0.7816164E-02  0.1184000E+00
        -11   -1    0    0    0    0  0.00000000000E+00  0.00000000000E+00  0.45593999997E+02  0.45594000000E+02  0.51100000000E-03 0.  1.
         11   -1    0    0    0    0 -0.00000000000E+00 -0.00000000000E+00 -0.45593999997E+02  0.45594000000E+02  0.51100000000E-03 0. -1.
         23    2    1    2    0    0  0.99920072216E-15 -0.88817841970E-15  0.00000000000E+00  0.91188000000E+02  0.91188000000E+02 0.  0.
    9900012    2    3    3    0    0  0.57428521246E+00  0.54284852549E+01 -0.36414037073E+02  0.54367077257E+02  0.39999984222E+02 0.  0.
        -12    1    3    3    0    0 -0.57428521246E+00 -0.54284852549E+01  0.36414037073E+02  0.36820922743E+02  0.00000000000E+00 0.  1.
         11    1    4    4    0    0  0.93358816909E+01  0.76235536802E+01 -0.11950480416E+02  0.16973250723E+02  0.51100000000E-03 0. -1.
        -11    1    4    4    0    0  0.85435806574E+01 -0.60428218656E+01 -0.76686998098E+01  0.12973720499E+02  0.51100000000E-03 0.  1.
        -12    1    4    4    0    0 -0.17305177136E+02  0.38477534404E+01 -0.16794856847E+02  0.24420106035E+02  0.00000000000E+00 0.  1.
</event>
<event>
 8    1  0.2500956E-006  0.9118800E+02  0.7816164E-02  0.1184000E+00
        -11   -1    0    0    0    0  0.00000000000E+00  0.00000000000E+00  0.45593999997E+02  0.45594000000E+02  0.51100000000E-03 0.  1.
         11   -1    0    0    0    0 -0.00000000000E+00 -0.00000000000E+00 -0.45593999997E+02  0.45594000000E+02  0.51100000000E-03 0. -1.
         23    2    1    2    0    0  0.00000000000E+00 -0.11102230246E-15  0.35527136788E-14  0.91188000000E+02  0.91188000000E+02 0.  0.
    9900012    2    3    3    0    0  0.33079900885E+02  0.65713745045E+00 -0.16157607820E+02  0.54367082539E+02  0.39999996265E+02 0.  0.
        -12    1    3    3    0    0 -0.33079900885E+02 -0.65713745045E+00  0.16157607820E+02  0.36820917461E+02  0.00000000000E+00 0.  1.
         11    1    4    4    0    0  0.15381687161E+01  0.97774812608E+01 -0.14284103418E+02  0.17378167726E+02  0.51100000000E-03 0. -1.
        -11    1    4    4    0    0  0.25310734026E+02 -0.91113021977E+00  0.31524826171E+01  0.25522569662E+02  0.51100000000E-03 0.  1.
         12    1    4    4    0    0  0.62309981426E+01 -0.82092135906E+01 -0.50259870193E+01  0.11466345152E+02  0.00000000000E+00 0. -1.
</event>
<event>
 8    1  0.2500956E-006  0.9118800E+02  0.7816164E-02  0.1184000E+00
        -11   -1    0    0    0    0  0.00000000000E+00  0.00000000000E+00  0.45593999997E+02  0.45594000000E+02  0.51100000000E-03 0.  1.
         11   -1    0    0    0    0 -0.00000000000E+00 -0.00000000000E+00 -0.45593999997E+02  0.45594000000E+02  0.51100000000E-03 0. -1.
         23    2    1    2    0    0 -0.35527136788E-14  0.35527136788E-14  0.35527136788E-14  0.91188000000E+02  0.91188000000E+02 0.  0.
    9900012    2    3    3    0    0 -0.13622678721E+02  0.18694265666E+02  0.28648317551E+02  0.54367095029E+02  0.40000024738E+02 0.  0.
         12    1    3    3    0    0  0.13622678721E+02 -0.18694265666E+02 -0.28648317551E+02  0.36820904971E+02  0.00000000000E+00 0. -1.
         11    1    4    4    0    0 -0.68363148524E+01 -0.41381532020E+01  0.11457137101E+01  0.80729283937E+01  0.51100000000E-03 0. -1.
        -11    1    4    4    0    0 -0.48534476050E+01  0.28956430188E+02  0.16839746966E+02  0.33846829705E+02  0.51100000000E-03 0.  1.
        -12    1    4    4    0    0 -0.19329162636E+01 -0.61240113201E+01  0.10662856875E+02  0.12447336931E+02  0.00000000000E+00 0.  1.
</event>
<event>
 8    1  0.2500956E-006  0.9118800E+02  0.7816164E-02  0.1184000E+00
        -11   -1    0    0    0    0  0.00000000000E+00  0.00000000000E+00  0.45593999997E+02  0.45594000000E+02  0.51100000000E-03 0.  1.
         11   -1    0    0    0    0 -0.00000000000E+00 -0.00000000000E+00 -0.45593999997E+02  0.45594000000E+02  0.51100000000E-03 0. -1.
         23    2    1    2    0    0 -0.35527136788E-14  0.35527136788E-14  0.00000000000E+00  0.91188000000E+02  0.91188000000E+02 0.  0.
    9900012    2    3    3    0    0  0.24089856362E+02 -0.26240069331E+02 -0.93230284235E+01  0.54367064691E+02  0.39999955576E+02 0.  0.
        -12    1    3    3    0    0 -0.24089856362E+02  0.26240069331E+02  0.93230284235E+01  0.36820935309E+02  0.00000000000E+00 0.  1.
         11    1    4    4    0    0  0.23046702154E+02 -0.18260902661E+01 -0.15131486979E+01  0.23168398846E+02  0.51100000000E-03 0. -1.
        -11    1    4    4    0    0 -0.38387465317E+01 -0.14176210527E+00  0.22757957385E+01  0.44648984237E+01  0.51100000000E-03 0.  1.
        -12    1    4    4    0    0  0.48819007394E+01 -0.24272216960E+02 -0.10085675464E+02  0.26733767421E+02  0.00000000000E+00 0.  1.
</event>
<event>
 8    1  0.2500956E-006  0.9118800E+02  0.7816164E-02  0.1184000E+00
        -11   -1    0    0    0    0  0.00000000000E+00  0.00000000000E+00  0.45593999997E+02  0.45594000000E+02  0.51100000000E-03 0. -1.
         11   -1    0    0    0    0 -0.00000000000E+00 -0.00000000000E+00 -0.45593999997E+02  0.45594000000E+02  0.51100000000E-03 0.  1.
         23    2    1    2    0    0  0.00000000000E+00  0.17763568394E-14  0.00000000000E+00  0.91188000000E+02  0.91188000000E+02 0.  0.
    9900012    2    3    3    0    0  0.31413443762E+02  0.13441598500E+02  0.13722244850E+02  0.54367068142E+02  0.39999963442E+02 0.  0.
         12    1    3    3    0    0 -0.31413443762E+02 -0.13441598500E+02 -0.13722244850E+02  0.36820931858E+02  0.00000000000E+00 0. -1.
         11    1    4    4    0    0  0.71886948388E+01  0.19417041690E+02  0.34068493305E+01  0.20983456914E+02  0.51100000000E-03 0. -1.
        -11    1    4    4    0    0  0.13436724063E+02  0.39706152355E+01 -0.20936706387E+01  0.14166679071E+02  0.51100000000E-03 0.  1.
         12    1    4    4    0    0  0.10788024860E+02 -0.99460584255E+01  0.12409066158E+02  0.19216932156E+02  0.00000000000E+00 0. -1.
</event>
<event>
 8    1  0.2500956E-006  0.9118800E+02  0.7816164E-02  0.1184000E+00
        -11   -1    0    0    0    0  0.00000000000E+00  0.00000000000E+00  0.45593999997E+02  0.45594000000E+02  0.51100000000E-03 0. -1.
         11   -1    0    0    0    0 -0.00000000000E+00 -0.00000000000E+00 -0.45593999997E+02  0.45594000000E+02  0.51100000000E-03 0.  1.
         23    2    1    2    0    0  0.35527136788E-14 -0.71054273576E-14 -0.30531133177E-15  0.91188000000E+02  0.91188000000E+02 0.  0.
    9900012    2    3    3    0    0 -0.21365483383E+02 -0.29988092275E+02  0.10084513014E+00  0.54367085722E+02  0.40000003522E+02 0.  0.
        -12    1    3    3    0    0  0.21365483383E+02  0.29988092275E+02 -0.10084513014E+00  0.36820914278E+02  0.00000000000E+00 0.  1.
         11    1    4    4    0    0 -0.17356745339E+02 -0.21118567927E+02 -0.62484522318E+01  0.28040928580E+02  0.51100000000E-03 0. -1.
        -11    1    4    4    0    0 -0.26006327083E+01 -0.13572151592E+02 -0.44052536051E+01  0.14504235550E+02  0.51100000000E-03 0.  1.
        -12    1    4    4    0    0 -0.14081053358E+01  0.47026272440E+01  0.10754550967E+02  0.11821921592E+02  0.00000000000E+00 0.  1.
</event>
<event>
 8    1  0.2500956E-006  0.9118800E+02  0.7816164E-02  0.1184000E+00
        -11   -1    0    0    0    0  0.00000000000E+00  0.00000000000E+00  0.45593999997E+02  0.45594000000E+02  0.51100000000E-03 0.  1.
         11   -1    0    0    0    0 -0.00000000000E+00 -0.00000000000E+00 -0.45593999997E+02  0.45594000000E+02  0.51100000000E-03 0. -1.
         23    2    1    2    0    0 -0.88817841970E-15 -0.35527136788E-14  0.00000000000E+00  0.91188000000E+02  0.91188000000E+02 0.  0.
    9900012    2    3    3    0    0 -0.57846838587E+01 -0.15365051163E+02 -0.32958034564E+02  0.54367090086E+02  0.40000013469E+02 0.  0.
        -12    1    3    3    0    0  0.57846838587E+01  0.15365051163E+02  0.32958034564E+02  0.36820909914E+02  0.00000000000E+00 0.  1.
         11    1    4    4    0    0 -0.73431834325E+01 -0.41303648650E+01 -0.14263594032E+02  0.16566000477E+02  0.51100000000E-03 0. -1.
        -11    1    4    4    0    0  0.11281379021E+02  0.42398460449E+01 -0.14850865363E+02  0.19125742061E+02  0.51100000000E-03 0.  1.
        -12    1    4    4    0    0 -0.97228794468E+01 -0.15474532343E+02 -0.38435751692E+01  0.18675347548E+02  0.00000000000E+00 0.  1.
</event>
<event>
 8    1  0.2500956E-006  0.9118800E+02  0.7816164E-02  0.1184000E+00
        -11   -1    0    0    0    0  0.00000000000E+00  0.00000000000E+00  0.45593999997E+02  0.45594000000E+02  0.51100000000E-03 0.  1.
         11   -1    0    0    0    0 -0.00000000000E+00 -0.00000000000E+00 -0.45593999997E+02  0.45594000000E+02  0.51100000000E-03 0. -1.
         23    2    1    2    0    0  0.00000000000E+00 -0.15543122345E-14  0.00000000000E+00  0.91188000000E+02  0.91188000000E+02 0.  0.
    9900012    2    3    3    0    0 -0.72145949702E+01  0.19970309472E+01 -0.36051925248E+02  0.54367084378E+02  0.40000000456E+02 0.  0.
        -12    1    3    3    0    0  0.72145949702E+01 -0.19970309472E+01  0.36051925248E+02  0.36820915622E+02  0.00000000000E+00 0.  1.
         11    1    4    4    0    0  0.20154947616E+01  0.11141427533E+02 -0.91481606310E+01  0.14556183215E+02  0.51100000000E-03 0. -1.
        -11    1    4    4    0    0 -0.57094234569E+01  0.86197538819E+01 -0.14704576045E+02  0.17975600967E+02  0.51100000000E-03 0.  1.
        -12    1    4    4    0    0 -0.35206662749E+01 -0.17764150467E+02 -0.12199188572E+02  0.21835300196E+02  0.00000000000E+00 0.  1.
</event>
<event>
 8    1  0.2500956E-006  0.9118800E+02  0.7816164E-02  0.1184000E+00
        -11   -1    0    0    0    0  0.00000000000E+00  0.00000000000E+00  0.45593999997E+02  0.45594000000E+02  0.51100000000E-03 0. -1.
         11   -1    0    0    0    0 -0.00000000000E+00 -0.00000000000E+00 -0.45593999997E+02  0.45594000000E+02  0.51100000000E-03 0.  1.
         23    2    1    2    0    0 -0.35527136788E-14 -0.88817841970E-15  0.00000000000E+00  0.91188000000E+02  0.91188000000E+02 0.  0.
    9900012    2    3    3    0    0  0.24677384247E+02  0.49195321155E+01 -0.26881274336E+02  0.54367109198E+02  0.40000057038E+02 0.  0.
         12    1    3    3    0    0 -0.24677384247E+02 -0.49195321155E+01  0.26881274336E+02  0.36820890802E+02  0.00000000000E+00 0. -1.
         11    1    4    4    0    0  0.13414258388E+02  0.37460378588E+00  0.37745972159E+01  0.13940238179E+02  0.51100000000E-03 0. -1.
        -11    1    4    4    0    0  0.19004565298E+01  0.12859575179E+02 -0.10554770936E+02  0.16744658808E+02  0.51100000000E-03 0.  1.
        -12    1    4    4    0    0  0.93626693293E+01 -0.83146468498E+01 -0.20101100616E+02  0.23682212211E+02  0.00000000000E+00 0.  1.
</event>
<event>
 8    1  0.2500956E-006  0.9118800E+02  0.7816164E-02  0.1184000E+00
        -11   -1    0    0    0    0  0.00000000000E+00  0.00000000000E+00  0.45593999997E+02  0.45594000000E+02  0.51100000000E-03 0. -1.
         11   -1    0    0    0    0 -0.00000000000E+00 -0.00000000000E+00 -0.45593999997E+02  0.45594000000E+02  0.51100000000E-03 0.  1.
         23    2    1    2    0    0  0.00000000000E+00  0.00000000000E+00  0.00000000000E+00  0.91188000000E+02  0.91188000000E+02 0.  0.
    9900012    2    3    3    0    0 -0.22905810375E+02 -0.16104889532E+02  0.23910970700E+02  0.54367107349E+02  0.40000052824E+02 0.  0.
         12    1    3    3    0    0  0.22905810375E+02  0.16104889532E+02 -0.23910970700E+02  0.36820892651E+02  0.00000000000E+00 0. -1.
         11    1    4    4    0    0 -0.25980075572E+02  0.18571800207E+00  0.19289866585E+02  0.32358890139E+02  0.51100000000E-03 0. -1.
        -11    1    4    4    0    0  0.68421079227E+01 -0.60719941357E+01 -0.18593206491E+01  0.93349144156E+01  0.51100000000E-03 0.  1.
         12    1    4    4    0    0 -0.37678427258E+01 -0.10218613399E+02  0.64804247641E+01  0.12673302795E+02  0.00000000000E+00 0. -1.
</event>
<event>
 8    1  0.2500956E-006  0.9118800E+02  0.7816164E-02  0.1184000E+00
        -11   -1    0    0    0    0  0.00000000000E+00  0.00000000000E+00  0.45593999997E+02  0.45594000000E+02  0.51100000000E-03 0.  1.
         11   -1    0    0    0    0 -0.00000000000E+00 -0.00000000000E+00 -0.45593999997E+02  0.45594000000E+02  0.51100000000E-03 0. -1.
         23    2    1    2    0    0  0.00000000000E+00  0.17763568394E-14  0.00000000000E+00  0.91188000000E+02  0.91188000000E+02 0.  0.
    9900012    2    3    3    0    0 -0.29399923038E+02  0.10625363982E+02 -0.19455731151E+02  0.54367091415E+02  0.40000016498E+02 0.  0.
        -12    1    3    3    0    0  0.29399923038E+02 -0.10625363982E+02  0.19455731151E+02  0.36820908585E+02  0.00000000000E+00 0.  1.
         11    1    4    4    0    0 -0.33584103781E+00  0.61192966396E+01 -0.74373673923E+01  0.96370646234E+01  0.51100000000E-03 0. -1.
        -11    1    4    4    0    0 -0.21554673963E+02  0.15870116664E+02 -0.31032979235E+00  0.26768654756E+02  0.51100000000E-03 0.  1.
        -12    1    4    4    0    0 -0.75094080375E+01 -0.11364049321E+02 -0.11708033966E+02  0.17961372036E+02  0.00000000000E+00 0.  1.
</event>
<event>
 8    1  0.2500956E-006  0.9118800E+02  0.7816164E-02  0.1184000E+00
        -11   -1    0    0    0    0  0.00000000000E+00  0.00000000000E+00  0.45593999997E+02  0.45594000000E+02  0.51100000000E-03 0.  1.
         11   -1    0    0    0    0 -0.00000000000E+00 -0.00000000000E+00 -0.45593999997E+02  0.45594000000E+02  0.51100000000E-03 0. -1.
         23    2    1    2    0    0  0.35527136788E-14  0.17763568394E-14  0.35527136788E-14  0.91188000000E+02  0.91188000000E+02 0.  0.
    9900012    2    3    3    0    0 -0.20932423349E+02 -0.95646261646E+01 -0.28742463928E+02  0.54367113894E+02  0.40000067745E+02 0.  0.
        -12    1    3    3    0    0  0.20932423349E+02  0.95646261646E+01  0.28742463928E+02  0.36820886106E+02  0.00000000000E+00 0.  1.
         11    1    4    4    0    0 -0.12540165080E+02 -0.71174463372E+01 -0.28652627532E+02  0.32076266107E+02  0.51100000000E-03 0. -1.
        -11    1    4    4    0    0  0.45535192126E+01 -0.68939845650E+01  0.18478234186E+01  0.84661686760E+01  0.51100000000E-03 0.  1.
         12    1    4    4    0    0 -0.12945777482E+02  0.44468047376E+01 -0.19376598149E+01  0.13824679111E+02  0.00000000000E+00 0. -1.
</event>
<event>
 8    1  0.2500956E-006  0.9118800E+02  0.7816164E-02  0.1184000E+00
        -11   -1    0    0    0    0  0.00000000000E+00  0.00000000000E+00  0.45593999997E+02  0.45594000000E+02  0.51100000000E-03 0. -1.
         11   -1    0    0    0    0 -0.00000000000E+00 -0.00000000000E+00 -0.45593999997E+02  0.45594000000E+02  0.51100000000E-03 0.  1.
         23    2    1    2    0    0  0.00000000000E+00  0.00000000000E+00  0.00000000000E+00  0.91188000000E+02  0.91188000000E+02 0.  0.
    9900012    2    3    3    0    0  0.10324464651E+02  0.63044952673E+01  0.34776982066E+02  0.54367085936E+02  0.40000004008E+02 0.  0.
        -12    1    3    3    0    0 -0.10324464651E+02 -0.63044952673E+01 -0.34776982066E+02  0.36820914064E+02  0.00000000000E+00 0.  1.
         11    1    4    4    0    0 -0.22918418985E+01  0.92978228519E+01  0.28397225004E+02  0.29968390635E+02  0.51100000000E-03 0. -1.
        -11    1    4    4    0    0  0.11593564495E+02  0.69021183359E+01  0.25082356992E+01  0.13723746639E+02  0.51100000000E-03 0.  1.
         12    1    4    4    0    0  0.10227420550E+01 -0.98954459205E+01  0.38715213630E+01  0.10674948662E+02  0.00000000000E+00 0. -1.
</event>
<event>
 8    1  0.2500956E-006  0.9118800E+02  0.7816164E-02  0.1184000E+00
        -11   -1    0    0    0    0  0.00000000000E+00  0.00000000000E+00  0.45593999997E+02  0.45594000000E+02  0.51100000000E-03 0.  1.
         11   -1    0    0    0    0 -0.00000000000E+00 -0.00000000000E+00 -0.45593999997E+02  0.45594000000E+02  0.51100000000E-03 0. -1.
         23    2    1    2    0    0 -0.17763568394E-14  0.00000000000E+00 -0.35527136788E-14  0.91188000000E+02  0.91188000000E+02 0.  0.
    9900012    2    3    3    0    0  0.14247774579E+02 -0.17759944388E+02 -0.28937274128E+02  0.54367074712E+02  0.39999978420E+02 0.  0.
        -12    1    3    3    0    0 -0.14247774579E+02  0.17759944388E+02  0.28937274128E+02  0.36820925288E+02  0.00000000000E+00 0.  1.
         11    1    4    4    0    0  0.38959315938E+01 -0.14368643761E+02 -0.68572112279E+01  0.16390776449E+02  0.51100000000E-03 0. -1.
        -11    1    4    4    0    0  0.34672110378E+01 -0.15796023249E+02 -0.15259253302E+02  0.22234673698E+02  0.51100000000E-03 0.  1.
         12    1    4    4    0    0  0.68846319473E+01  0.12404722622E+02 -0.68208095982E+01  0.15741624565E+02  0.00000000000E+00 0. -1.
</event>
<event>
 8    1  0.2500956E-006  0.9118800E+02  0.7816164E-02  0.1184000E+00
        -11   -1    0    0    0    0  0.00000000000E+00  0.00000000000E+00  0.45593999997E+02  0.45594000000E+02  0.51100000000E-03 0. -1.
         11   -1    0    0    0    0 -0.00000000000E+00 -0.00000000000E+00 -0.45593999997E+02  0.45594000000E+02  0.51100000000E-03 0.  1.
         23    2    1    2    0    0 -0.66613381478E-15  0.00000000000E+00  0.00000000000E+00  0.91188000000E+02  0.91188000000E+02 0.  0.
    9900012    2    3    3    0    0 -0.10500737661E+01  0.32282645722E+02 -0.17677909589E+02  0.54367077182E+02  0.39999984052E+02 0.  0.
         12    1    3    3    0    0  0.10500737661E+01 -0.32282645722E+02  0.17677909589E+02  0.36820922818E+02  0.00000000000E+00 0. -1.
         11    1    4    4    0    0  0.49557029417E+01 -0.67390379841E+01 -0.41936051564E+01  0.93573473307E+01  0.51100000000E-03 0. -1.
        -11    1    4    4    0    0 -0.32948993810E+01  0.12191743626E+02  0.35438131591E+01  0.13116919858E+02  0.51100000000E-03 0.  1.
        -12    1    4    4    0    0 -0.27108773268E+01  0.26829940080E+02 -0.17028117591E+02  0.31892809994E+02  0.00000000000E+00 0.  1.
</event>
<event>
 8    1  0.2500956E-006  0.9118800E+02  0.7816164E-02  0.1184000E+00
        -11   -1    0    0    0    0  0.00000000000E+00  0.00000000000E+00  0.45593999997E+02  0.45594000000E+02  0.51100000000E-03 0.  1.
         11   -1    0    0    0    0 -0.00000000000E+00 -0.00000000000E+00 -0.45593999997E+02  0.45594000000E+02  0.51100000000E-03 0. -1.
         23    2    1    2    0    0  0.00000000000E+00  0.00000000000E+00  0.00000000000E+00  0.91188000000E+02  0.91188000000E+02 0.  0.
    9900012    2    3    3    0    0 -0.10532675924E+02 -0.33756506926E+02  0.10263624728E+02  0.54367068256E+02  0.39999963702E+02 0.  0.
         12    1    3    3    0    0  0.10532675924E+02  0.33756506926E+02 -0.10263624728E+02  0.36820931744E+02  0.00000000000E+00 0. -1.
         11    1    4    4    0    0 -0.22093777624E+02 -0.17331653719E+02  0.95515890854E+01  0.29660648757E+02  0.51100000000E-03 0. -1.
        -11    1    4    4    0    0  0.12775245140E+00 -0.11815441872E+02  0.29466115142E+01  0.12177992733E+02  0.51100000000E-03 0.  1.
        -12    1    4    4    0    0  0.11433349249E+02 -0.46094113354E+01 -0.22345758717E+01  0.12528426766E+02  0.00000000000E+00 0.  1.
</event>
<event>
 8    1  0.2500956E-006  0.9118800E+02  0.7816164E-02  0.1184000E+00
        -11   -1    0    0    0    0  0.00000000000E+00  0.00000000000E+00  0.45593999997E+02  0.45594000000E+02  0.51100000000E-03 0.  1.
         11   -1    0    0    0    0 -0.00000000000E+00 -0.00000000000E+00 -0.45593999997E+02  0.45594000000E+02  0.51100000000E-03 0. -1.
         23    2    1    2    0    0  0.00000000000E+00 -0.17763568394E-14  0.00000000000E+00  0.91188000000E+02  0.91188000000E+02 0.  0.
    9900012    2    3    3    0    0 -0.15548171646E+02  0.11870778688E+02 -0.31194848502E+02  0.54367087447E+02  0.40000007453E+02 0.  0.
        -12    1    3    3    0    0  0.15548171646E+02 -0.11870778688E+02  0.31194848502E+02  0.36820912553E+02  0.00000000000E+00 0.  1.
         11    1    4    4    0    0 -0.41026614508E+01 -0.64842199088E+01 -0.18494182702E+02  0.20022780349E+02  0.51100000000E-03 0. -1.
        -11    1    4    4    0    0  0.63284214137E+01  0.47203040584E+01  0.11925510451E+01  0.79845078902E+01  0.51100000000E-03 0.  1.
         12    1    4    4    0    0 -0.17773931609E+02  0.13634694538E+02 -0.13893216845E+02  0.26359799208E+02  0.00000000000E+00 0. -1.
</event>
<event>
 8    1  0.2500956E-006  0.9118800E+02  0.7816164E-02  0.1184000E+00
        -11   -1    0    0    0    0  0.00000000000E+00  0.00000000000E+00  0.45593999997E+02  0.45594000000E+02  0.51100000000E-03 0. -1.
         11   -1    0    0    0    0 -0.00000000000E+00 -0.00000000000E+00 -0.45593999997E+02  0.45594000000E+02  0.51100000000E-03 0.  1.
         23    2    1    2    0    0  0.17763568394E-14 -0.88817841970E-15  0.00000000000E+00  0.91188000000E+02  0.91188000000E+02 0.  0.
    9900012    2    3    3    0    0  0.13311026035E+02 -0.71782348024E+01  0.33571809945E+02  0.54367124237E+02  0.40000091323E+02 0.  0.
        -12    1    3    3    0    0 -0.13311026035E+02  0.71782348024E+01 -0.33571809945E+02  0.36820875763E+02  0.00000000000E+00 0.  1.
         11    1    4    4    0    0  0.62173013533E+00  0.10942250528E+01  0.91043937565E+01  0.91909663671E+01  0.51100000000E-03 0. -1.
        -11    1    4    4    0    0 -0.31394921311E+01 -0.12839160977E+02 -0.26178241915E+01  0.13474177867E+02  0.51100000000E-03 0.  1.
        -12    1    4    4    0    0  0.15828788031E+02  0.45667011218E+01  0.27085240380E+02  0.31701980003E+02  0.00000000000E+00 0.  1.
</event>
<event>
 8    1  0.2500956E-006  0.9118800E+02  0.7816164E-02  0.1184000E+00
        -11   -1    0    0    0    0  0.00000000000E+00  0.00000000000E+00  0.45593999997E+02  0.45594000000E+02  0.51100000000E-03 0. -1.
         11   -1    0    0    0    0 -0.00000000000E+00 -0.00000000000E+00 -0.45593999997E+02  0.45594000000E+02  0.51100000000E-03 0.  1.
         23    2    1    2    0    0  0.00000000000E+00  0.00000000000E+00  0.00000000000E+00  0.91188000000E+02  0.91188000000E+02 0.  0.
    9900012    2    3    3    0    0 -0.95976049912E+01  0.17032630449E+02  0.31201784773E+02  0.54367137781E+02  0.40000122198E+02 0.  0.
        -12    1    3    3    0    0  0.95976049912E+01 -0.17032630449E+02 -0.31201784773E+02  0.36820862219E+02  0.00000000000E+00 0.  1.
         11    1    4    4    0    0  0.18315408676E+00 -0.77041602464E+01  0.94714336696E+01  0.12210474460E+02  0.51100000000E-03 0. -1.
        -11    1    4    4    0    0 -0.14081031208E+02  0.50429180990E+01  0.44473564017E+01  0.15604020061E+02  0.51100000000E-03 0.  1.
         12    1    4    4    0    0  0.43002721298E+01  0.19693872596E+02  0.17282994702E+02  0.26552643260E+02  0.00000000000E+00 0. -1.
</event>
<event>
 8    1  0.2500956E-006  0.9118800E+02  0.7816164E-02  0.1184000E+00
        -11   -1    0    0    0    0  0.00000000000E+00  0.00000000000E+00  0.45593999997E+02  0.45594000000E+02  0.51100000000E-03 0.  1.
         11   -1    0    0    0    0 -0.00000000000E+00 -0.00000000000E+00 -0.45593999997E+02  0.45594000000E+02  0.51100000000E-03 0. -1.
         23    2    1    2    0    0  0.00000000000E+00  0.00000000000E+00  0.00000000000E+00  0.91188000000E+02  0.91188000000E+02 0.  0.
    9900012    2    3    3    0    0 -0.39976283237E+01  0.32685963152E+02 -0.16475021053E+02  0.54367088305E+02  0.40000009408E+02 0.  0.
        -12    1    3    3    0    0  0.39976283237E+01 -0.32685963152E+02  0.16475021053E+02  0.36820911695E+02  0.00000000000E+00 0.  1.
         11    1    4    4    0    0  0.54291085546E+01  0.25084497109E+02 -0.24710871806E+01  0.25783977332E+02  0.51100000000E-03 0. -1.
        -11    1    4    4    0    0 -0.14354269072E+02  0.88794579860E+01 -0.39814074388E+01  0.17341897825E+02  0.51100000000E-03 0.  1.
         12    1    4    4    0    0  0.49275321934E+01 -0.12779919436E+01 -0.10022526434E+02  0.11241213148E+02  0.00000000000E+00 0. -1.
</event>
<event>
 8    1  0.2500956E-006  0.9118800E+02  0.7816164E-02  0.1184000E+00
        -11   -1    0    0    0    0  0.00000000000E+00  0.00000000000E+00  0.45593999997E+02  0.45594000000E+02  0.51100000000E-03 0. -1.
         11   -1    0    0    0    0 -0.00000000000E+00 -0.00000000000E+00 -0.45593999997E+02  0.45594000000E+02  0.51100000000E-03 0.  1.
         23    2    1    2    0    0  0.35527136788E-14  0.00000000000E+00  0.00000000000E+00  0.91188000000E+02  0.91188000000E+02 0.  0.
    9900012    2    3    3    0    0 -0.17440452858E+02  0.30556737590E+02  0.10857993511E+02  0.54367087041E+02  0.40000006528E+02 0.  0.
        -12    1    3    3    0    0  0.17440452858E+02 -0.30556737590E+02 -0.10857993511E+02  0.36820912959E+02  0.00000000000E+00 0.  1.
         11    1    4    4    0    0 -0.21681545698E+02  0.28517512919E+02  0.16528907489E+02  0.39453044875E+02  0.51100000000E-03 0. -1.
        -11    1    4    4    0    0  0.67461139880E+01  0.60456874251E+01 -0.34565656856E+01  0.96957844954E+01  0.51100000000E-03 0.  1.
         12    1    4    4    0    0 -0.25050211488E+01 -0.40064627538E+01 -0.22143482925E+01  0.52182576704E+01  0.00000000000E+00 0. -1.
</event>
<event>
 8    1  0.2500956E-006  0.9118800E+02  0.7816164E-02  0.1184000E+00
        -11   -1    0    0    0    0  0.00000000000E+00  0.00000000000E+00  0.45593999997E+02  0.45594000000E+02  0.51100000000E-03 0.  1.
         11   -1    0    0    0    0 -0.00000000000E+00 -0.00000000000E+00 -0.45593999997E+02  0.45594000000E+02  0.51100000000E-03 0. -1.
         23    2    1    2    0    0 -0.35527136788E-14  0.00000000000E+00  0.71054273576E-14  0.91188000000E+02  0.91188000000E+02 0.  0.
    9900012    2    3    3    0    0 -0.19195706038E+02  0.19737667953E+02  0.24448460491E+02  0.54367110726E+02  0.40000060523E+02 0.  0.
         12    1    3    3    0    0  0.19195706038E+02 -0.19737667953E+02 -0.24448460491E+02  0.36820889274E+02  0.00000000000E+00 0. -1.
         11    1    4    4    0    0 -0.17305020293E+02  0.22621173219E+02  0.19520148531E+02  0.34528501330E+02  0.51100000000E-03 0. -1.
        -11    1    4    4    0    0 -0.85939272656E+01  0.38288469843E+01  0.64559021708E+00  0.94303998889E+01  0.51100000000E-03 0.  1.
         12    1    4    4    0    0  0.67032415206E+01 -0.67123522509E+01  0.42827217425E+01  0.10408209507E+02  0.00000000000E+00 0. -1.
</event>
<event>
 8    1  0.2500956E-006  0.9118800E+02  0.7816164E-02  0.1184000E+00
        -11   -1    0    0    0    0  0.00000000000E+00  0.00000000000E+00  0.45593999997E+02  0.45594000000E+02  0.51100000000E-03 0.  1.
         11   -1    0    0    0    0 -0.00000000000E+00 -0.00000000000E+00 -0.45593999997E+02  0.45594000000E+02  0.51100000000E-03 0. -1.
         23    2    1    2    0    0 -0.17763568394E-14  0.00000000000E+00 -0.17763568394E-14  0.91188000000E+02  0.91188000000E+02 0.  0.
    9900012    2    3    3    0    0  0.85983353034E+01  0.33254505419E+02  0.13266011108E+02  0.54367074545E+02  0.39999978040E+02 0.  0.
         12    1    3    3    0    0 -0.85983353034E+01 -0.33254505419E+02 -0.13266011108E+02  0.36820925455E+02  0.00000000000E+00 0. -1.
         11    1    4    4    0    0 -0.77225493608E+00  0.37844541754E+01 -0.53712238921E+01  0.66157779174E+01  0.51100000000E-03 0. -1.
        -11    1    4    4    0    0  0.17086705750E+02  0.43646798400E+01  0.87582477926E+01  0.19690425291E+02  0.51100000000E-03 0.  1.
        -12    1    4    4    0    0 -0.77161155108E+01  0.25105371404E+02  0.98789872076E+01  0.28060871336E+02  0.00000000000E+00 0.  1.
</event>
<event>
 8    1  0.2500956E-006  0.9118800E+02  0.7816164E-02  0.1184000E+00
        -11   -1    0    0    0    0  0.00000000000E+00  0.00000000000E+00  0.45593999997E+02  0.45594000000E+02  0.51100000000E-03 0. -1.
         11   -1    0    0    0    0 -0.00000000000E+00 -0.00000000000E+00 -0.45593999997E+02  0.45594000000E+02  0.51100000000E-03 0.  1.
         23    2    1    2    0    0  0.71054273576E-14  0.00000000000E+00  0.00000000000E+00  0.91188000000E+02  0.91188000000E+02 0.  0.
    9900012    2    3    3    0    0  0.32269346005E+02 -0.10478681826E+02 -0.14306170700E+02  0.54367082243E+02  0.39999995589E+02 0.  0.
        -12    1    3    3    0    0 -0.32269346005E+02  0.10478681826E+02  0.14306170700E+02  0.36820917757E+02  0.00000000000E+00 0.  1.
         11    1    4    4    0    0  0.68158255242E+01  0.20843674680E+01 -0.10397812916E+01  0.72028612866E+01  0.51100000000E-03 0. -1.
        -11    1    4    4    0    0 -0.47311570732E+01 -0.61367071049E+01 -0.14323282670E+02  0.16284945442E+02  0.51100000000E-03 0.  1.
        -12    1    4    4    0    0  0.30184677554E+02 -0.64263421889E+01  0.10568932613E+01  0.30879275515E+02  0.00000000000E+00 0.  1.
</event>
<event>
 8    1  0.2500956E-006  0.9118800E+02  0.7816164E-02  0.1184000E+00
        -11   -1    0    0    0    0  0.00000000000E+00  0.00000000000E+00  0.45593999997E+02  0.45594000000E+02  0.51100000000E-03 0. -1.
         11   -1    0    0    0    0 -0.00000000000E+00 -0.00000000000E+00 -0.45593999997E+02  0.45594000000E+02  0.51100000000E-03 0.  1.
         23    2    1    2    0    0  0.00000000000E+00  0.00000000000E+00  0.88817841970E-15  0.91188000000E+02  0.91188000000E+02 0.  0.
    9900012    2    3    3    0    0 -0.35232822256E+02  0.81551495187E+01 -0.69225586948E+01  0.54367081398E+02  0.39999993663E+02 0.  0.
        -12    1    3    3    0    0  0.35232822256E+02 -0.81551495187E+01  0.69225586948E+01  0.36820918602E+02  0.00000000000E+00 0.  1.
         11    1    4    4    0    0 -0.23595215190E+01 -0.65550186386E+01  0.26766315996E+00  0.69718903447E+01  0.51100000000E-03 0. -1.
        -11    1    4    4    0    0 -0.20889205043E+01 -0.49311761453E+01  0.64774476362E+01  0.84046067837E+01  0.51100000000E-03 0.  1.
         12    1    4    4    0    0 -0.30784380233E+02  0.19641344303E+02 -0.13667669491E+02  0.38990584269E+02  0.00000000000E+00 0. -1.
</event>
<event>
 8    1  0.2500956E-006  0.9118800E+02  0.7816164E-02  0.1184000E+00
        -11   -1    0    0    0    0  0.00000000000E+00  0.00000000000E+00  0.45593999997E+02  0.45594000000E+02  0.51100000000E-03 0.  1.
         11   -1    0    0    0    0 -0.00000000000E+00 -0.00000000000E+00 -0.45593999997E+02  0.45594000000E+02  0.51100000000E-03 0. -1.
         23    2    1    2    0    0  0.35527136788E-14  0.00000000000E+00 -0.44408920985E-15  0.91188000000E+02  0.91188000000E+02 0.  0.
    9900012    2    3    3    0    0  0.21820148992E+02  0.29569391088E+02 -0.23047346803E+01  0.54367087555E+02  0.40000007698E+02 0.  0.
         12    1    3    3    0    0 -0.21820148992E+02 -0.29569391088E+02  0.23047346803E+01  0.36820912445E+02  0.00000000000E+00 0. -1.
         11    1    4    4    0    0  0.14525749850E+02  0.57595852454E+01 -0.12566267996E+02  0.20051965553E+02  0.51100000000E-03 0.  1.
        -11    1    4    4    0    0 -0.44732027251E+01  0.14548417444E+02 -0.14708620919E+01  0.15291482214E+02  0.51100000000E-03 0. -1.
        -12    1    4    4    0    0  0.11767601867E+02  0.92613883982E+01  0.11732395408E+02  0.19023639788E+02  0.00000000000E+00 0.  1.
</event>
<event>
 8    1  0.2500956E-006  0.9118800E+02  0.7816164E-02  0.1184000E+00
        -11   -1    0    0    0    0  0.00000000000E+00  0.00000000000E+00  0.45593999997E+02  0.45594000000E+02  0.51100000000E-03 0.  1.
         11   -1    0    0    0    0 -0.00000000000E+00 -0.00000000000E+00 -0.45593999997E+02  0.45594000000E+02  0.51100000000E-03 0. -1.
         23    2    1    2    0    0  0.00000000000E+00  0.00000000000E+00  0.17763568394E-14  0.91188000000E+02  0.91188000000E+02 0.  0.
    9900012    2    3    3    0    0  0.33520466077E+02 -0.51860411285E+01 -0.14327133727E+02  0.54367035463E+02  0.39999888945E+02 0.  0.
         12    1    3    3    0    0 -0.33520466077E+02  0.51860411285E+01  0.14327133727E+02  0.36820964537E+02  0.00000000000E+00 0. -1.
         11    1    4    4    0    0  0.13742629552E+02 -0.72960691898E-01  0.34341746455E+01  0.14165406666E+02  0.51100000000E-03 0. -1.
        -11    1    4    4    0    0 -0.21107907482E+01 -0.48336261407E+01  0.59361246555E+01  0.79408409779E+01  0.51100000000E-03 0.  1.
         12    1    4    4    0    0  0.21888627273E+02 -0.27945429586E+00 -0.23697433028E+02  0.32260787819E+02  0.00000000000E+00 0. -1.
</event>
<event>
 8    1  0.2500956E-006  0.9118800E+02  0.7816164E-02  0.1184000E+00
        -11   -1    0    0    0    0  0.00000000000E+00  0.00000000000E+00  0.45593999997E+02  0.45594000000E+02  0.51100000000E-03 0. -1.
         11   -1    0    0    0    0 -0.00000000000E+00 -0.00000000000E+00 -0.45593999997E+02  0.45594000000E+02  0.51100000000E-03 0.  1.
         23    2    1    2    0    0 -0.12524703497E-14  0.00000000000E+00 -0.17763568394E-14  0.91188000000E+02  0.91188000000E+02 0.  0.
    9900012    2    3    3    0    0  0.26831386879E-01 -0.34241830815E+02 -0.13537950283E+02  0.54367084811E+02  0.40000001443E+02 0.  0.
         12    1    3    3    0    0 -0.26831386879E-01  0.34241830815E+02  0.13537950283E+02  0.36820915189E+02  0.00000000000E+00 0. -1.
         11    1    4    4    0    0 -0.48997423795E+01 -0.82596782546E+01 -0.13192305090E+02  0.16317679802E+02  0.51100000000E-03 0. -1.
        -11    1    4    4    0    0  0.12568615821E+02 -0.45001043975E+01 -0.58784069594E+01  0.14586867789E+02  0.51100000000E-03 0.  1.
        -12    1    4    4    0    0 -0.76420420550E+01 -0.21482048163E+02  0.55327617665E+01  0.23462537220E+02  0.00000000000E+00 0.  1.
</event>
<event>
 8    1  0.2500956E-006  0.9118800E+02  0.7816164E-02  0.1184000E+00
        -11   -1    0    0    0    0  0.00000000000E+00  0.00000000000E+00  0.45593999997E+02  0.45594000000E+02  0.51100000000E-03 0.  1.
         11   -1    0    0    0    0 -0.00000000000E+00 -0.00000000000E+00 -0.45593999997E+02  0.45594000000E+02  0.51100000000E-03 0. -1.
         23    2    1    2    0    0  0.00000000000E+00  0.00000000000E+00  0.00000000000E+00  0.91188000000E+02  0.91188000000E+02 0.  0.
    9900012    2    3    3    0    0  0.15997239292E+02 -0.31681810982E+02  0.98045968335E+01  0.54367096547E+02  0.40000028197E+02 0.  0.
         12    1    3    3    0    0 -0.15997239292E+02  0.31681810982E+02 -0.98045968335E+01  0.36820903453E+02  0.00000000000E+00 0. -1.
         11    1    4    4    0    0  0.81909878878E+01 -0.29865360358E+02  0.14516834462E+02  0.34201908060E+02  0.51100000000E-03 0.  1.
        -11    1    4    4    0    0 -0.37342953313E+01  0.81791862197E+00 -0.71237345776E+01  0.80846488537E+01  0.51100000000E-03 0. -1.
         12    1    4    4    0    0  0.11540546736E+02 -0.26343692458E+01  0.24114969490E+01  0.12080539633E+02  0.00000000000E+00 0. -1.
</event>
<event>
 8    1  0.2500956E-006  0.9118800E+02  0.7816164E-02  0.1184000E+00
        -11   -1    0    0    0    0  0.00000000000E+00  0.00000000000E+00  0.45593999997E+02  0.45594000000E+02  0.51100000000E-03 0. -1.
         11   -1    0    0    0    0 -0.00000000000E+00 -0.00000000000E+00 -0.45593999997E+02  0.45594000000E+02  0.51100000000E-03 0.  1.
         23    2    1    2    0    0  0.00000000000E+00  0.35527136788E-14  0.17763568394E-14  0.91188000000E+02  0.91188000000E+02 0.  0.
    9900012    2    3    3    0    0 -0.23922229605E+02  0.23338166261E+02  0.15454365303E+02  0.54367075506E+02  0.39999980230E+02 0.  0.
        -12    1    3    3    0    0  0.23922229605E+02 -0.23338166261E+02 -0.15454365303E+02  0.36820924494E+02  0.00000000000E+00 0.  1.
         11    1    4    4    0    0 -0.85893615401E+01  0.22499036880E+02  0.17055987434E+02  0.29510853933E+02  0.51100000000E-03 0. -1.
        -11    1    4    4    0    0  0.39139978109E+01 -0.31194132234E+01 -0.14317062970E+01  0.52057565160E+01  0.51100000000E-03 0.  1.
         12    1    4    4    0    0 -0.19246865875E+02  0.39585426043E+01 -0.16991583402E+00  0.19650465057E+02  0.00000000000E+00 0. -1.
</event>
<event>
 8    1  0.2500956E-006  0.9118800E+02  0.7816164E-02  0.1184000E+00
        -11   -1    0    0    0    0  0.00000000000E+00  0.00000000000E+00  0.45593999997E+02  0.45594000000E+02  0.51100000000E-03 0. -1.
         11   -1    0    0    0    0 -0.00000000000E+00 -0.00000000000E+00 -0.45593999997E+02  0.45594000000E+02  0.51100000000E-03 0.  1.
         23    2    1    2    0    0  0.35527136788E-14  0.71054273576E-14  0.53290705182E-14  0.91188000000E+02  0.91188000000E+02 0.  0.
    9900012    2    3    3    0    0 -0.19599372193E+02 -0.28110367393E+02 -0.13470401333E+02  0.54367083969E+02  0.39999999523E+02 0.  0.
         12    1    3    3    0    0  0.19599372193E+02  0.28110367393E+02  0.13470401333E+02  0.36820916031E+02  0.00000000000E+00 0. -1.
         11    1    4    4    0    0  0.49550824649E+01 -0.72322026366E+01 -0.41873097240E+01  0.97155113194E+01  0.51100000000E-03 0. -1.
        -11    1    4    4    0    0 -0.15011402787E+02 -0.59719943849E+01  0.95819889601E+01  0.18783541819E+02  0.51100000000E-03 0.  1.
        -12    1    4    4    0    0 -0.95430518708E+01 -0.14906170371E+02 -0.18865080569E+02  0.25868030830E+02  0.00000000000E+00 0.  1.
</event>
<event>
 8    1  0.2500956E-006  0.9118800E+02  0.7816164E-02  0.1184000E+00
        -11   -1    0    0    0    0  0.00000000000E+00  0.00000000000E+00  0.45593999997E+02  0.45594000000E+02  0.51100000000E-03 0. -1.
         11   -1    0    0    0    0 -0.00000000000E+00 -0.00000000000E+00 -0.45593999997E+02  0.45594000000E+02  0.51100000000E-03 0.  1.
         23    2    1    2    0    0  0.17763568394E-14 -0.71054273576E-14 -0.17763568394E-14  0.91188000000E+02  0.91188000000E+02 0.  0.
    9900012    2    3    3    0    0  0.14365096862E+02  0.32233089113E+02  0.10509563454E+02  0.54367096078E+02  0.40000027130E+02 0.  0.
         12    1    3    3    0    0 -0.14365096862E+02 -0.32233089113E+02 -0.10509563454E+02  0.36820903922E+02  0.00000000000E+00 0. -1.
         11    1    4    4    0    0  0.17273268485E+02  0.95246414344E+01  0.17606810149E+02  0.26440203526E+02  0.51100000000E-03 0. -1.
        -11    1    4    4    0    0  0.18242534156E+01  0.15657816965E+02 -0.10323243064E+02  0.18843154732E+02  0.51100000000E-03 0.  1.
        -12    1    4    4    0    0 -0.47324250393E+01  0.70506307131E+01  0.32259963691E+01  0.90837378198E+01  0.00000000000E+00 0.  1.
</event>
<event>
 8    1  0.2500956E-006  0.9118800E+02  0.7816164E-02  0.1184000E+00
        -11   -1    0    0    0    0  0.00000000000E+00  0.00000000000E+00  0.45593999997E+02  0.45594000000E+02  0.51100000000E-03 0. -1.
         11   -1    0    0    0    0 -0.00000000000E+00 -0.00000000000E+00 -0.45593999997E+02  0.45594000000E+02  0.51100000000E-03 0.  1.
         23    2    1    2    0    0  0.00000000000E+00  0.00000000000E+00  0.00000000000E+00  0.91188000000E+02  0.91188000000E+02 0.  0.
    9900012    2    3    3    0    0  0.14894873119E+02  0.65198968594E+01 -0.33036576632E+02  0.54367059003E+02  0.39999942610E+02 0.  0.
         12    1    3    3    0    0 -0.14894873119E+02 -0.65198968594E+01  0.33036576632E+02  0.36820940997E+02  0.00000000000E+00 0. -1.
         11    1    4    4    0    0  0.10528670859E+02  0.61434954047E+01 -0.27227092112E+02  0.29831359188E+02  0.51100000000E-03 0. -1.
        -11    1    4    4    0    0  0.53088393118E+00  0.27188262586E+01 -0.14494498538E+02  0.14756840519E+02  0.51100000000E-03 0.  1.
         12    1    4    4    0    0  0.38353183291E+01 -0.23424248039E+01  0.86850140180E+01  0.97788592964E+01  0.00000000000E+00 0. -1.
</event>
<event>
 8    1  0.2500956E-006  0.9118800E+02  0.7816164E-02  0.1184000E+00
        -11   -1    0    0    0    0  0.00000000000E+00  0.00000000000E+00  0.45593999997E+02  0.45594000000E+02  0.51100000000E-03 0. -1.
         11   -1    0    0    0    0 -0.00000000000E+00 -0.00000000000E+00 -0.45593999997E+02  0.45594000000E+02  0.51100000000E-03 0.  1.
         23    2    1    2    0    0 -0.17763568394E-14  0.00000000000E+00 -0.17763568394E-14  0.91188000000E+02  0.91188000000E+02 0.  0.
    9900012    2    3    3    0    0 -0.91754951765E+01 -0.34123913258E+02 -0.10351338661E+02  0.54367063295E+02  0.39999952394E+02 0.  0.
         12    1    3    3    0    0  0.91754951765E+01  0.34123913258E+02  0.10351338661E+02  0.36820936705E+02  0.00000000000E+00 0. -1.
         11    1    4    4    0    0 -0.32381532182E+00 -0.72205027390E+01  0.13921778811E+02  0.15686186333E+02  0.51100000000E-03 0. -1.
        -11    1    4    4    0    0 -0.62433255167E+01 -0.15276311741E+02 -0.20208213051E+02  0.26090547884E+02  0.51100000000E-03 0.  1.
        -12    1    4    4    0    0 -0.26083543380E+01 -0.11627098778E+02 -0.40649044208E+01  0.12590329078E+02  0.00000000000E+00 0.  1.
</event>
<event>
 8    1  0.2500956E-006  0.9118800E+02  0.7816164E-02  0.1184000E+00
        -11   -1    0    0    0    0  0.00000000000E+00  0.00000000000E+00  0.45593999997E+02  0.45594000000E+02  0.51100000000E-03 0. -1.
         11   -1    0    0    0    0 -0.00000000000E+00 -0.00000000000E+00 -0.45593999997E+02  0.45594000000E+02  0.51100000000E-03 0.  1.
         23    2    1    2    0    0  0.00000000000E+00 -0.35527136788E-14  0.00000000000E+00  0.91188000000E+02  0.91188000000E+02 0.  0.
    9900012    2    3    3    0    0 -0.27707140463E+02  0.23126723510E+02  0.72971795615E+01  0.54367084714E+02  0.40000001222E+02 0.  0.
        -12    1    3    3    0    0  0.27707140463E+02 -0.23126723510E+02 -0.72971795615E+01  0.36820915286E+02  0.00000000000E+00 0.  1.
         11    1    4    4    0    0 -0.35232380127E+00  0.17502139688E+02  0.28616355163E+00  0.17508024319E+02  0.51100000000E-03 0. -1.
        -11    1    4    4    0    0 -0.30653054407E+01  0.10608966585E+02 -0.17090317497E+00  0.11044250885E+02  0.51100000000E-03 0.  1.
        -12    1    4    4    0    0 -0.24289511221E+02 -0.49843827623E+01  0.71819191848E+01  0.25814809510E+02  0.00000000000E+00 0.  1.
</event>
<event>
 8    1  0.2500956E-006  0.9118800E+02  0.7816164E-02  0.1184000E+00
        -11   -1    0    0    0    0  0.00000000000E+00  0.00000000000E+00  0.45593999997E+02  0.45594000000E+02  0.51100000000E-03 0. -1.
         11   -1    0    0    0    0 -0.00000000000E+00 -0.00000000000E+00 -0.45593999997E+02  0.45594000000E+02  0.51100000000E-03 0.  1.
         23    2    1    2    0    0  0.71054273576E-14  0.88817841970E-15 -0.22204460493E-15  0.91188000000E+02  0.91188000000E+02 0.  0.
    9900012    2    3    3    0    0 -0.36122549119E+02  0.69080153465E+01  0.17945736451E+01  0.54367085760E+02  0.40000003607E+02 0.  0.
         12    1    3    3    0    0  0.36122549119E+02 -0.69080153465E+01 -0.17945736451E+01  0.36820914240E+02  0.00000000000E+00 0. -1.
         11    1    4    4    0    0 -0.71458153058E+01 -0.10707978869E+02  0.36379362473E+01  0.13377521005E+02  0.51100000000E-03 0. -1.
        -11    1    4    4    0    0 -0.13704162589E+02 -0.24852537025E+01 -0.64148196916E+01  0.15333964594E+02  0.51100000000E-03 0.  1.
         12    1    4    4    0    0 -0.15272571225E+02  0.20101247918E+02  0.45714570894E+01  0.25655600161E+02  0.00000000000E+00 0. -1.
</event>
<event>
 8    1  0.2500956E-006  0.9118800E+02  0.7816164E-02  0.1184000E+00
        -11   -1    0    0    0    0  0.00000000000E+00  0.00000000000E+00  0.45593999997E+02  0.45594000000E+02  0.51100000000E-03 0.  1.
         11   -1    0    0    0    0 -0.00000000000E+00 -0.00000000000E+00 -0.45593999997E+02  0.45594000000E+02  0.51100000000E-03 0. -1.
         23    2    1    2    0    0  0.00000000000E+00 -0.35527136788E-14  0.71054273576E-14  0.91188000000E+02  0.91188000000E+02 0.  0.
    9900012    2    3    3    0    0  0.10391109103E+02 -0.15743613036E+02  0.31621873276E+02  0.54367090596E+02  0.40000014633E+02 0.  0.
         12    1    3    3    0    0 -0.10391109103E+02  0.15743613036E+02 -0.31621873276E+02  0.36820909404E+02  0.00000000000E+00 0. -1.
         11    1    4    4    0    0 -0.12031768602E+02  0.68433557760E+00  0.90184554871E+01  0.15052053366E+02  0.51100000000E-03 0. -1.
        -11    1    4    4    0    0  0.17906670726E+02 -0.33131850591E+01  0.14249548362E+02  0.23123055173E+02  0.51100000000E-03 0.  1.
         12    1    4    4    0    0  0.45162069793E+01 -0.13114763554E+02  0.83538694268E+01  0.16191982058E+02  0.00000000000E+00 0. -1.
</event>
<event>
 8    1  0.2500956E-006  0.9118800E+02  0.7816164E-02  0.1184000E+00
        -11   -1    0    0    0    0  0.00000000000E+00  0.00000000000E+00  0.45593999997E+02  0.45594000000E+02  0.51100000000E-03 0.  1.
         11   -1    0    0    0    0 -0.00000000000E+00 -0.00000000000E+00 -0.45593999997E+02  0.45594000000E+02  0.51100000000E-03 0. -1.
         23    2    1    2    0    0  0.35527136788E-14  0.35527136788E-14  0.00000000000E+00  0.91188000000E+02  0.91188000000E+02 0.  0.
    9900012    2    3    3    0    0  0.26569020000E+02  0.24519918463E+02  0.69743115626E+01  0.54367078679E+02  0.39999987464E+02 0.  0.
         12    1    3    3    0    0 -0.26569020000E+02 -0.24519918463E+02 -0.69743115626E+01  0.36820921321E+02  0.00000000000E+00 0. -1.
         11    1    4    4    0    0  0.12626573223E+02  0.44790067923E+01  0.57313572571E+01  0.14571901368E+02  0.51100000000E-03 0. -1.
        -11    1    4    4    0    0 -0.28848439323E+01  0.13245418522E+02  0.12500183262E+02  0.18439577495E+02  0.51100000000E-03 0.  1.
         12    1    4    4    0    0  0.16827290709E+02  0.67954931489E+01 -0.11257228956E+02  0.21355599816E+02  0.00000000000E+00 0. -1.
</event>
<event>
 8    1  0.2500956E-006  0.9118800E+02  0.7816164E-02  0.1184000E+00
        -11   -1    0    0    0    0  0.00000000000E+00  0.00000000000E+00  0.45593999997E+02  0.45594000000E+02  0.51100000000E-03 0. -1.
         11   -1    0    0    0    0 -0.00000000000E+00 -0.00000000000E+00 -0.45593999997E+02  0.45594000000E+02  0.51100000000E-03 0.  1.
         23    2    1    2    0    0  0.00000000000E+00  0.35527136788E-14  0.00000000000E+00  0.91188000000E+02  0.91188000000E+02 0.  0.
    9900012    2    3    3    0    0  0.30514795222E+02  0.20233147828E+02 -0.39037750429E+01  0.54367184446E+02  0.40000228581E+02 0.  0.
         12    1    3    3    0    0 -0.30514795222E+02 -0.20233147828E+02  0.39037750429E+01  0.36820815554E+02  0.00000000000E+00 0. -1.
         11    1    4    4    0    0  0.12425584342E+02  0.25760396874E+02 -0.96988638467E+01  0.30200350222E+02  0.51100000000E-03 0. -1.
        -11    1    4    4    0    0 -0.11854456930E+01  0.21483623732E+01 -0.46250127709E+00  0.24969281267E+01  0.51100000000E-03 0.  1.
         12    1    4    4    0    0  0.19274656573E+02 -0.76756114191E+01  0.62575900809E+01  0.21669906098E+02  0.00000000000E+00 0. -1.
</event>
<event>
 8    1  0.2500956E-006  0.9118800E+02  0.7816164E-02  0.1184000E+00
        -11   -1    0    0    0    0  0.00000000000E+00  0.00000000000E+00  0.45593999997E+02  0.45594000000E+02  0.51100000000E-03 0. -1.
         11   -1    0    0    0    0 -0.00000000000E+00 -0.00000000000E+00 -0.45593999997E+02  0.45594000000E+02  0.51100000000E-03 0.  1.
         23    2    1    2    0    0  0.17763568394E-14  0.35527136788E-14  0.35527136788E-14  0.91188000000E+02  0.91188000000E+02 0.  0.
    9900012    2    3    3    0    0 -0.11030707046E+02  0.28984989835E+02  0.19848773913E+02  0.54367082582E+02  0.39999996362E+02 0.  0.
        -12    1    3    3    0    0  0.11030707046E+02 -0.28984989835E+02 -0.19848773913E+02  0.36820917418E+02  0.00000000000E+00 0.  1.
         11    1    4    4    0    0  0.41876396476E+01  0.47598182977E+00  0.42968863463E+01  0.60188135920E+01  0.51100000000E-03 0. -1.
        -11    1    4    4    0    0 -0.76263409887E+01 -0.31183237855E+01 -0.52217824555E+01  0.97545903236E+01  0.51100000000E-03 0.  1.
        -12    1    4    4    0    0 -0.75920057048E+01  0.31627331791E+02  0.20773670022E+02  0.38593678666E+02  0.00000000000E+00 0.  1.
</event>
<event>
 8    1  0.2500956E-006  0.9118800E+02  0.7816164E-02  0.1184000E+00
        -11   -1    0    0    0    0  0.00000000000E+00  0.00000000000E+00  0.45593999997E+02  0.45594000000E+02  0.51100000000E-03 0. -1.
         11   -1    0    0    0    0 -0.00000000000E+00 -0.00000000000E+00 -0.45593999997E+02  0.45594000000E+02  0.51100000000E-03 0.  1.
         23    2    1    2    0    0  0.00000000000E+00  0.00000000000E+00 -0.35527136788E-14  0.91188000000E+02  0.91188000000E+02 0.  0.
    9900012    2    3    3    0    0  0.23626601896E+02 -0.75155504716E+01  0.27222796617E+02  0.54367075627E+02  0.39999980507E+02 0.  0.
         12    1    3    3    0    0 -0.23626601896E+02  0.75155504716E+01 -0.27222796617E+02  0.36820924373E+02  0.00000000000E+00 0. -1.
         11    1    4    4    0    0 -0.85099982278E+01 -0.36674921145E+01  0.26528833427E+01  0.96388982015E+01  0.51100000000E-03 0. -1.
        -11    1    4    4    0    0  0.35991731868E+01 -0.35925926767E+01 -0.22537518644E+01  0.55623886503E+01  0.51100000000E-03 0.  1.
        -12    1    4    4    0    0  0.28537426937E+02 -0.25546568040E+00  0.26823665139E+02  0.39165788775E+02  0.00000000000E+00 0.  1.
</event>
<event>
 8    1  0.2500956E-006  0.9118800E+02  0.7816164E-02  0.1184000E+00
        -11   -1    0    0    0    0  0.00000000000E+00  0.00000000000E+00  0.45593999997E+02  0.45594000000E+02  0.51100000000E-03 0.  1.
         11   -1    0    0    0    0 -0.00000000000E+00 -0.00000000000E+00 -0.45593999997E+02  0.45594000000E+02  0.51100000000E-03 0. -1.
         23    2    1    2    0    0 -0.17763568394E-14 -0.71054273576E-14 -0.88817841970E-15  0.91188000000E+02  0.91188000000E+02 0.  0.
    9900012    2    3    3    0    0 -0.96286933679E+01 -0.34841815011E+02 -0.70081150224E+01  0.54367116178E+02  0.40000072952E+02 0.  0.
        -12    1    3    3    0    0  0.96286933679E+01  0.34841815011E+02  0.70081150224E+01  0.36820883822E+02  0.00000000000E+00 0.  1.
         11    1    4    4    0    0 -0.12518502552E+01 -0.16199409195E+02  0.29291278060E+01  0.16509626807E+02  0.51100000000E-03 0. -1.
        -11    1    4    4    0    0 -0.60982222907E-01  0.46438824298E+01  0.66292383489E+01  0.80942055942E+01  0.51100000000E-03 0.  1.
        -12    1    4    4    0    0 -0.83158608898E+01 -0.23286288246E+02 -0.16566481177E+02  0.29763283777E+02  0.00000000000E+00 0.  1.
</event>
<event>
 8    1  0.2500956E-006  0.9118800E+02  0.7816164E-02  0.1184000E+00
        -11   -1    0    0    0    0  0.00000000000E+00  0.00000000000E+00  0.45593999997E+02  0.45594000000E+02  0.51100000000E-03 0. -1.
         11   -1    0    0    0    0 -0.00000000000E+00 -0.00000000000E+00 -0.45593999997E+02  0.45594000000E+02  0.51100000000E-03 0.  1.
         23    2    1    2    0    0 -0.17763568394E-14  0.17763568394E-14 -0.35527136788E-14  0.91188000000E+02  0.91188000000E+02 0.  0.
    9900012    2    3    3    0    0 -0.13658515012E+02  0.13411830399E+02  0.31453887370E+02  0.54367092113E+02  0.40000018089E+02 0.  0.
        -12    1    3    3    0    0  0.13658515012E+02 -0.13411830399E+02 -0.31453887370E+02  0.36820907887E+02  0.00000000000E+00 0.  1.
         11    1    4    4    0    0 -0.44105660752E+01  0.23801639149E+01 -0.71054350747E+01  0.86951412425E+01  0.51100000000E-03 0. -1.
        -11    1    4    4    0    0 -0.36742541506E+01  0.90467481239E+00 -0.14301838822E+01  0.40452448971E+01  0.51100000000E-03 0.  1.
         12    1    4    4    0    0 -0.55736947861E+01  0.10126991672E+02  0.39989506327E+02  0.41626705973E+02  0.00000000000E+00 0. -1.
</event>
<event>
 8    1  0.2500956E-006  0.9118800E+02  0.7816164E-02  0.1184000E+00
        -11   -1    0    0    0    0  0.00000000000E+00  0.00000000000E+00  0.45593999997E+02  0.45594000000E+02  0.51100000000E-03 0.  1.
         11   -1    0    0    0    0 -0.00000000000E+00 -0.00000000000E+00 -0.45593999997E+02  0.45594000000E+02  0.51100000000E-03 0. -1.
         23    2    1    2    0    0  0.00000000000E+00  0.00000000000E+00  0.00000000000E+00  0.91188000000E+02  0.91188000000E+02 0.  0.
    9900012    2    3    3    0    0  0.85555336972E+01  0.19465273725E+02  0.30061351093E+02  0.54367097409E+02  0.40000030163E+02 0.  0.
         12    1    3    3    0    0 -0.85555336972E+01 -0.19465273725E+02 -0.30061351093E+02  0.36820902591E+02  0.00000000000E+00 0. -1.
         11    1    4    4    0    0  0.99593704390E+00 -0.55231785491E+01 -0.33042840663E+01  0.65127325550E+01  0.51100000000E-03 0. -1.
        -11    1    4    4    0    0 -0.72533490853E+01  0.13337360674E+02  0.11903260544E+02  0.19292067658E+02  0.51100000000E-03 0.  1.
        -12    1    4    4    0    0  0.14812945739E+02  0.11651091601E+02  0.21462374616E+02  0.28562297196E+02  0.00000000000E+00 0.  1.
</event>
<event>
 8    1  0.2500956E-006  0.9118800E+02  0.7816164E-02  0.1184000E+00
        -11   -1    0    0    0    0  0.00000000000E+00  0.00000000000E+00  0.45593999997E+02  0.45594000000E+02  0.51100000000E-03 0.  1.
         11   -1    0    0    0    0 -0.00000000000E+00 -0.00000000000E+00 -0.45593999997E+02  0.45594000000E+02  0.51100000000E-03 0. -1.
         23    2    1    2    0    0  0.17763568394E-14 -0.35527136788E-14  0.00000000000E+00  0.91188000000E+02  0.91188000000E+02 0.  0.
    9900012    2    3    3    0    0 -0.13895448776E+02  0.25119540966E+02 -0.23058751125E+02  0.54367070646E+02  0.39999969152E+02 0.  0.
        -12    1    3    3    0    0  0.13895448776E+02 -0.25119540966E+02  0.23058751125E+02  0.36820929354E+02  0.00000000000E+00 0.  1.
         11    1    4    4    0    0 -0.17543806782E+02  0.20061131935E+02 -0.21109581909E+02  0.33997773744E+02  0.51100000000E-03 0. -1.
        -11    1    4    4    0    0  0.15454630327E+01  0.59686530698E+01 -0.10138171565E+02  0.11865740533E+02  0.51100000000E-03 0.  1.
        -12    1    4    4    0    0  0.21028949730E+01 -0.91024403854E+00  0.81890023483E+01  0.85035563700E+01  0.00000000000E+00 0.  1.
</event>
<event>
 8    1  0.2500956E-006  0.9118800E+02  0.7816164E-02  0.1184000E+00
        -11   -1    0    0    0    0  0.00000000000E+00  0.00000000000E+00  0.45593999997E+02  0.45594000000E+02  0.51100000000E-03 0.  1.
         11   -1    0    0    0    0 -0.00000000000E+00 -0.00000000000E+00 -0.45593999997E+02  0.45594000000E+02  0.51100000000E-03 0. -1.
         23    2    1    2    0    0  0.00000000000E+00  0.00000000000E+00  0.44408920985E-14  0.91188000000E+02  0.91188000000E+02 0.  0.
    9900012    2    3    3    0    0 -0.15524994220E+02  0.32996284601E+02  0.50989615834E+01  0.54367086755E+02  0.40000005875E+02 0.  0.
        -12    1    3    3    0    0  0.15524994220E+02 -0.32996284601E+02 -0.50989615834E+01  0.36820913245E+02  0.00000000000E+00 0.  1.
         11    1    4    4    0    0 -0.83341490751E+00  0.30517883078E+01 -0.13709444062E+01  0.34478226622E+01  0.51100000000E-03 0. -1.
        -11    1    4    4    0    0 -0.30102447403E+01  0.13806138353E+01 -0.13672141506E+02  0.14067520094E+02  0.51100000000E-03 0.  1.
        -12    1    4    4    0    0 -0.11681334572E+02  0.28563882458E+02  0.20142047496E+02  0.36851743999E+02  0.00000000000E+00 0.  1.
</event>
<event>
 8    1  0.2500956E-006  0.9118800E+02  0.7816164E-02  0.1184000E+00
        -11   -1    0    0    0    0  0.00000000000E+00  0.00000000000E+00  0.45593999997E+02  0.45594000000E+02  0.51100000000E-03 0.  1.
         11   -1    0    0    0    0 -0.00000000000E+00 -0.00000000000E+00 -0.45593999997E+02  0.45594000000E+02  0.51100000000E-03 0. -1.
         23    2    1    2    0    0  0.00000000000E+00 -0.17763568394E-14 -0.35527136788E-14  0.91188000000E+02  0.91188000000E+02 0.  0.
    9900012    2    3    3    0    0 -0.18515267987E+02  0.11613145113E+02 -0.29632739960E+02  0.54367087931E+02  0.40000008556E+02 0.  0.
         12    1    3    3    0    0  0.18515267987E+02 -0.11613145113E+02  0.29632739960E+02  0.36820912069E+02  0.00000000000E+00 0. -1.
         11    1    4    4    0    0 -0.23788874228E+01 -0.56572999075E+01 -0.77742352027E+01  0.99046898417E+01  0.51100000000E-03 0. -1.
        -11    1    4    4    0    0  0.25693450556E+01 -0.47692553925E+01 -0.13227360337E+02  0.14293718647E+02  0.51100000000E-03 0.  1.
        -12    1    4    4    0    0 -0.18705725620E+02  0.22039700413E+02 -0.86311444205E+01  0.30168679442E+02  0.00000000000E+00 0.  1.
</event>
<event>
 8    1  0.2500956E-006  0.9118800E+02  0.7816164E-02  0.1184000E+00
        -11   -1    0    0    0    0  0.00000000000E+00  0.00000000000E+00  0.45593999997E+02  0.45594000000E+02  0.51100000000E-03 0. -1.
         11   -1    0    0    0    0 -0.00000000000E+00 -0.00000000000E+00 -0.45593999997E+02  0.45594000000E+02  0.51100000000E-03 0.  1.
         23    2    1    2    0    0  0.35527136788E-14  0.00000000000E+00 -0.17763568394E-14  0.91188000000E+02  0.91188000000E+02 0.  0.
    9900012    2    3    3    0    0  0.23251727790E+02 -0.26226722422E+02 -0.11282403531E+02  0.54367130324E+02  0.40000105200E+02 0.  0.
         12    1    3    3    0    0 -0.23251727790E+02  0.26226722422E+02  0.11282403531E+02  0.36820869676E+02  0.00000000000E+00 0. -1.
         11    1    4    4    0    0 -0.17005129244E+00 -0.17614227637E+02 -0.15650554233E+02  0.23563314299E+02  0.51100000000E-03 0. -1.
        -11    1    4    4    0    0  0.11503651065E+02 -0.13070813009E+02  0.19797392704E+00  0.17413194264E+02  0.51100000000E-03 0.  1.
         12    1    4    4    0    0  0.11918128017E+02  0.44583182238E+01  0.41701767748E+01  0.13390621761E+02  0.00000000000E+00 0. -1.
</event>
<event>
 8    1  0.2500956E-006  0.9118800E+02  0.7816164E-02  0.1184000E+00
        -11   -1    0    0    0    0  0.00000000000E+00  0.00000000000E+00  0.45593999997E+02  0.45594000000E+02  0.51100000000E-03 0. -1.
         11   -1    0    0    0    0 -0.00000000000E+00 -0.00000000000E+00 -0.45593999997E+02  0.45594000000E+02  0.51100000000E-03 0.  1.
         23    2    1    2    0    0  0.00000000000E+00  0.35527136788E-14 -0.22204460493E-15  0.91188000000E+02  0.91188000000E+02 0.  0.
    9900012    2    3    3    0    0  0.24926087206E+02 -0.27074688892E+02  0.11965229996E+01  0.54367078376E+02  0.39999986773E+02 0.  0.
         12    1    3    3    0    0 -0.24926087206E+02  0.27074688892E+02 -0.11965229996E+01  0.36820921624E+02  0.00000000000E+00 0. -1.
         11    1    4    4    0    0 -0.74587243855E+01  0.13983899723E+01  0.68850219346E+01  0.10246540454E+02  0.51100000000E-03 0. -1.
        -11    1    4    4    0    0  0.82937403330E+01 -0.10113705714E+02  0.94394666758E+00  0.13113512404E+02  0.51100000000E-03 0.  1.
        -12    1    4    4    0    0  0.24091071258E+02 -0.18359373150E+02 -0.66324456026E+01  0.31007025518E+02  0.00000000000E+00 0.  1.
</event>
<event>
 8    1  0.2500956E-006  0.9118800E+02  0.7816164E-02  0.1184000E+00
        -11   -1    0    0    0    0  0.00000000000E+00  0.00000000000E+00  0.45593999997E+02  0.45594000000E+02  0.51100000000E-03 0. -1.
         11   -1    0    0    0    0 -0.00000000000E+00 -0.00000000000E+00 -0.45593999997E+02  0.45594000000E+02  0.51100000000E-03 0.  1.
         23    2    1    2    0    0  0.00000000000E+00  0.00000000000E+00  0.17763568394E-14  0.91188000000E+02  0.91188000000E+02 0.  0.
    9900012    2    3    3    0    0  0.26738214050E+02 -0.21289643203E+02  0.13696733260E+02  0.54367061659E+02  0.39999948664E+02 0.  0.
        -12    1    3    3    0    0 -0.26738214050E+02  0.21289643203E+02 -0.13696733260E+02  0.36820938341E+02  0.00000000000E+00 0.  1.
         11    1    4    4    0    0  0.16909658075E+02 -0.23162750830E+02 -0.39072560513E+00  0.28681043025E+02  0.51100000000E-03 0. -1.
        -11    1    4    4    0    0 -0.43575180022E+01  0.44047951729E+01  0.11122173211E+01  0.62950147963E+01  0.51100000000E-03 0.  1.
        -12    1    4    4    0    0  0.14186073977E+02 -0.25316875459E+01  0.12975241544E+02  0.19391003838E+02  0.00000000000E+00 0.  1.
</event>
<event>
 8    1  0.2500956E-006  0.9118800E+02  0.7816164E-02  0.1184000E+00
        -11   -1    0    0    0    0  0.00000000000E+00  0.00000000000E+00  0.45593999997E+02  0.45594000000E+02  0.51100000000E-03 0.  1.
         11   -1    0    0    0    0 -0.00000000000E+00 -0.00000000000E+00 -0.45593999997E+02  0.45594000000E+02  0.51100000000E-03 0. -1.
         23    2    1    2    0    0  0.00000000000E+00  0.00000000000E+00  0.00000000000E+00  0.91188000000E+02  0.91188000000E+02 0.  0.
    9900012    2    3    3    0    0  0.91629459227E+01  0.75392084913E+01 -0.34856562446E+02  0.54367093056E+02  0.40000020239E+02 0.  0.
        -12    1    3    3    0    0 -0.91629459227E+01 -0.75392084913E+01  0.34856562446E+02  0.36820906944E+02  0.00000000000E+00 0.  1.
         11    1    4    4    0    0  0.10899509969E+02  0.17624617966E+02 -0.10307389512E+02  0.23144518894E+02  0.51100000000E-03 0.  1.
        -11    1    4    4    0    0 -0.78011057827E+01 -0.20344391391E+01 -0.57859126667E+01  0.99233552638E+01  0.51100000000E-03 0. -1.
        -12    1    4    4    0    0  0.60645417363E+01 -0.80509703356E+01 -0.18763260267E+02  0.21299218898E+02  0.00000000000E+00 0.  1.
</event>
<event>
 8    1  0.2500956E-006  0.9118800E+02  0.7816164E-02  0.1184000E+00
        -11   -1    0    0    0    0  0.00000000000E+00  0.00000000000E+00  0.45593999997E+02  0.45594000000E+02  0.51100000000E-03 0.  1.
         11   -1    0    0    0    0 -0.00000000000E+00 -0.00000000000E+00 -0.45593999997E+02  0.45594000000E+02  0.51100000000E-03 0. -1.
         23    2    1    2    0    0  0.35527136788E-14  0.35527136788E-14  0.00000000000E+00  0.91188000000E+02  0.91188000000E+02 0.  0.
    9900012    2    3    3    0    0 -0.14510540482E+02  0.30893693179E+02  0.13813162224E+02  0.54367088632E+02  0.40000010155E+02 0.  0.
         12    1    3    3    0    0  0.14510540482E+02 -0.30893693179E+02 -0.13813162224E+02  0.36820911368E+02  0.00000000000E+00 0. -1.
         11    1    4    4    0    0 -0.22507048663E+02  0.35478602289E+02  0.11050509822E+02  0.43444357832E+02  0.51100000000E-03 0.  1.
        -11    1    4    4    0    0  0.59598472923E+01 -0.38223552000E+01 -0.39200132464E+00  0.70911102320E+01  0.51100000000E-03 0. -1.
        -12    1    4    4    0    0  0.20366608888E+01 -0.76255390989E+00  0.31546537266E+01  0.38316205679E+01  0.00000000000E+00 0.  1.
</event>
<event>
 8    1  0.2500956E-006  0.9118800E+02  0.7816164E-02  0.1184000E+00
        -11   -1    0    0    0    0  0.00000000000E+00  0.00000000000E+00  0.45593999997E+02  0.45594000000E+02  0.51100000000E-03 0.  1.
         11   -1    0    0    0    0 -0.00000000000E+00 -0.00000000000E+00 -0.45593999997E+02  0.45594000000E+02  0.51100000000E-03 0. -1.
         23    2    1    2    0    0  0.00000000000E+00  0.00000000000E+00  0.00000000000E+00  0.91188000000E+02  0.91188000000E+02 0.  0.
    9900012    2    3    3    0    0  0.37577782885E+01 -0.35699667046E+02 -0.81972021931E+01  0.54367065076E+02  0.39999956454E+02 0.  0.
        -12    1    3    3    0    0 -0.37577782885E+01  0.35699667046E+02  0.81972021931E+01  0.36820934924E+02  0.00000000000E+00 0.  1.
         11    1    4    4    0    0  0.44130487747E+01 -0.80916756879E+01 -0.26312574800E+01  0.95850785659E+01  0.51100000000E-03 0. -1.
        -11    1    4    4    0    0  0.13668818891E+02 -0.10808401083E+02  0.76721303258E+01  0.19039950836E+02  0.51100000000E-03 0.  1.
         12    1    4    4    0    0 -0.14324089378E+02 -0.16799590275E+02 -0.13238075039E+02  0.25742035674E+02  0.00000000000E+00 0. -1.
</event>
<event>
 8    1  0.2500956E-006  0.9118800E+02  0.7816164E-02  0.1184000E+00
        -11   -1    0    0    0    0  0.00000000000E+00  0.00000000000E+00  0.45593999997E+02  0.45594000000E+02  0.51100000000E-03 0.  1.
         11   -1    0    0    0    0 -0.00000000000E+00 -0.00000000000E+00 -0.45593999997E+02  0.45594000000E+02  0.51100000000E-03 0. -1.
         23    2    1    2    0    0 -0.99920072216E-15 -0.17763568394E-14  0.00000000000E+00  0.91188000000E+02  0.91188000000E+02 0.  0.
    9900012    2    3    3    0    0 -0.57444070965E+00 -0.10545821672E+02 -0.35273694475E+02  0.54367111108E+02  0.40000061394E+02 0.  0.
        -12    1    3    3    0    0  0.57444070965E+00  0.10545821672E+02  0.35273694475E+02  0.36820888892E+02  0.00000000000E+00 0.  1.
         11    1    4    4    0    0 -0.26727079392E+01  0.56903022150E+00 -0.10283765817E+02  0.10640629810E+02  0.51100000000E-03 0. -1.
        -11    1    4    4    0    0  0.14181234610E+02 -0.10709213155E+02 -0.26111398897E+02  0.31584803531E+02  0.51100000000E-03 0.  1.
        -12    1    4    4    0    0 -0.12082967380E+02 -0.40563873783E+00  0.11214702391E+01  0.12141677767E+02  0.00000000000E+00 0.  1.
</event>
<event>
 8    1  0.2500956E-006  0.9118800E+02  0.7816164E-02  0.1184000E+00
        -11   -1    0    0    0    0  0.00000000000E+00  0.00000000000E+00  0.45593999997E+02  0.45594000000E+02  0.51100000000E-03 0. -1.
         11   -1    0    0    0    0 -0.00000000000E+00 -0.00000000000E+00 -0.45593999997E+02  0.45594000000E+02  0.51100000000E-03 0.  1.
         23    2    1    2    0    0  0.00000000000E+00  0.00000000000E+00  0.00000000000E+00  0.91188000000E+02  0.91188000000E+02 0.  0.
    9900012    2    3    3    0    0  0.20699728440E+02  0.24697594109E+02 -0.17813752518E+02  0.54367086228E+02  0.40000004674E+02 0.  0.
         12    1    3    3    0    0 -0.20699728440E+02 -0.24697594109E+02  0.17813752518E+02  0.36820913772E+02  0.00000000000E+00 0. -1.
         11    1    4    4    0    0  0.20771143123E+01  0.85268981471E+01  0.36411916247E+01  0.95016142095E+01  0.51100000000E-03 0. -1.
        -11    1    4    4    0    0  0.14771133173E+01  0.21394145595E+02 -0.12618736516E+02  0.24882199280E+02  0.51100000000E-03 0.  1.
        -12    1    4    4    0    0  0.17145500811E+02 -0.52234496332E+01 -0.88362076268E+01  0.19983272739E+02  0.00000000000E+00 0.  1.
</event>
<event>
 8    1  0.2500956E-006  0.9118800E+02  0.7816164E-02  0.1184000E+00
        -11   -1    0    0    0    0  0.00000000000E+00  0.00000000000E+00  0.45593999997E+02  0.45594000000E+02  0.51100000000E-03 0.  1.
         11   -1    0    0    0    0 -0.00000000000E+00 -0.00000000000E+00 -0.45593999997E+02  0.45594000000E+02  0.51100000000E-03 0. -1.
         23    2    1    2    0    0 -0.35527136788E-14  0.71054273576E-14  0.00000000000E+00  0.91188000000E+02  0.91188000000E+02 0.  0.
    9900012    2    3    3    0    0 -0.13671254019E+02  0.33545397378E+02  0.66017036524E+01  0.54367090684E+02  0.40000014833E+02 0.  0.
         12    1    3    3    0    0  0.13671254019E+02 -0.33545397378E+02 -0.66017036524E+01  0.36820909316E+02  0.00000000000E+00 0. -1.
         11    1    4    4    0    0 -0.70738240437E+01  0.18057278398E+01  0.39218067237E+00  0.73111863314E+01  0.51100000000E-03 0. -1.
        -11    1    4    4    0    0 -0.17599240210E+02  0.86588421009E+01 -0.30749981025E+01  0.19853574391E+02  0.51100000000E-03 0.  1.
         12    1    4    4    0    0  0.11001810235E+02  0.23080827438E+02  0.92845210826E+01  0.27202329962E+02  0.00000000000E+00 0. -1.
</event>
<event>
 8    1  0.2500956E-006  0.9118800E+02  0.7816164E-02  0.1184000E+00
        -11   -1    0    0    0    0  0.00000000000E+00  0.00000000000E+00  0.45593999997E+02  0.45594000000E+02  0.51100000000E-03 0. -1.
         11   -1    0    0    0    0 -0.00000000000E+00 -0.00000000000E+00 -0.45593999997E+02  0.45594000000E+02  0.51100000000E-03 0.  1.
         23    2    1    2    0    0 -0.22204460493E-15 -0.35527136788E-14  0.00000000000E+00  0.91188000000E+02  0.91188000000E+02 0.  0.
    9900012    2    3    3    0    0 -0.14605155742E+01 -0.68384834575E+01 -0.36150826118E+02  0.54367079442E+02  0.39999989203E+02 0.  0.
         12    1    3    3    0    0  0.14605155742E+01  0.68384834575E+01  0.36150826118E+02  0.36820920558E+02  0.00000000000E+00 0. -1.
         11    1    4    4    0    0  0.41160861418E+01  0.19293554724E+01  0.63417043096E+00  0.45898529456E+01  0.51100000000E-03 0. -1.
        -11    1    4    4    0    0  0.83587192515E+01  0.78332488935E+01 -0.16530775339E+02  0.20112048860E+02  0.51100000000E-03 0.  1.
        -12    1    4    4    0    0 -0.13935320967E+02 -0.16601087823E+02 -0.20254221210E+02  0.29665177637E+02  0.00000000000E+00 0.  1.
</event>
<event>
 8    1  0.2500956E-006  0.9118800E+02  0.7816164E-02  0.1184000E+00
        -11   -1    0    0    0    0  0.00000000000E+00  0.00000000000E+00  0.45593999997E+02  0.45594000000E+02  0.51100000000E-03 0.  1.
         11   -1    0    0    0    0 -0.00000000000E+00 -0.00000000000E+00 -0.45593999997E+02  0.45594000000E+02  0.51100000000E-03 0. -1.
         23    2    1    2    0    0  0.35527136788E-14  0.17763568394E-14  0.00000000000E+00  0.91188000000E+02  0.91188000000E+02 0.  0.
    9900012    2    3    3    0    0 -0.19920386648E+02  0.15838037079E+02 -0.26610431905E+02  0.54367077838E+02  0.39999985547E+02 0.  0.
        -12    1    3    3    0    0  0.19920386648E+02 -0.15838037079E+02  0.26610431905E+02  0.36820922162E+02  0.00000000000E+00 0.  1.
         11    1    4    4    0    0 -0.50476188863E+01  0.19503620852E+02 -0.13753277861E+02  0.24393079653E+02  0.51100000000E-03 0. -1.
        -11    1    4    4    0    0 -0.24736155311E+00  0.79063871978E+01 -0.12531826783E+01  0.80089083742E+01  0.51100000000E-03 0.  1.
        -12    1    4    4    0    0 -0.14625406208E+02 -0.11571970972E+02 -0.11603971366E+02  0.21965089811E+02  0.00000000000E+00 0.  1.
</event>
<event>
 8    1  0.2500956E-006  0.9118800E+02  0.7816164E-02  0.1184000E+00
        -11   -1    0    0    0    0  0.00000000000E+00  0.00000000000E+00  0.45593999997E+02  0.45594000000E+02  0.51100000000E-03 0. -1.
         11   -1    0    0    0    0 -0.00000000000E+00 -0.00000000000E+00 -0.45593999997E+02  0.45594000000E+02  0.51100000000E-03 0.  1.
         23    2    1    2    0    0  0.00000000000E+00 -0.88817841970E-15  0.00000000000E+00  0.91188000000E+02  0.91188000000E+02 0.  0.
    9900012    2    3    3    0    0  0.32062927216E+02  0.40705511772E+01 -0.17640262462E+02  0.54367088166E+02  0.40000009093E+02 0.  0.
         12    1    3    3    0    0 -0.32062927216E+02 -0.40705511772E+01  0.17640262462E+02  0.36820911834E+02  0.00000000000E+00 0. -1.
         11    1    4    4    0    0  0.31482527554E+01  0.47611968696E+01  0.46852373803E+01  0.73845745046E+01  0.51100000000E-03 0. -1.
        -11    1    4    4    0    0  0.25253125574E+02  0.11881164464E+02 -0.12337695600E+02  0.30513950142E+02  0.51100000000E-03 0.  1.
         12    1    4    4    0    0  0.36615488867E+01 -0.12571810156E+02 -0.99878042418E+01  0.16468563520E+02  0.00000000000E+00 0. -1.
</event>
<event>
 8    1  0.2500956E-006  0.9118800E+02  0.7816164E-02  0.1184000E+00
        -11   -1    0    0    0    0  0.00000000000E+00  0.00000000000E+00  0.45593999997E+02  0.45594000000E+02  0.51100000000E-03 0. -1.
         11   -1    0    0    0    0 -0.00000000000E+00 -0.00000000000E+00 -0.45593999997E+02  0.45594000000E+02  0.51100000000E-03 0.  1.
         23    2    1    2    0    0  0.00000000000E+00  0.00000000000E+00 -0.88817841970E-15  0.91188000000E+02  0.91188000000E+02 0.  0.
    9900012    2    3    3    0    0  0.10128651799E+02  0.35114246633E+02  0.44920881076E+01  0.54367098878E+02  0.40000033511E+02 0.  0.
         12    1    3    3    0    0 -0.10128651799E+02 -0.35114246633E+02 -0.44920881076E+01  0.36820901122E+02  0.00000000000E+00 0. -1.
         11    1    4    4    0    0 -0.25708051233E+00  0.57500902891E+00  0.12703876841E+02  0.12719481626E+02  0.51100000000E-03 0. -1.
        -11    1    4    4    0    0  0.59917395892E+01  0.18701443879E+02 -0.14114324298E+02  0.24183860261E+02  0.51100000000E-03 0.  1.
        -12    1    4    4    0    0  0.43939927222E+01  0.15837793726E+02  0.59025355645E+01  0.17463756991E+02  0.00000000000E+00 0.  1.
</event>
<event>
 8    1  0.2500956E-006  0.9118800E+02  0.7816164E-02  0.1184000E+00
        -11   -1    0    0    0    0  0.00000000000E+00  0.00000000000E+00  0.45593999997E+02  0.45594000000E+02  0.51100000000E-03 0.  1.
         11   -1    0    0    0    0 -0.00000000000E+00 -0.00000000000E+00 -0.45593999997E+02  0.45594000000E+02  0.51100000000E-03 0. -1.
         23    2    1    2    0    0 -0.88817841970E-15  0.00000000000E+00  0.17763568394E-14  0.91188000000E+02  0.91188000000E+02 0.  0.
    9900012    2    3    3    0    0 -0.42448970037E+01  0.36105902761E+02  0.58415552665E+01  0.54367093810E+02  0.40000021958E+02 0.  0.
         12    1    3    3    0    0  0.42448970037E+01 -0.36105902761E+02 -0.58415552665E+01  0.36820906190E+02  0.00000000000E+00 0. -1.
         11    1    4    4    0    0  0.85748447334E+01  0.45665492398E+01 -0.61079110998E+01  0.11475535387E+02  0.51100000000E-03 0. -1.
        -11    1    4    4    0    0 -0.16495690908E+02  0.27502570538E+02  0.27421812466E+01  0.32187245346E+02  0.51100000000E-03 0.  1.
         12    1    4    4    0    0  0.36759491708E+01  0.40367829829E+01  0.92072851198E+01  0.10704313076E+02  0.00000000000E+00 0. -1.
</event>
<event>
 8    1  0.2500956E-006  0.9118800E+02  0.7816164E-02  0.1184000E+00
        -11   -1    0    0    0    0  0.00000000000E+00  0.00000000000E+00  0.45593999997E+02  0.45594000000E+02  0.51100000000E-03 0.  1.
         11   -1    0    0    0    0 -0.00000000000E+00 -0.00000000000E+00 -0.45593999997E+02  0.45594000000E+02  0.51100000000E-03 0. -1.
         23    2    1    2    0    0  0.35527136788E-14  0.00000000000E+00 -0.35527136788E-14  0.91188000000E+02  0.91188000000E+02 0.  0.
    9900012    2    3    3    0    0  0.22315122615E+02  0.20467068345E+01  0.29216892192E+02  0.54367075303E+02  0.39999979768E+02 0.  0.
         12    1    3    3    0    0 -0.22315122615E+02 -0.20467068345E+01 -0.29216892192E+02  0.36820924697E+02  0.00000000000E+00 0. -1.
         11    1    4    4    0    0 -0.49798545602E+01 -0.30744514517E+01  0.46503948713E+01  0.74751171154E+01  0.51100000000E-03 0. -1.
        -11    1    4    4    0    0 -0.56268821779E+01  0.48998544156E+00  0.78750302073E+01  0.96911294390E+01  0.51100000000E-03 0.  1.
        -12    1    4    4    0    0  0.32921859353E+02  0.46311728446E+01  0.16691467114E+02  0.37200828748E+02  0.00000000000E+00 0.  1.
</event>
<event>
 8    1  0.2500956E-006  0.9118800E+02  0.7816164E-02  0.1184000E+00
        -11   -1    0    0    0    0  0.00000000000E+00  0.00000000000E+00  0.45593999997E+02  0.45594000000E+02  0.51100000000E-03 0.  1.
         11   -1    0    0    0    0 -0.00000000000E+00 -0.00000000000E+00 -0.45593999997E+02  0.45594000000E+02  0.51100000000E-03 0. -1.
         23    2    1    2    0    0  0.00000000000E+00 -0.71054273576E-14 -0.17763568394E-14  0.91188000000E+02  0.91188000000E+02 0.  0.
    9900012    2    3    3    0    0  0.70948775515E+01  0.34230612499E+02  0.11563173785E+02  0.54367094151E+02  0.40000022736E+02 0.  0.
         12    1    3    3    0    0 -0.70948775515E+01 -0.34230612499E+02 -0.11563173785E+02  0.36820905849E+02  0.00000000000E+00 0. -1.
         11    1    4    4    0    0  0.72180411389E+01  0.40208880482E+02  0.66281892194E+01  0.41385831876E+02  0.51100000000E-03 0. -1.
        -11    1    4    4    0    0 -0.21603836659E+01  0.13705607666E+01  0.47005087115E+01  0.53516798117E+01  0.51100000000E-03 0.  1.
         12    1    4    4    0    0  0.20372200785E+01 -0.73488287492E+01  0.23447585462E+00  0.76295824630E+01  0.00000000000E+00 0. -1.
</event>
<event>
 8    1  0.2500956E-006  0.9118800E+02  0.7816164E-02  0.1184000E+00
        -11   -1    0    0    0    0  0.00000000000E+00  0.00000000000E+00  0.45593999997E+02  0.45594000000E+02  0.51100000000E-03 0. -1.
         11   -1    0    0    0    0 -0.00000000000E+00 -0.00000000000E+00 -0.45593999997E+02  0.45594000000E+02  0.51100000000E-03 0.  1.
         23    2    1    2    0    0  0.00000000000E+00  0.35527136788E-14  0.00000000000E+00  0.91188000000E+02  0.91188000000E+02 0.  0.
    9900012    2    3    3    0    0 -0.20591188295E+02  0.28924820554E+02  0.97537855518E+01  0.54367100879E+02  0.40000038073E+02 0.  0.
        -12    1    3    3    0    0  0.20591188295E+02 -0.28924820554E+02 -0.97537855518E+01  0.36820899121E+02  0.00000000000E+00 0.  1.
         11    1    4    4    0    0 -0.32851151138E+01  0.42624375512E+01  0.16680561299E+02  0.17527164080E+02  0.51100000000E-03 0.  1.
        -11    1    4    4    0    0  0.34229890462E+01  0.82536943521E+00 -0.36651960003E+01  0.50824945349E+01  0.51100000000E-03 0. -1.
         12    1    4    4    0    0 -0.20729062228E+02  0.23837013568E+02 -0.32615797468E+01  0.31757442263E+02  0.00000000000E+00 0. -1.
</event>
<event>
 8    1  0.2500956E-006  0.9118800E+02  0.7816164E-02  0.1184000E+00
        -11   -1    0    0    0    0  0.00000000000E+00  0.00000000000E+00  0.45593999997E+02  0.45594000000E+02  0.51100000000E-03 0. -1.
         11   -1    0    0    0    0 -0.00000000000E+00 -0.00000000000E+00 -0.45593999997E+02  0.45594000000E+02  0.51100000000E-03 0.  1.
         23    2    1    2    0    0  0.00000000000E+00  0.00000000000E+00  0.00000000000E+00  0.91188000000E+02  0.91188000000E+02 0.  0.
    9900012    2    3    3    0    0  0.27038486284E+01  0.12049855738E+02  0.34688179438E+02  0.54367087282E+02  0.40000007076E+02 0.  0.
        -12    1    3    3    0    0 -0.27038486284E+01 -0.12049855738E+02 -0.34688179438E+02  0.36820912718E+02  0.00000000000E+00 0.  1.
         11    1    4    4    0    0 -0.86161425858E+01 -0.83399531605E+00  0.13720913693E+02  0.16223345341E+02  0.51100000000E-03 0. -1.
        -11    1    4    4    0    0  0.36489098939E+01 -0.77416127599E+01  0.11127798731E+02  0.14038340942E+02  0.51100000000E-03 0.  1.
        -12    1    4    4    0    0  0.76710813203E+01  0.20625463814E+02  0.98394670141E+01  0.24105400998E+02  0.00000000000E+00 0.  1.
</event>
<event>
 8    1  0.2500956E-006  0.9118800E+02  0.7816164E-02  0.1184000E+00
        -11   -1    0    0    0    0  0.00000000000E+00  0.00000000000E+00  0.45593999997E+02  0.45594000000E+02  0.51100000000E-03 0. -1.
         11   -1    0    0    0    0 -0.00000000000E+00 -0.00000000000E+00 -0.45593999997E+02  0.45594000000E+02  0.51100000000E-03 0.  1.
         23    2    1    2    0    0 -0.15265566589E-15  0.00000000000E+00  0.00000000000E+00  0.91188000000E+02  0.91188000000E+02 0.  0.
    9900012    2    3    3    0    0  0.10597116706E+00 -0.29207738672E+02 -0.22420543011E+02  0.54367028026E+02  0.39999871991E+02 0.  0.
         12    1    3    3    0    0 -0.10597116706E+00  0.29207738672E+02  0.22420543011E+02  0.36820971974E+02  0.00000000000E+00 0. -1.
         11    1    4    4    0    0  0.96087812390E+00 -0.24830713910E+02 -0.19926696962E+02  0.31852172486E+02  0.51100000000E-03 0. -1.
        -11    1    4    4    0    0 -0.60657410601E+01 -0.10588679332E+02 -0.60982369166E+01  0.13641914761E+02  0.51100000000E-03 0.  1.
         12    1    4    4    0    0  0.52108341033E+01  0.62116545691E+01  0.36043908677E+01  0.88729407788E+01  0.00000000000E+00 0. -1.
</event>
<event>
 8    1  0.2500956E-006  0.9118800E+02  0.7816164E-02  0.1184000E+00
        -11   -1    0    0    0    0  0.00000000000E+00  0.00000000000E+00  0.45593999997E+02  0.45594000000E+02  0.51100000000E-03 0. -1.
         11   -1    0    0    0    0 -0.00000000000E+00 -0.00000000000E+00 -0.45593999997E+02  0.45594000000E+02  0.51100000000E-03 0.  1.
         23    2    1    2    0    0  0.35527136788E-14  0.00000000000E+00  0.00000000000E+00  0.91188000000E+02  0.91188000000E+02 0.  0.
    9900012    2    3    3    0    0  0.29127834646E+02  0.14389744192E+02  0.17328747870E+02  0.54367068563E+02  0.39999964404E+02 0.  0.
         12    1    3    3    0    0 -0.29127834646E+02 -0.14389744192E+02 -0.17328747870E+02  0.36820931437E+02  0.00000000000E+00 0. -1.
         11    1    4    4    0    0  0.79063058147E+00  0.90058733897E+01  0.58708973353E+01  0.10779530974E+02  0.51100000000E-03 0. -1.
        -11    1    4    4    0    0 -0.46447823008E+01  0.66811724049E+01 -0.12220224872E+01  0.82283295113E+01  0.51100000000E-03 0.  1.
         12    1    4    4    0    0  0.32981986366E+02 -0.12973016029E+01  0.12679873022E+02  0.35359208079E+02  0.00000000000E+00 0. -1.
</event>
<event>
 8    1  0.2500956E-006  0.9118800E+02  0.7816164E-02  0.1184000E+00
        -11   -1    0    0    0    0  0.00000000000E+00  0.00000000000E+00  0.45593999997E+02  0.45594000000E+02  0.51100000000E-03 0. -1.
         11   -1    0    0    0    0 -0.00000000000E+00 -0.00000000000E+00 -0.45593999997E+02  0.45594000000E+02  0.51100000000E-03 0.  1.
         23    2    1    2    0    0  0.00000000000E+00  0.35527136788E-14 -0.35527136788E-14  0.91188000000E+02  0.91188000000E+02 0.  0.
    9900012    2    3    3    0    0  0.55533407958E+01  0.23920911297E+02 -0.27435686668E+02  0.54367265431E+02  0.40000413200E+02 0.  0.
         12    1    3    3    0    0 -0.55533407958E+01 -0.23920911297E+02  0.27435686668E+02  0.36820734569E+02  0.00000000000E+00 0. -1.
         11    1    4    4    0    0 -0.44863478039E+01  0.19656614755E+01 -0.14124078900E+01  0.50976502394E+01  0.51100000000E-03 0. -1.
        -11    1    4    4    0    0  0.15858670829E+02  0.36658279288E+01  0.78900439542E+00  0.16295958489E+02  0.51100000000E-03 0.  1.
        -12    1    4    4    0    0 -0.58189822295E+01  0.18289421893E+02 -0.26812283173E+02  0.32973656702E+02  0.00000000000E+00 0.  1.
</event>
<event>
 8    1  0.2500956E-006  0.9118800E+02  0.7816164E-02  0.1184000E+00
        -11   -1    0    0    0    0  0.00000000000E+00  0.00000000000E+00  0.45593999997E+02  0.45594000000E+02  0.51100000000E-03 0. -1.
         11   -1    0    0    0    0 -0.00000000000E+00 -0.00000000000E+00 -0.45593999997E+02  0.45594000000E+02  0.51100000000E-03 0.  1.
         23    2    1    2    0    0 -0.33306690739E-14  0.00000000000E+00  0.00000000000E+00  0.91188000000E+02  0.91188000000E+02 0.  0.
    9900012    2    3    3    0    0 -0.15857642077E+01 -0.32631015403E+02  0.16984751066E+02  0.54367087693E+02  0.40000008014E+02 0.  0.
        -12    1    3    3    0    0  0.15857642077E+01  0.32631015403E+02 -0.16984751066E+02  0.36820912307E+02  0.00000000000E+00 0.  1.
         11    1    4    4    0    0 -0.14496103581E+02 -0.86675259913E+01  0.29698447229E+01  0.17148848468E+02  0.51100000000E-03 0.  1.
        -11    1    4    4    0    0  0.10670210723E+02 -0.27879138470E+02  0.11104883080E+02  0.31849932294E+02  0.51100000000E-03 0. -1.
         12    1    4    4    0    0  0.22401286503E+01  0.39156490579E+01  0.29100232627E+01  0.53683069309E+01  0.00000000000E+00 0. -1.
</event>
<event>
 8    1  0.2500956E-006  0.9118800E+02  0.7816164E-02  0.1184000E+00
        -11   -1    0    0    0    0  0.00000000000E+00  0.00000000000E+00  0.45593999997E+02  0.45594000000E+02  0.51100000000E-03 0.  1.
         11   -1    0    0    0    0 -0.00000000000E+00 -0.00000000000E+00 -0.45593999997E+02  0.45594000000E+02  0.51100000000E-03 0. -1.
         23    2    1    2    0    0  0.00000000000E+00 -0.22204460493E-15  0.00000000000E+00  0.91188000000E+02  0.91188000000E+02 0.  0.
    9900012    2    3    3    0    0  0.23516131155E+02  0.73568402190E+00  0.28323710609E+02  0.54367051640E+02  0.39999925823E+02 0.  0.
         12    1    3    3    0    0 -0.23516131155E+02 -0.73568402190E+00 -0.28323710609E+02  0.36820948360E+02  0.00000000000E+00 0. -1.
         11    1    4    4    0    0  0.64326272789E+01 -0.18207776409E+01  0.27875545315E+02  0.28666006904E+02  0.51100000000E-03 0. -1.
        -11    1    4    4    0    0 -0.10216868161E+00 -0.54843890462E+01  0.34662834355E+01  0.64887658893E+01  0.51100000000E-03 0.  1.
         12    1    4    4    0    0  0.17185672557E+02  0.80408507090E+01 -0.30181181412E+01  0.19212278847E+02  0.00000000000E+00 0. -1.
</event>
<event>
 8    1  0.2500956E-006  0.9118800E+02  0.7816164E-02  0.1184000E+00
        -11   -1    0    0    0    0  0.00000000000E+00  0.00000000000E+00  0.45593999997E+02  0.45594000000E+02  0.51100000000E-03 0.  1.
         11   -1    0    0    0    0 -0.00000000000E+00 -0.00000000000E+00 -0.45593999997E+02  0.45594000000E+02  0.51100000000E-03 0. -1.
         23    2    1    2    0    0 -0.35527136788E-14  0.00000000000E+00  0.00000000000E+00  0.91188000000E+02  0.91188000000E+02 0.  0.
    9900012    2    3    3    0    0 -0.19855222126E+02 -0.20520396714E+02  0.23247869514E+02  0.54367082522E+02  0.39999996226E+02 0.  0.
         12    1    3    3    0    0  0.19855222126E+02  0.20520396714E+02 -0.23247869514E+02  0.36820917478E+02  0.00000000000E+00 0. -1.
         11    1    4    4    0    0 -0.28204840657E+00 -0.71502842492E+01 -0.78325868817E+01  0.10609219277E+02  0.51100000000E-03 0. -1.
        -11    1    4    4    0    0 -0.65529675275E+01  0.41659874154E+01  0.33449670040E+01  0.84549180410E+01  0.51100000000E-03 0.  1.
        -12    1    4    4    0    0 -0.13020206192E+02 -0.17536099880E+02  0.27735489392E+02  0.35302945204E+02  0.00000000000E+00 0.  1.
</event>
<event>
 8    1  0.2500956E-006  0.9118800E+02  0.7816164E-02  0.1184000E+00
        -11   -1    0    0    0    0  0.00000000000E+00  0.00000000000E+00  0.45593999997E+02  0.45594000000E+02  0.51100000000E-03 0.  1.
         11   -1    0    0    0    0 -0.00000000000E+00 -0.00000000000E+00 -0.45593999997E+02  0.45594000000E+02  0.51100000000E-03 0. -1.
         23    2    1    2    0    0 -0.71054273576E-14 -0.17763568394E-14  0.00000000000E+00  0.91188000000E+02  0.91188000000E+02 0.  0.
    9900012    2    3    3    0    0  0.34809532328E+02  0.83765795733E+01  0.85970831489E+01  0.54367075719E+02  0.39999980716E+02 0.  0.
         12    1    3    3    0    0 -0.34809532328E+02 -0.83765795733E+01 -0.85970831489E+01  0.36820924281E+02  0.00000000000E+00 0. -1.
         11    1    4    4    0    0  0.22916670969E+02  0.20212450049E+02  0.85555227573E+01  0.31731906895E+02  0.51100000000E-03 0. -1.
        -11    1    4    4    0    0 -0.43653426196E+00 -0.93050090022E+01  0.28455030705E+01  0.97401561937E+01  0.51100000000E-03 0.  1.
        -12    1    4    4    0    0  0.12329395621E+02 -0.25308614731E+01 -0.28039426789E+01  0.12895012630E+02  0.00000000000E+00 0.  1.
</event>
<event>
 8    1  0.2500956E-006  0.9118800E+02  0.7816164E-02  0.1184000E+00
        -11   -1    0    0    0    0  0.00000000000E+00  0.00000000000E+00  0.45593999997E+02  0.45594000000E+02  0.51100000000E-03 0.  1.
         11   -1    0    0    0    0 -0.00000000000E+00 -0.00000000000E+00 -0.45593999997E+02  0.45594000000E+02  0.51100000000E-03 0. -1.
         23    2    1    2    0    0 -0.35527136788E-14  0.00000000000E+00  0.00000000000E+00  0.91188000000E+02  0.91188000000E+02 0.  0.
    9900012    2    3    3    0    0  0.25447525501E+02 -0.16902197405E+02  0.20555257896E+02  0.54367089386E+02  0.40000011874E+02 0.  0.
         12    1    3    3    0    0 -0.25447525501E+02  0.16902197405E+02 -0.20555257896E+02  0.36820910614E+02  0.00000000000E+00 0. -1.
         11    1    4    4    0    0  0.13748122971E+02 -0.23846093918E+02  0.59012721701E+01  0.28150880872E+02  0.51100000000E-03 0. -1.
        -11    1    4    4    0    0  0.11953048584E+02 -0.23902238932E+01  0.10085006476E+02  0.15820742605E+02  0.51100000000E-03 0.  1.
         12    1    4    4    0    0 -0.25364605283E+00  0.93341204064E+01  0.45689792503E+01  0.10395465909E+02  0.00000000000E+00 0. -1.
</event>
<event>
 8    1  0.2500956E-006  0.9118800E+02  0.7816164E-02  0.1184000E+00
        -11   -1    0    0    0    0  0.00000000000E+00  0.00000000000E+00  0.45593999997E+02  0.45594000000E+02  0.51100000000E-03 0. -1.
         11   -1    0    0    0    0 -0.00000000000E+00 -0.00000000000E+00 -0.45593999997E+02  0.45594000000E+02  0.51100000000E-03 0.  1.
         23    2    1    2    0    0 -0.88817841970E-15  0.00000000000E+00  0.00000000000E+00  0.91188000000E+02  0.91188000000E+02 0.  0.
    9900012    2    3    3    0    0 -0.65619862850E+01  0.32715006620E+02 -0.15570759940E+02  0.54367083563E+02  0.39999998600E+02 0.  0.
         12    1    3    3    0    0  0.65619862850E+01 -0.32715006620E+02  0.15570759940E+02  0.36820916437E+02  0.00000000000E+00 0. -1.
         11    1    4    4    0    0  0.43450643824E+01  0.19000915042E+01  0.41746134071E+01  0.63180162687E+01  0.51100000000E-03 0. -1.
        -11    1    4    4    0    0 -0.20338757573E+02  0.24171825330E+02 -0.18065615253E+02  0.36391051841E+02  0.51100000000E-03 0.  1.
         12    1    4    4    0    0  0.94317069058E+01  0.66430897853E+01 -0.16797580944E+01  0.11658015453E+02  0.00000000000E+00 0. -1.
</event>
<event>
 8    1  0.2500956E-006  0.9118800E+02  0.7816164E-02  0.1184000E+00
        -11   -1    0    0    0    0  0.00000000000E+00  0.00000000000E+00  0.45593999997E+02  0.45594000000E+02  0.51100000000E-03 0. -1.
         11   -1    0    0    0    0 -0.00000000000E+00 -0.00000000000E+00 -0.45593999997E+02  0.45594000000E+02  0.51100000000E-03 0.  1.
         23    2    1    2    0    0  0.40245584643E-15  0.00000000000E+00  0.00000000000E+00  0.91188000000E+02  0.91188000000E+02 0.  0.
    9900012    2    3    3    0    0  0.20788632832E-01  0.25448742388E+02  0.26610928386E+02  0.54367076181E+02  0.39999981770E+02 0.  0.
        -12    1    3    3    0    0 -0.20788632832E-01 -0.25448742388E+02 -0.26610928386E+02  0.36820923819E+02  0.00000000000E+00 0.  1.
         11    1    4    4    0    0 -0.53475575946E+01  0.68931616358E+01  0.22228885395E+02  0.23879602085E+02  0.51100000000E-03 0. -1.
        -11    1    4    4    0    0 -0.22576109096E+01  0.78034218600E+01  0.12572235965E+02  0.14968343835E+02  0.51100000000E-03 0.  1.
        -12    1    4    4    0    0  0.76259571370E+01  0.10752158893E+02 -0.81901929739E+01  0.15519130261E+02  0.00000000000E+00 0.  1.
</event>
<event>
 8    1  0.2500956E-006  0.9118800E+02  0.7816164E-02  0.1184000E+00
        -11   -1    0    0    0    0  0.00000000000E+00  0.00000000000E+00  0.45593999997E+02  0.45594000000E+02  0.51100000000E-03 0. -1.
         11   -1    0    0    0    0 -0.00000000000E+00 -0.00000000000E+00 -0.45593999997E+02  0.45594000000E+02  0.51100000000E-03 0.  1.
         23    2    1    2    0    0  0.19984014443E-14 -0.17763568394E-14  0.00000000000E+00  0.91188000000E+02  0.91188000000E+02 0.  0.
    9900012    2    3    3    0    0 -0.80633897575E+00 -0.15692114571E+02 -0.33299982904E+02  0.54367061613E+02  0.39999948560E+02 0.  0.
         12    1    3    3    0    0  0.80633897575E+00  0.15692114571E+02  0.33299982904E+02  0.36820938387E+02  0.00000000000E+00 0. -1.
         11    1    4    4    0    0  0.66514015412E+01  0.34206308609E+01 -0.11499099199E+02  0.13717548637E+02  0.51100000000E-03 0. -1.
        -11    1    4    4    0    0  0.93641055930E+01 -0.10017267834E+02 -0.15073171913E+02  0.20377257916E+02  0.51100000000E-03 0.  1.
         12    1    4    4    0    0 -0.16821846110E+02 -0.90954775978E+01 -0.67277117923E+01  0.20272255061E+02  0.00000000000E+00 0. -1.
</event>
<event>
 8    1  0.2500956E-006  0.9118800E+02  0.7816164E-02  0.1184000E+00
        -11   -1    0    0    0    0  0.00000000000E+00  0.00000000000E+00  0.45593999997E+02  0.45594000000E+02  0.51100000000E-03 0. -1.
         11   -1    0    0    0    0 -0.00000000000E+00 -0.00000000000E+00 -0.45593999997E+02  0.45594000000E+02  0.51100000000E-03 0.  1.
         23    2    1    2    0    0 -0.44408920985E-15 -0.26645352591E-14 -0.71054273576E-14  0.91188000000E+02  0.91188000000E+02 0.  0.
    9900012    2    3    3    0    0  0.11453567212E+01  0.76549560565E+01  0.35998179087E+02  0.54367094364E+02  0.40000023222E+02 0.  0.
        -12    1    3    3    0    0 -0.11453567212E+01 -0.76549560565E+01 -0.35998179087E+02  0.36820905636E+02  0.00000000000E+00 0.  1.
         11    1    4    4    0    0  0.25764619390E+01 -0.68438684276E+01  0.94524243086E+01  0.11950942086E+02  0.51100000000E-03 0.  1.
        -11    1    4    4    0    0 -0.57076555493E+01  0.22652639909E+02  0.15494988442E+02  0.28032375814E+02  0.51100000000E-03 0. -1.
         12    1    4    4    0    0  0.42765503315E+01 -0.81538154247E+01  0.11050766337E+02  0.14383776464E+02  0.00000000000E+00 0. -1.
</event>
<event>
 8    1  0.2500956E-006  0.9118800E+02  0.7816164E-02  0.1184000E+00
        -11   -1    0    0    0    0  0.00000000000E+00  0.00000000000E+00  0.45593999997E+02  0.45594000000E+02  0.51100000000E-03 0. -1.
         11   -1    0    0    0    0 -0.00000000000E+00 -0.00000000000E+00 -0.45593999997E+02  0.45594000000E+02  0.51100000000E-03 0.  1.
         23    2    1    2    0    0  0.00000000000E+00  0.00000000000E+00  0.00000000000E+00  0.91188000000E+02  0.91188000000E+02 0.  0.
    9900012    2    3    3    0    0  0.57933981781E+01 -0.21418375593E+02 -0.29384867006E+02  0.54367072738E+02  0.39999973921E+02 0.  0.
         12    1    3    3    0    0 -0.57933981781E+01  0.21418375593E+02  0.29384867006E+02  0.36820927262E+02  0.00000000000E+00 0. -1.
         11    1    4    4    0    0  0.10785525916E+02 -0.67174501059E+01  0.17809138123E+01  0.12830563491E+02  0.51100000000E-03 0. -1.
        -11    1    4    4    0    0 -0.14850232263E+01  0.60596592536E+01 -0.91389172694E+01  0.11065467607E+02  0.51100000000E-03 0.  1.
         12    1    4    4    0    0 -0.35071045118E+01 -0.20760584741E+02 -0.22026863548E+02  0.30471041640E+02  0.00000000000E+00 0. -1.
</event>
<event>
 8    1  0.2500956E-006  0.9118800E+02  0.7816164E-02  0.1184000E+00
        -11   -1    0    0    0    0  0.00000000000E+00  0.00000000000E+00  0.45593999997E+02  0.45594000000E+02  0.51100000000E-03 0. -1.
         11   -1    0    0    0    0 -0.00000000000E+00 -0.00000000000E+00 -0.45593999997E+02  0.45594000000E+02  0.51100000000E-03 0.  1.
         23    2    1    2    0    0 -0.17763568394E-14  0.00000000000E+00  0.00000000000E+00  0.91188000000E+02  0.91188000000E+02 0.  0.
    9900012    2    3    3    0    0 -0.88143241351E+01  0.16024910592E+02 -0.31957611601E+02  0.54367095493E+02  0.40000025796E+02 0.  0.
         12    1    3    3    0    0  0.88143241351E+01 -0.16024910592E+02  0.31957611601E+02  0.36820904507E+02  0.00000000000E+00 0. -1.
         11    1    4    4    0    0 -0.15028926356E+02  0.18791164400E+02 -0.19582777313E+02  0.31023566115E+02  0.51100000000E-03 0. -1.
        -11    1    4    4    0    0  0.97903791124E+01 -0.47813669370E+01 -0.14949265992E+02  0.18498474178E+02  0.51100000000E-03 0.  1.
        -12    1    4    4    0    0 -0.35757768919E+01  0.20151131291E+01  0.25744317037E+01  0.48450552010E+01  0.00000000000E+00 0.  1.
</event>
<event>
 8    1  0.2500956E-006  0.9118800E+02  0.7816164E-02  0.1184000E+00
        -11   -1    0    0    0    0  0.00000000000E+00  0.00000000000E+00  0.45593999997E+02  0.45594000000E+02  0.51100000000E-03 0. -1.
         11   -1    0    0    0    0 -0.00000000000E+00 -0.00000000000E+00 -0.45593999997E+02  0.45594000000E+02  0.51100000000E-03 0.  1.
         23    2    1    2    0    0  0.35527136788E-14 -0.17763568394E-14  0.35527136788E-14  0.91188000000E+02  0.91188000000E+02 0.  0.
    9900012    2    3    3    0    0 -0.26735685263E+02  0.14935596591E+02 -0.20442840596E+02  0.54367100450E+02  0.40000037096E+02 0.  0.
        -12    1    3    3    0    0  0.26735685263E+02 -0.14935596591E+02  0.20442840596E+02  0.36820899550E+02  0.00000000000E+00 0.  1.
         11    1    4    4    0    0 -0.19082288025E+02 -0.77243994300E+01 -0.10815387758E+02  0.23254519463E+02  0.51100000000E-03 0. -1.
        -11    1    4    4    0    0 -0.13277472815E+02  0.15384230874E+02 -0.75961990161E+01  0.21694886118E+02  0.51100000000E-03 0.  1.
        -12    1    4    4    0    0  0.56240755764E+01  0.72757651469E+01 -0.20312538218E+01  0.94176948692E+01  0.00000000000E+00 0.  1.
</event>
<event>
 8    1  0.2500956E-006  0.9118800E+02  0.7816164E-02  0.1184000E+00
        -11   -1    0    0    0    0  0.00000000000E+00  0.00000000000E+00  0.45593999997E+02  0.45594000000E+02  0.51100000000E-03 0.  1.
         11   -1    0    0    0    0 -0.00000000000E+00 -0.00000000000E+00 -0.45593999997E+02  0.45594000000E+02  0.51100000000E-03 0. -1.
         23    2    1    2    0    0  0.00000000000E+00  0.35527136788E-14  0.71054273576E-14  0.91188000000E+02  0.91188000000E+02 0.  0.
    9900012    2    3    3    0    0 -0.15197672752E+02 -0.24414057489E+02 -0.22994857381E+02  0.54367096614E+02  0.40000028351E+02 0.  0.
        -12    1    3    3    0    0  0.15197672752E+02  0.24414057489E+02  0.22994857381E+02  0.36820903386E+02  0.00000000000E+00 0.  1.
         11    1    4    4    0    0  0.21812984486E+01 -0.35925561212E+00  0.63804465870E+01  0.67525718380E+01  0.51100000000E-03 0. -1.
        -11    1    4    4    0    0 -0.12283960078E+01 -0.73877988894E+01  0.27541074295E+01  0.79795762529E+01  0.51100000000E-03 0.  1.
         12    1    4    4    0    0 -0.16150575193E+02 -0.16667002988E+02 -0.32129411398E+02  0.39634948523E+02  0.00000000000E+00 0. -1.
</event>
<event>
 8    1  0.2500956E-006  0.9118800E+02  0.7816164E-02  0.1184000E+00
        -11   -1    0    0    0    0  0.00000000000E+00  0.00000000000E+00  0.45593999997E+02  0.45594000000E+02  0.51100000000E-03 0. -1.
         11   -1    0    0    0    0 -0.00000000000E+00 -0.00000000000E+00 -0.45593999997E+02  0.45594000000E+02  0.51100000000E-03 0.  1.
         23    2    1    2    0    0  0.00000000000E+00  0.17763568394E-14  0.00000000000E+00  0.91188000000E+02  0.91188000000E+02 0.  0.
    9900012    2    3    3    0    0 -0.27011207162E+01  0.60360276145E+01 -0.36222224719E+02  0.54367092270E+02  0.40000018448E+02 0.  0.
         12    1    3    3    0    0  0.27011207162E+01 -0.60360276145E+01  0.36222224719E+02  0.36820907730E+02  0.00000000000E+00 0. -1.
         11    1    4    4    0    0 -0.23753751831E+01  0.15619601109E+02 -0.19741115631E+02  0.25284896533E+02  0.51100000000E-03 0. -1.
        -11    1    4    4    0    0 -0.19338789700E+01  0.54770058084E+01 -0.11927008429E+02  0.13266160365E+02  0.51100000000E-03 0.  1.
         12    1    4    4    0    0  0.16081334370E+01 -0.15060579303E+02 -0.45541006588E+01  0.15816035372E+02  0.00000000000E+00 0. -1.
</event>
<event>
 8    1  0.2500956E-006  0.9118800E+02  0.7816164E-02  0.1184000E+00
        -11   -1    0    0    0    0  0.00000000000E+00  0.00000000000E+00  0.45593999997E+02  0.45594000000E+02  0.51100000000E-03 0.  1.
         11   -1    0    0    0    0 -0.00000000000E+00 -0.00000000000E+00 -0.45593999997E+02  0.45594000000E+02  0.51100000000E-03 0. -1.
         23    2    1    2    0    0  0.00000000000E+00  0.88817841970E-15 -0.35527136788E-14  0.91188000000E+02  0.91188000000E+02 0.  0.
    9900012    2    3    3    0    0  0.32156448756E+02 -0.12206983693E+01  0.17895594475E+02  0.54367087427E+02  0.40000007408E+02 0.  0.
        -12    1    3    3    0    0 -0.32156448756E+02  0.12206983693E+01 -0.17895594475E+02  0.36820912573E+02  0.00000000000E+00 0.  1.
         11    1    4    4    0    0  0.28261494518E+02 -0.81791199220E+01  0.12553902095E+02  0.31987662202E+02  0.51100000000E-03 0. -1.
        -11    1    4    4    0    0 -0.81427464687E+01  0.45020369917E+01  0.10402260181E+01  0.93624103498E+01  0.51100000000E-03 0.  1.
         12    1    4    4    0    0  0.12037700707E+02  0.24563845610E+01  0.43014663616E+01  0.13017014876E+02  0.00000000000E+00 0. -1.
</event>
<event>
 8    1  0.2500956E-006  0.9118800E+02  0.7816164E-02  0.1184000E+00
        -11   -1    0    0    0    0  0.00000000000E+00  0.00000000000E+00  0.45593999997E+02  0.45594000000E+02  0.51100000000E-03 0. -1.
         11   -1    0    0    0    0 -0.00000000000E+00 -0.00000000000E+00 -0.45593999997E+02  0.45594000000E+02  0.51100000000E-03 0.  1.
         23    2    1    2    0    0  0.35527136788E-14 -0.35527136788E-14  0.00000000000E+00  0.91188000000E+02  0.91188000000E+02 0.  0.
    9900012    2    3    3    0    0 -0.19813712946E+02 -0.22447778679E+02  0.21431148137E+02  0.54367080690E+02  0.39999992049E+02 0.  0.
        -12    1    3    3    0    0  0.19813712946E+02  0.22447778679E+02 -0.21431148137E+02  0.36820919310E+02  0.00000000000E+00 0.  1.
         11    1    4    4    0    0 -0.26113343660E+01 -0.19916809177E+02  0.86457625324E+01  0.21868872056E+02  0.51100000000E-03 0. -1.
        -11    1    4    4    0    0 -0.20847482622E+02 -0.69311972851E+01  0.14743518257E+02  0.26458086823E+02  0.51100000000E-03 0.  1.
        -12    1    4    4    0    0  0.36451040415E+01  0.44002277824E+01 -0.19581326524E+01  0.60401218113E+01  0.00000000000E+00 0.  1.
</event>
<event>
 8    1  0.2500956E-006  0.9118800E+02  0.7816164E-02  0.1184000E+00
        -11   -1    0    0    0    0  0.00000000000E+00  0.00000000000E+00  0.45593999997E+02  0.45594000000E+02  0.51100000000E-03 0.  1.
         11   -1    0    0    0    0 -0.00000000000E+00 -0.00000000000E+00 -0.45593999997E+02  0.45594000000E+02  0.51100000000E-03 0. -1.
         23    2    1    2    0    0  0.00000000000E+00 -0.44408920985E-15  0.44408920985E-15  0.91188000000E+02  0.91188000000E+02 0.  0.
    9900012    2    3    3    0    0  0.36529670956E+02  0.25840904000E+01  0.38321389517E+01  0.54367086482E+02  0.40000005252E+02 0.  0.
         12    1    3    3    0    0 -0.36529670956E+02 -0.25840904000E+01 -0.38321389517E+01  0.36820913518E+02  0.00000000000E+00 0. -1.
         11    1    4    4    0    0  0.25246247901E+02  0.12095250632E+02 -0.21385466115E+01  0.28075638956E+02  0.51100000000E-03 0. -1.
        -11    1    4    4    0    0  0.10018230367E+02  0.21239070985E+01 -0.39227100410E+01  0.10966475066E+02  0.51100000000E-03 0.  1.
         12    1    4    4    0    0  0.12651926892E+01 -0.11635067330E+02  0.98933956043E+01  0.15324972460E+02  0.00000000000E+00 0. -1.
</event>
<event>
 8    1  0.2500956E-006  0.9118800E+02  0.7816164E-02  0.1184000E+00
        -11   -1    0    0    0    0  0.00000000000E+00  0.00000000000E+00  0.45593999997E+02  0.45594000000E+02  0.51100000000E-03 0.  1.
         11   -1    0    0    0    0 -0.00000000000E+00 -0.00000000000E+00 -0.45593999997E+02  0.45594000000E+02  0.51100000000E-03 0. -1.
         23    2    1    2    0    0 -0.17763568394E-14  0.35527136788E-14  0.17763568394E-14  0.91188000000E+02  0.91188000000E+02 0.  0.
    9900012    2    3    3    0    0 -0.12414203130E+02  0.30976685655E+02  0.15559914625E+02  0.54367103261E+02  0.40000043505E+02 0.  0.
         12    1    3    3    0    0  0.12414203130E+02 -0.30976685655E+02 -0.15559914625E+02  0.36820896739E+02  0.00000000000E+00 0. -1.
         11    1    4    4    0    0  0.14470182712E+01 -0.72901306879E+00  0.46686741867E+00  0.16862050229E+01  0.51100000000E-03 0. -1.
        -11    1    4    4    0    0 -0.22000073520E+02  0.32807515316E+02  0.18708213516E+02  0.43707362644E+02  0.51100000000E-03 0.  1.
        -12    1    4    4    0    0  0.81388521185E+01 -0.11018165925E+01 -0.36151663096E+01  0.89735355940E+01  0.00000000000E+00 0.  1.
</event>
<event>
 8    1  0.2500956E-006  0.9118800E+02  0.7816164E-02  0.1184000E+00
        -11   -1    0    0    0    0  0.00000000000E+00  0.00000000000E+00  0.45593999997E+02  0.45594000000E+02  0.51100000000E-03 0.  1.
         11   -1    0    0    0    0 -0.00000000000E+00 -0.00000000000E+00 -0.45593999997E+02  0.45594000000E+02  0.51100000000E-03 0. -1.
         23    2    1    2    0    0  0.00000000000E+00  0.17763568394E-14  0.00000000000E+00  0.91188000000E+02  0.91188000000E+02 0.  0.
    9900012    2    3    3    0    0  0.33507674660E+02 -0.14903348765E+02  0.33025370472E+01  0.54367070944E+02  0.39999969832E+02 0.  0.
         12    1    3    3    0    0 -0.33507674660E+02  0.14903348765E+02 -0.33025370472E+01  0.36820929056E+02  0.00000000000E+00 0. -1.
         11    1    4    4    0    0 -0.90394373119E+01 -0.94296983319E+00 -0.45190608730E+00  0.90997163909E+01  0.51100000000E-03 0. -1.
        -11    1    4    4    0    0  0.18558963558E+02 -0.32794653842E+01  0.19425820070E+01  0.18946335969E+02  0.51100000000E-03 0.  1.
         12    1    4    4    0    0  0.23988148415E+02 -0.10680913548E+02  0.18118611276E+01  0.26321018584E+02  0.00000000000E+00 0. -1.
</event>
<event>
 8    1  0.2500956E-006  0.9118800E+02  0.7816164E-02  0.1184000E+00
        -11   -1    0    0    0    0  0.00000000000E+00  0.00000000000E+00  0.45593999997E+02  0.45594000000E+02  0.51100000000E-03 0.  1.
         11   -1    0    0    0    0 -0.00000000000E+00 -0.00000000000E+00 -0.45593999997E+02  0.45594000000E+02  0.51100000000E-03 0. -1.
         23    2    1    2    0    0  0.00000000000E+00  0.00000000000E+00  0.22204460493E-15  0.91188000000E+02  0.91188000000E+02 0.  0.
    9900012    2    3    3    0    0  0.10409893187E+02  0.35277568927E+02 -0.17051197668E+01  0.54367079602E+02  0.39999989568E+02 0.  0.
        -12    1    3    3    0    0 -0.10409893187E+02 -0.35277568927E+02  0.17051197668E+01  0.36820920398E+02  0.00000000000E+00 0.  1.
         11    1    4    4    0    0 -0.13626951012E+01  0.26102825112E+02 -0.12978901587E+02  0.29183322351E+02  0.51100000000E-03 0. -1.
        -11    1    4    4    0    0 -0.19300419816E+01  0.14388980935E+01  0.89615839048E+01  0.92793036440E+01  0.51100000000E-03 0.  1.
         12    1    4    4    0    0  0.13702630270E+02  0.77358457218E+01  0.23121979157E+01  0.15904453607E+02  0.00000000000E+00 0. -1.
</event>
<event>
 8    1  0.2500956E-006  0.9118800E+02  0.7816164E-02  0.1184000E+00
        -11   -1    0    0    0    0  0.00000000000E+00  0.00000000000E+00  0.45593999997E+02  0.45594000000E+02  0.51100000000E-03 0.  1.
         11   -1    0    0    0    0 -0.00000000000E+00 -0.00000000000E+00 -0.45593999997E+02  0.45594000000E+02  0.51100000000E-03 0. -1.
         23    2    1    2    0    0  0.00000000000E+00  0.00000000000E+00  0.00000000000E+00  0.91188000000E+02  0.91188000000E+02 0.  0.
    9900012    2    3    3    0    0  0.23440189045E+02 -0.16131924858E+02  0.23368753657E+02  0.54367080544E+02  0.39999991717E+02 0.  0.
         12    1    3    3    0    0 -0.23440189045E+02  0.16131924858E+02 -0.23368753657E+02  0.36820919456E+02  0.00000000000E+00 0. -1.
         11    1    4    4    0    0 -0.21756948480E+01  0.99853039976E+00  0.29825184981E+00  0.24123982793E+01  0.51100000000E-03 0. -1.
        -11    1    4    4    0    0  0.30655010760E+02 -0.57590948101E+01  0.24181955212E+02  0.39467249915E+02  0.51100000000E-03 0.  1.
        -12    1    4    4    0    0 -0.50391268675E+01 -0.11371360448E+02 -0.11114534044E+01  0.12487432350E+02  0.00000000000E+00 0.  1.
</event>
<event>
 8    1  0.2500956E-006  0.9118800E+02  0.7816164E-02  0.1184000E+00
        -11   -1    0    0    0    0  0.00000000000E+00  0.00000000000E+00  0.45593999997E+02  0.45594000000E+02  0.51100000000E-03 0.  1.
         11   -1    0    0    0    0 -0.00000000000E+00 -0.00000000000E+00 -0.45593999997E+02  0.45594000000E+02  0.51100000000E-03 0. -1.
         23    2    1    2    0    0  0.00000000000E+00  0.00000000000E+00  0.35527136788E-14  0.91188000000E+02  0.91188000000E+02 0.  0.
    9900012    2    3    3    0    0 -0.18061070662E+02  0.55307035605E+01  0.31606772766E+02  0.54367095068E+02  0.40000024827E+02 0.  0.
         12    1    3    3    0    0  0.18061070662E+02 -0.55307035605E+01 -0.31606772766E+02  0.36820904932E+02  0.00000000000E+00 0. -1.
         11    1    4    4    0    0 -0.11514237949E+02 -0.83388265356E+01  0.97314092096E+01  0.17228291529E+02  0.51100000000E-03 0.  1.
        -11    1    4    4    0    0 -0.15018820184E+02  0.14377533453E+02  0.19035292760E+02  0.28189019114E+02  0.51100000000E-03 0. -1.
         12    1    4    4    0    0  0.84719874713E+01 -0.50800335693E+00  0.28400707960E+01  0.89497844248E+01  0.00000000000E+00 0. -1.
</event>
<event>
 8    1  0.2500956E-006  0.9118800E+02  0.7816164E-02  0.1184000E+00
        -11   -1    0    0    0    0  0.00000000000E+00  0.00000000000E+00  0.45593999997E+02  0.45594000000E+02  0.51100000000E-03 0.  1.
         11   -1    0    0    0    0 -0.00000000000E+00 -0.00000000000E+00 -0.45593999997E+02  0.45594000000E+02  0.51100000000E-03 0. -1.
         23    2    1    2    0    0  0.00000000000E+00 -0.17763568394E-14 -0.88817841970E-15  0.91188000000E+02  0.91188000000E+02 0.  0.
    9900012    2    3    3    0    0 -0.34514826778E+02 -0.11817692507E+02 -0.49848318763E+01  0.54367086478E+02  0.40000005245E+02 0.  0.
        -12    1    3    3    0    0  0.34514826778E+02  0.11817692507E+02  0.49848318763E+01  0.36820913522E+02  0.00000000000E+00 0.  1.
         11    1    4    4    0    0 -0.26506184611E+02  0.63905648500E+01 -0.12540410989E+02  0.30011315362E+02  0.51100000000E-03 0. -1.
        -11    1    4    4    0    0 -0.60702243446E+00 -0.14347037186E+02  0.70370869489E+01  0.15991452256E+02  0.51100000000E-03 0.  1.
         12    1    4    4    0    0 -0.74016197331E+01 -0.38612201707E+01  0.51849216365E+00  0.83643188607E+01  0.00000000000E+00 0. -1.
</event>
<event>
 8    1  0.2500956E-006  0.9118800E+02  0.7816164E-02  0.1184000E+00
        -11   -1    0    0    0    0  0.00000000000E+00  0.00000000000E+00  0.45593999997E+02  0.45594000000E+02  0.51100000000E-03 0.  1.
         11   -1    0    0    0    0 -0.00000000000E+00 -0.00000000000E+00 -0.45593999997E+02  0.45594000000E+02  0.51100000000E-03 0. -1.
         23    2    1    2    0    0  0.00000000000E+00 -0.35527136788E-14  0.00000000000E+00  0.91188000000E+02  0.91188000000E+02 0.  0.
    9900012    2    3    3    0    0  0.16902789726E+02  0.22273115608E+02 -0.23957996957E+02  0.54367060338E+02  0.39999945652E+02 0.  0.
        -12    1    3    3    0    0 -0.16902789726E+02 -0.22273115608E+02  0.23957996957E+02  0.36820939662E+02  0.00000000000E+00 0.  1.
         11    1    4    4    0    0  0.10689443835E+00  0.38418331747E+01  0.19283542484E+01  0.42999603407E+01  0.51100000000E-03 0. -1.
        -11    1    4    4    0    0  0.18978493244E+02  0.16417488437E+02 -0.33522096837E+02  0.41874193831E+02  0.51100000000E-03 0.  1.
        -12    1    4    4    0    0 -0.21825979569E+01  0.20137939966E+01  0.76357456314E+01  0.81929061662E+01  0.00000000000E+00 0.  1.
</event>
<event>
 8    1  0.2500956E-006  0.9118800E+02  0.7816164E-02  0.1184000E+00
        -11   -1    0    0    0    0  0.00000000000E+00  0.00000000000E+00  0.45593999997E+02  0.45594000000E+02  0.51100000000E-03 0.  1.
         11   -1    0    0    0    0 -0.00000000000E+00 -0.00000000000E+00 -0.45593999997E+02  0.45594000000E+02  0.51100000000E-03 0. -1.
         23    2    1    2    0    0  0.44408920985E-15 -0.71054273576E-14  0.17763568394E-14  0.91188000000E+02  0.91188000000E+02 0.  0.
    9900012    2    3    3    0    0  0.29693744469E+01 -0.35437158951E+02  0.95483335171E+01  0.54367080782E+02  0.39999992258E+02 0.  0.
         12    1    3    3    0    0 -0.29693744469E+01  0.35437158951E+02 -0.95483335171E+01  0.36820919218E+02  0.00000000000E+00 0. -1.
         11    1    4    4    0    0  0.34479530000E+01  0.65456213612E+01 -0.27699924042E+01  0.78997719635E+01  0.51100000000E-03 0. -1.
        -11    1    4    4    0    0 -0.75812614281E+00  0.65118549351E+00  0.25342330983E+01  0.27241761054E+01  0.51100000000E-03 0.  1.
        -12    1    4    4    0    0  0.27954758973E+00 -0.42633965806E+02  0.97840928230E+01  0.43743132713E+02  0.00000000000E+00 0.  1.
</event>
<event>
 8    1  0.2500956E-006  0.9118800E+02  0.7816164E-02  0.1184000E+00
        -11   -1    0    0    0    0  0.00000000000E+00  0.00000000000E+00  0.45593999997E+02  0.45594000000E+02  0.51100000000E-03 0.  1.
         11   -1    0    0    0    0 -0.00000000000E+00 -0.00000000000E+00 -0.45593999997E+02  0.45594000000E+02  0.51100000000E-03 0. -1.
         23    2    1    2    0    0  0.00000000000E+00 -0.35527136788E-14  0.53290705182E-14  0.91188000000E+02  0.91188000000E+02 0.  0.
    9900012    2    3    3    0    0 -0.27889278566E+02  0.18574421548E+02 -0.15263021015E+02  0.54367071097E+02  0.39999970180E+02 0.  0.
        -12    1    3    3    0    0  0.27889278566E+02 -0.18574421548E+02  0.15263021015E+02  0.36820928903E+02  0.00000000000E+00 0.  1.
         11    1    4    4    0    0 -0.17894966576E+02  0.26678067240E+02 -0.17492648111E+02  0.36577887290E+02  0.51100000000E-03 0. -1.
        -11    1    4    4    0    0 -0.63493231847E+00 -0.56997882785E+01  0.51357581315E+01  0.76984892878E+01  0.51100000000E-03 0.  1.
        -12    1    4    4    0    0 -0.93593796710E+01 -0.24038574127E+01 -0.29061310350E+01  0.10090694519E+02  0.00000000000E+00 0.  1.
</event>
<event>
 8    1  0.2500956E-006  0.9118800E+02  0.7816164E-02  0.1184000E+00
        -11   -1    0    0    0    0  0.00000000000E+00  0.00000000000E+00  0.45593999997E+02  0.45594000000E+02  0.51100000000E-03 0.  1.
         11   -1    0    0    0    0 -0.00000000000E+00 -0.00000000000E+00 -0.45593999997E+02  0.45594000000E+02  0.51100000000E-03 0. -1.
         23    2    1    2    0    0 -0.44408920985E-15  0.17763568394E-14 -0.71054273576E-14  0.91188000000E+02  0.91188000000E+02 0.  0.
    9900012    2    3    3    0    0 -0.38063704558E+01 -0.12768686250E+02 -0.34325792498E+02  0.54366975636E+02  0.39999752556E+02 0.  0.
        -12    1    3    3    0    0  0.38063704558E+01  0.12768686250E+02  0.34325792498E+02  0.36821024364E+02  0.00000000000E+00 0.  1.
         11    1    4    4    0    0 -0.63498450140E+01 -0.14899450903E+02 -0.34220200466E+02  0.37859428008E+02  0.51100000000E-03 0. -1.
        -11    1    4    4    0    0  0.64199646562E+01 -0.51550339656E+01  0.36189378406E+00  0.82414372985E+01  0.51100000000E-03 0.  1.
         12    1    4    4    0    0 -0.38764900980E+01  0.72857986185E+01 -0.46748581662E+00  0.82661103294E+01  0.00000000000E+00 0. -1.
</event>
<event>
 8    1  0.2500956E-006  0.9118800E+02  0.7816164E-02  0.1184000E+00
        -11   -1    0    0    0    0  0.00000000000E+00  0.00000000000E+00  0.45593999997E+02  0.45594000000E+02  0.51100000000E-03 0. -1.
         11   -1    0    0    0    0 -0.00000000000E+00 -0.00000000000E+00 -0.45593999997E+02  0.45594000000E+02  0.51100000000E-03 0.  1.
         23    2    1    2    0    0 -0.88817841970E-15  0.00000000000E+00 -0.17763568394E-14  0.91188000000E+02  0.91188000000E+02 0.  0.
    9900012    2    3    3    0    0 -0.66521576123E+01  0.34373040431E+02  0.11402749626E+02  0.54367084634E+02  0.40000001040E+02 0.  0.
        -12    1    3    3    0    0  0.66521576123E+01 -0.34373040431E+02 -0.11402749626E+02  0.36820915366E+02  0.00000000000E+00 0.  1.
         11    1    4    4    0    0  0.69422521966E+01 -0.14325880417E+00  0.67115850870E+01  0.96571612437E+01  0.51100000000E-03 0. -1.
        -11    1    4    4    0    0 -0.18473993084E+02  0.13503822572E+02  0.28465570957E+01  0.23059586555E+02  0.51100000000E-03 0.  1.
        -12    1    4    4    0    0  0.48795832754E+01  0.21012476663E+02  0.18446074430E+01  0.21650336835E+02  0.00000000000E+00 0.  1.
</event>
<event>
 8    1  0.2500956E-006  0.9118800E+02  0.7816164E-02  0.1184000E+00
        -11   -1    0    0    0    0  0.00000000000E+00  0.00000000000E+00  0.45593999997E+02  0.45594000000E+02  0.51100000000E-03 0.  1.
         11   -1    0    0    0    0 -0.00000000000E+00 -0.00000000000E+00 -0.45593999997E+02  0.45594000000E+02  0.51100000000E-03 0. -1.
         23    2    1    2    0    0  0.00000000000E+00  0.00000000000E+00 -0.44408920985E-15  0.91188000000E+02  0.91188000000E+02 0.  0.
    9900012    2    3    3    0    0 -0.31186821448E+02 -0.19494234258E+02  0.17708957981E+01  0.54367094616E+02  0.40000023797E+02 0.  0.
         12    1    3    3    0    0  0.31186821448E+02  0.19494234258E+02 -0.17708957981E+01  0.36820905384E+02  0.00000000000E+00 0. -1.
         11    1    4    4    0    0  0.89298561162E+00 -0.22988704927E+00 -0.11336010407E+01  0.14612744228E+01  0.51100000000E-03 0. -1.
        -11    1    4    4    0    0 -0.34381035301E+02 -0.21774034077E+01 -0.32411373176E+01  0.34602046838E+02  0.51100000000E-03 0.  1.
        -12    1    4    4    0    0  0.23012282414E+01 -0.17086943801E+02  0.61456341564E+01  0.18303773356E+02  0.00000000000E+00 0.  1.
</event>
<event>
 8    1  0.2500956E-006  0.9118800E+02  0.7816164E-02  0.1184000E+00
        -11   -1    0    0    0    0  0.00000000000E+00  0.00000000000E+00  0.45593999997E+02  0.45594000000E+02  0.51100000000E-03 0. -1.
         11   -1    0    0    0    0 -0.00000000000E+00 -0.00000000000E+00 -0.45593999997E+02  0.45594000000E+02  0.51100000000E-03 0.  1.
         23    2    1    2    0    0  0.00000000000E+00  0.13322676296E-14 -0.35527136788E-14  0.91188000000E+02  0.91188000000E+02 0.  0.
    9900012    2    3    3    0    0  0.35183914447E+02  0.24109909186E+01  0.10585795365E+02  0.54367085067E+02  0.40000002026E+02 0.  0.
        -12    1    3    3    0    0 -0.35183914447E+02 -0.24109909186E+01 -0.10585795365E+02  0.36820914933E+02  0.00000000000E+00 0.  1.
         11    1    4    4    0    0  0.69667884265E+01  0.96814019910E+01  0.23265918131E+01  0.12152313163E+02  0.51100000000E-03 0.  1.
        -11    1    4    4    0    0 -0.19560435099E+00 -0.94654433317E+01  0.98639274239E+01  0.13672232554E+02  0.51100000000E-03 0. -1.
         12    1    4    4    0    0  0.28412730372E+02  0.21950322593E+01 -0.16047238724E+01  0.28542539349E+02  0.00000000000E+00 0. -1.
</event>
<event>
 8    1  0.2500956E-006  0.9118800E+02  0.7816164E-02  0.1184000E+00
        -11   -1    0    0    0    0  0.00000000000E+00  0.00000000000E+00  0.45593999997E+02  0.45594000000E+02  0.51100000000E-03 0.  1.
         11   -1    0    0    0    0 -0.00000000000E+00 -0.00000000000E+00 -0.45593999997E+02  0.45594000000E+02  0.51100000000E-03 0. -1.
         23    2    1    2    0    0 -0.22204460493E-14 -0.13322676296E-14  0.00000000000E+00  0.91188000000E+02  0.91188000000E+02 0.  0.
    9900012    2    3    3    0    0  0.26752701952E+01 -0.10640725911E+01  0.36708233021E+02  0.54367031890E+02  0.39999880799E+02 0.  0.
         12    1    3    3    0    0 -0.26752701952E+01  0.10640725911E+01 -0.36708233021E+02  0.36820968110E+02  0.00000000000E+00 0. -1.
         11    1    4    4    0    0 -0.28153947935E+01 -0.56861147006E+00  0.65628022256E+01  0.71638076580E+01  0.51100000000E-03 0. -1.
        -11    1    4    4    0    0 -0.91800465159E+01 -0.11787529643E+02  0.22857305207E+02  0.27307059723E+02  0.51100000000E-03 0.  1.
         12    1    4    4    0    0  0.14670711505E+02  0.11292068522E+02  0.72881255876E+01  0.19896164508E+02  0.00000000000E+00 0. -1.
</event>
<event>
 8    1  0.2500956E-006  0.9118800E+02  0.7816164E-02  0.1184000E+00
        -11   -1    0    0    0    0  0.00000000000E+00  0.00000000000E+00  0.45593999997E+02  0.45594000000E+02  0.51100000000E-03 0.  1.
         11   -1    0    0    0    0 -0.00000000000E+00 -0.00000000000E+00 -0.45593999997E+02  0.45594000000E+02  0.51100000000E-03 0. -1.
         23    2    1    2    0    0  0.00000000000E+00  0.88817841970E-15  0.88817841970E-15  0.91188000000E+02  0.91188000000E+02 0.  0.
    9900012    2    3    3    0    0  0.36188673117E+02  0.48340363073E+01 -0.47740194297E+01  0.54367092481E+02  0.40000018930E+02 0.  0.
         12    1    3    3    0    0 -0.36188673117E+02 -0.48340363073E+01  0.47740194297E+01  0.36820907519E+02  0.00000000000E+00 0. -1.
         11    1    4    4    0    0  0.76672350437E+01  0.84204630334E+01 -0.85038603501E+01  0.14212893162E+02  0.51100000000E-03 0. -1.
        -11    1    4    4    0    0  0.91164972075E+00  0.60070420428E+01  0.85923336522E+01  0.10523490731E+02  0.51100000000E-03 0.  1.
         12    1    4    4    0    0  0.27609788352E+02 -0.95934687688E+01 -0.48624927319E+01  0.29630708588E+02  0.00000000000E+00 0. -1.
</event>
<event>
 8    1  0.2500956E-006  0.9118800E+02  0.7816164E-02  0.1184000E+00
        -11   -1    0    0    0    0  0.00000000000E+00  0.00000000000E+00  0.45593999997E+02  0.45594000000E+02  0.51100000000E-03 0. -1.
         11   -1    0    0    0    0 -0.00000000000E+00 -0.00000000000E+00 -0.45593999997E+02  0.45594000000E+02  0.51100000000E-03 0.  1.
         23    2    1    2    0    0 -0.44408920985E-15  0.71054273576E-14  0.53290705182E-14  0.91188000000E+02  0.91188000000E+02 0.  0.
    9900012    2    3    3    0    0 -0.35325884721E+01  0.35933947138E+02 -0.72145823068E+01  0.54367110058E+02  0.40000058999E+02 0.  0.
         12    1    3    3    0    0  0.35325884721E+01 -0.35933947138E+02  0.72145823068E+01  0.36820889942E+02  0.00000000000E+00 0. -1.
         11    1    4    4    0    0  0.15113709788E+01  0.94711478209E+01  0.15672750367E+02  0.18374492853E+02  0.51100000000E-03 0. -1.
        -11    1    4    4    0    0 -0.62218106295E+00  0.78313204845E+01 -0.30681405552E+01  0.84338707919E+01  0.51100000000E-03 0.  1.
         12    1    4    4    0    0 -0.44217783880E+01  0.18631478833E+02 -0.19819192119E+02  0.27558746413E+02  0.00000000000E+00 0. -1.
</event>
<event>
 8    1  0.2500956E-006  0.9118800E+02  0.7816164E-02  0.1184000E+00
        -11   -1    0    0    0    0  0.00000000000E+00  0.00000000000E+00  0.45593999997E+02  0.45594000000E+02  0.51100000000E-03 0.  1.
         11   -1    0    0    0    0 -0.00000000000E+00 -0.00000000000E+00 -0.45593999997E+02  0.45594000000E+02  0.51100000000E-03 0. -1.
         23    2    1    2    0    0  0.00000000000E+00  0.00000000000E+00 -0.35527136788E-14  0.91188000000E+02  0.91188000000E+02 0.  0.
    9900012    2    3    3    0    0  0.27002473141E+02  0.17816700167E+02  0.17584433457E+02  0.54367073062E+02  0.39999974660E+02 0.  0.
         12    1    3    3    0    0 -0.27002473141E+02 -0.17816700167E+02 -0.17584433457E+02  0.36820926938E+02  0.00000000000E+00 0. -1.
         11    1    4    4    0    0  0.92797913627E+01 -0.60276117731E+01  0.13908977893E+02  0.17773753056E+02  0.51100000000E-03 0. -1.
        -11    1    4    4    0    0  0.66349269061E+01  0.23967454994E+02 -0.13253060125E+00  0.24869232368E+02  0.51100000000E-03 0.  1.
        -12    1    4    4    0    0  0.11087754872E+02 -0.12314305390E+00  0.38079861654E+01  0.11724087638E+02  0.00000000000E+00 0.  1.
</event>
<event>
 8    1  0.2500956E-006  0.9118800E+02  0.7816164E-02  0.1184000E+00
        -11   -1    0    0    0    0  0.00000000000E+00  0.00000000000E+00  0.45593999997E+02  0.45594000000E+02  0.51100000000E-03 0. -1.
         11   -1    0    0    0    0 -0.00000000000E+00 -0.00000000000E+00 -0.45593999997E+02  0.45594000000E+02  0.51100000000E-03 0.  1.
         23    2    1    2    0    0  0.00000000000E+00  0.88817841970E-15  0.00000000000E+00  0.91188000000E+02  0.91188000000E+02 0.  0.
    9900012    2    3    3    0    0  0.35284651962E+02  0.54429400522E+01  0.90082205825E+01  0.54367077978E+02  0.39999985867E+02 0.  0.
         12    1    3    3    0    0 -0.35284651962E+02 -0.54429400522E+01 -0.90082205825E+01  0.36820922022E+02  0.00000000000E+00 0. -1.
         11    1    4    4    0    0  0.22229287194E+01 -0.22241763745E+01  0.58172304252E+01  0.66127560606E+01  0.51100000000E-03 0. -1.
        -11    1    4    4    0    0  0.37557605026E+02  0.10360127327E+02 -0.36564552893E+01  0.39131516697E+02  0.51100000000E-03 0.  1.
        -12    1    4    4    0    0 -0.44958817832E+01 -0.26930109008E+01  0.68474454466E+01  0.86228052202E+01  0.00000000000E+00 0.  1.
</event>
<event>
 8    1  0.2500956E-006  0.9118800E+02  0.7816164E-02  0.1184000E+00
        -11   -1    0    0    0    0  0.00000000000E+00  0.00000000000E+00  0.45593999997E+02  0.45594000000E+02  0.51100000000E-03 0.  1.
         11   -1    0    0    0    0 -0.00000000000E+00 -0.00000000000E+00 -0.45593999997E+02  0.45594000000E+02  0.51100000000E-03 0. -1.
         23    2    1    2    0    0  0.00000000000E+00  0.44408920985E-15 -0.71054273576E-14  0.91188000000E+02  0.91188000000E+02 0.  0.
    9900012    2    3    3    0    0 -0.19489884568E+02  0.26525149279E+01 -0.31126969598E+02  0.54367086482E+02  0.40000005254E+02 0.  0.
        -12    1    3    3    0    0  0.19489884568E+02 -0.26525149279E+01  0.31126969598E+02  0.36820913518E+02  0.00000000000E+00 0.  1.
         11    1    4    4    0    0 -0.11494098222E+02  0.31861354368E+01 -0.39589776500E+02  0.41347504840E+02  0.51100000000E-03 0. -1.
        -11    1    4    4    0    0 -0.38433443570E+01  0.14807205289E+01  0.98929577608E+00  0.42358630201E+01  0.51100000000E-03 0.  1.
         12    1    4    4    0    0 -0.41524419890E+01 -0.20143410377E+01  0.74735111255E+01  0.87837186221E+01  0.00000000000E+00 0. -1.
</event>
<event>
 8    1  0.2500956E-006  0.9118800E+02  0.7816164E-02  0.1184000E+00
        -11   -1    0    0    0    0  0.00000000000E+00  0.00000000000E+00  0.45593999997E+02  0.45594000000E+02  0.51100000000E-03 0.  1.
         11   -1    0    0    0    0 -0.00000000000E+00 -0.00000000000E+00 -0.45593999997E+02  0.45594000000E+02  0.51100000000E-03 0. -1.
         23    2    1    2    0    0 -0.88817841970E-15  0.00000000000E+00  0.00000000000E+00  0.91188000000E+02  0.91188000000E+02 0.  0.
    9900012    2    3    3    0    0  0.66249228529E+01  0.16225907358E+02  0.32382247630E+02  0.54367087002E+02  0.40000006439E+02 0.  0.
         12    1    3    3    0    0 -0.66249228529E+01 -0.16225907358E+02 -0.32382247630E+02  0.36820912998E+02  0.00000000000E+00 0. -1.
         11    1    4    4    0    0  0.15072055246E+02  0.63916871502E+01  0.95247202226E+00  0.16399015738E+02  0.51100000000E-03 0. -1.
        -11    1    4    4    0    0  0.51625583313E+00  0.62951749673E+01  0.14542232426E+01  0.64815517783E+01  0.51100000000E-03 0.  1.
        -12    1    4    4    0    0 -0.89633882261E+01  0.35390452403E+01  0.29975552366E+02  0.31486519486E+02  0.00000000000E+00 0.  1.
</event>
<event>
 8    1  0.2500956E-006  0.9118800E+02  0.7816164E-02  0.1184000E+00
        -11   -1    0    0    0    0  0.00000000000E+00  0.00000000000E+00  0.45593999997E+02  0.45594000000E+02  0.51100000000E-03 0.  1.
         11   -1    0    0    0    0 -0.00000000000E+00 -0.00000000000E+00 -0.45593999997E+02  0.45594000000E+02  0.51100000000E-03 0. -1.
         23    2    1    2    0    0  0.00000000000E+00  0.00000000000E+00 -0.35527136788E-14  0.91188000000E+02  0.91188000000E+02 0.  0.
    9900012    2    3    3    0    0  0.22260229490E+02 -0.92278532245E+01  0.27840773928E+02  0.54367084952E+02  0.40000001765E+02 0.  0.
         12    1    3    3    0    0 -0.22260229490E+02  0.92278532245E+01 -0.27840773928E+02  0.36820915048E+02  0.00000000000E+00 0. -1.
         11    1    4    4    0    0  0.17075313848E+02 -0.12825892508E+01 -0.18877573443E+01  0.17227158972E+02  0.51100000000E-03 0. -1.
        -11    1    4    4    0    0  0.83541796191E+01  0.12751506274E+01  0.34805295423E+01  0.91396067960E+01  0.51100000000E-03 0.  1.
         12    1    4    4    0    0 -0.31692639772E+01 -0.92204146012E+01  0.26248001730E+02  0.28000319184E+02  0.00000000000E+00 0. -1.
</event>
<event>
 8    1  0.2500956E-006  0.9118800E+02  0.7816164E-02  0.1184000E+00
        -11   -1    0    0    0    0  0.00000000000E+00  0.00000000000E+00  0.45593999997E+02  0.45594000000E+02  0.51100000000E-03 0. -1.
         11   -1    0    0    0    0 -0.00000000000E+00 -0.00000000000E+00 -0.45593999997E+02  0.45594000000E+02  0.51100000000E-03 0.  1.
         23    2    1    2    0    0  0.35527136788E-14 -0.35527136788E-14  0.44408920985E-15  0.91188000000E+02  0.91188000000E+02 0.  0.
    9900012    2    3    3    0    0  0.21903442065E+02  0.29334295510E+02 -0.39392559953E+01  0.54367090110E+02  0.40000013523E+02 0.  0.
        -12    1    3    3    0    0 -0.21903442065E+02 -0.29334295510E+02  0.39392559953E+01  0.36820909890E+02  0.00000000000E+00 0.  1.
         11    1    4    4    0    0  0.13698891603E+02  0.99239677965E+01  0.36630802500E+01  0.17307886213E+02  0.51100000000E-03 0. -1.
        -11    1    4    4    0    0  0.19077453705E+02  0.87166564916E+01 -0.34774610806E+01  0.21260810805E+02  0.51100000000E-03 0.  1.
        -12    1    4    4    0    0 -0.10872903244E+02  0.10693671222E+02 -0.41248751647E+01  0.15798393091E+02  0.00000000000E+00 0.  1.
</event>
<event>
 8    1  0.2500956E-006  0.9118800E+02  0.7816164E-02  0.1184000E+00
        -11   -1    0    0    0    0  0.00000000000E+00  0.00000000000E+00  0.45593999997E+02  0.45594000000E+02  0.51100000000E-03 0.  1.
         11   -1    0    0    0    0 -0.00000000000E+00 -0.00000000000E+00 -0.45593999997E+02  0.45594000000E+02  0.51100000000E-03 0. -1.
         23    2    1    2    0    0 -0.17763568394E-14  0.00000000000E+00  0.88817841970E-15  0.91188000000E+02  0.91188000000E+02 0.  0.
    9900012    2    3    3    0    0  0.13164535197E+02  0.33749104645E+02 -0.65934082274E+01  0.54367080900E+02  0.39999992528E+02 0.  0.
         12    1    3    3    0    0 -0.13164535197E+02 -0.33749104645E+02  0.65934082274E+01  0.36820919100E+02  0.00000000000E+00 0. -1.
         11    1    4    4    0    0  0.46609352184E+01  0.13989025481E+02  0.18735631460E+01  0.14863626412E+02  0.51100000000E-03 0. -1.
        -11    1    4    4    0    0  0.35914611141E+01  0.21757705396E+02  0.70130034478E+01  0.23140409561E+02  0.51100000000E-03 0.  1.
         12    1    4    4    0    0  0.49121388647E+01 -0.19976262316E+01 -0.15479974821E+02  0.16363044926E+02  0.00000000000E+00 0. -1.
</event>
<event>
 8    1  0.2500956E-006  0.9118800E+02  0.7816164E-02  0.1184000E+00
        -11   -1    0    0    0    0  0.00000000000E+00  0.00000000000E+00  0.45593999997E+02  0.45594000000E+02  0.51100000000E-03 0.  1.
         11   -1    0    0    0    0 -0.00000000000E+00 -0.00000000000E+00 -0.45593999997E+02  0.45594000000E+02  0.51100000000E-03 0. -1.
         23    2    1    2    0    0 -0.17763568394E-14  0.00000000000E+00  0.00000000000E+00  0.91188000000E+02  0.91188000000E+02 0.  0.
    9900012    2    3    3    0    0 -0.11266416324E+02 -0.96256027957E+01  0.33707495855E+02  0.54367086883E+02  0.40000006167E+02 0.  0.
         12    1    3    3    0    0  0.11266416324E+02  0.96256027957E+01 -0.33707495855E+02  0.36820913117E+02  0.00000000000E+00 0. -1.
         11    1    4    4    0    0 -0.74931606890E+01 -0.11776733119E+02  0.68305484547E+01  0.15540118807E+02  0.51100000000E-03 0. -1.
        -11    1    4    4    0    0 -0.92492115642E+01  0.12739908956E+02  0.18306348398E+02  0.24144887382E+02  0.51100000000E-03 0.  1.
         12    1    4    4    0    0  0.54759559291E+01 -0.10588778632E+02  0.85705990019E+01  0.14682080694E+02  0.00000000000E+00 0. -1.
</event>
<event>
 8    1  0.2500956E-006  0.9118800E+02  0.7816164E-02  0.1184000E+00
        -11   -1    0    0    0    0  0.00000000000E+00  0.00000000000E+00  0.45593999997E+02  0.45594000000E+02  0.51100000000E-03 0. -1.
         11   -1    0    0    0    0 -0.00000000000E+00 -0.00000000000E+00 -0.45593999997E+02  0.45594000000E+02  0.51100000000E-03 0.  1.
         23    2    1    2    0    0 -0.17763568394E-14  0.00000000000E+00 -0.35527136788E-14  0.91188000000E+02  0.91188000000E+02 0.  0.
    9900012    2    3    3    0    0  0.13365915004E+02 -0.21327967061E+02  0.26874709920E+02  0.54367083442E+02  0.39999998324E+02 0.  0.
        -12    1    3    3    0    0 -0.13365915004E+02  0.21327967061E+02 -0.26874709920E+02  0.36820916558E+02  0.00000000000E+00 0.  1.
         11    1    4    4    0    0  0.54082149512E+01 -0.21106963565E+02  0.21425782712E+02  0.30558417252E+02  0.51100000000E-03 0. -1.
        -11    1    4    4    0    0  0.24095575213E+01  0.18469282775E+01  0.13487424897E+02  0.13824895737E+02  0.51100000000E-03 0.  1.
         12    1    4    4    0    0  0.55481425314E+01 -0.20679317733E+01 -0.80384976888E+01  0.99837704531E+01  0.00000000000E+00 0. -1.
</event>
<event>
 8    1  0.2500956E-006  0.9118800E+02  0.7816164E-02  0.1184000E+00
        -11   -1    0    0    0    0  0.00000000000E+00  0.00000000000E+00  0.45593999997E+02  0.45594000000E+02  0.51100000000E-03 0. -1.
         11   -1    0    0    0    0 -0.00000000000E+00 -0.00000000000E+00 -0.45593999997E+02  0.45594000000E+02  0.51100000000E-03 0.  1.
         23    2    1    2    0    0  0.71054273576E-14  0.88817841970E-15  0.35527136788E-14  0.91188000000E+02  0.91188000000E+02 0.  0.
    9900012    2    3    3    0    0  0.22863264174E+02 -0.64909071036E+01  0.28123273418E+02  0.54367092468E+02  0.40000018900E+02 0.  0.
        -12    1    3    3    0    0 -0.22863264174E+02  0.64909071036E+01 -0.28123273418E+02  0.36820907532E+02  0.00000000000E+00 0.  1.
         11    1    4    4    0    0  0.90318938562E+01  0.96048105975E+01  0.16952083479E+02  0.21475582129E+02  0.51100000000E-03 0. -1.
        -11    1    4    4    0    0  0.12249004915E+02 -0.79634903602E+00 -0.22486075531E+01  0.12479123743E+02  0.51100000000E-03 0.  1.
         12    1    4    4    0    0  0.15823654025E+01 -0.15299368665E+02  0.13419797492E+02  0.20412386596E+02  0.00000000000E+00 0. -1.
</event>
<event>
 8    1  0.2500956E-006  0.9118800E+02  0.7816164E-02  0.1184000E+00
        -11   -1    0    0    0    0  0.00000000000E+00  0.00000000000E+00  0.45593999997E+02  0.45594000000E+02  0.51100000000E-03 0. -1.
         11   -1    0    0    0    0 -0.00000000000E+00 -0.00000000000E+00 -0.45593999997E+02  0.45594000000E+02  0.51100000000E-03 0.  1.
         23    2    1    2    0    0  0.44408920985E-15  0.00000000000E+00  0.00000000000E+00  0.91188000000E+02  0.91188000000E+02 0.  0.
    9900012    2    3    3    0    0  0.33766467038E+01 -0.19616781800E+02 -0.30976755891E+02  0.54367091854E+02  0.40000017501E+02 0.  0.
         12    1    3    3    0    0 -0.33766467038E+01  0.19616781800E+02  0.30976755891E+02  0.36820908146E+02  0.00000000000E+00 0. -1.
         11    1    4    4    0    0 -0.44964107928E+00  0.92248721246E+01 -0.94212259067E+01  0.13193177808E+02  0.51100000000E-03 0. -1.
        -11    1    4    4    0    0  0.27115019955E+01 -0.27520145907E+02 -0.98712730824E+01  0.29362436996E+02  0.51100000000E-03 0.  1.
        -12    1    4    4    0    0  0.11147857875E+01 -0.13215080181E+01 -0.11684256902E+02  0.11811477051E+02  0.00000000000E+00 0.  1.
</event>
<event>
 8    1  0.2500956E-006  0.9118800E+02  0.7816164E-02  0.1184000E+00
        -11   -1    0    0    0    0  0.00000000000E+00  0.00000000000E+00  0.45593999997E+02  0.45594000000E+02  0.51100000000E-03 0.  1.
         11   -1    0    0    0    0 -0.00000000000E+00 -0.00000000000E+00 -0.45593999997E+02  0.45594000000E+02  0.51100000000E-03 0. -1.
         23    2    1    2    0    0  0.00000000000E+00  0.17763568394E-14  0.71054273576E-14  0.91188000000E+02  0.91188000000E+02 0.  0.
    9900012    2    3    3    0    0 -0.48474028878E+01  0.12095216785E+02  0.34438186488E+02  0.54367078333E+02  0.39999986677E+02 0.  0.
         12    1    3    3    0    0  0.48474028878E+01 -0.12095216785E+02 -0.34438186488E+02  0.36820921667E+02  0.00000000000E+00 0. -1.
         11    1    4    4    0    0  0.96116271527E+01  0.14402172803E+02  0.19807678587E+01  0.17427834046E+02  0.51100000000E-03 0.  1.
        -11    1    4    4    0    0 -0.51071214494E+01 -0.57302446684E+01  0.13908852178E+02  0.15886301100E+02  0.51100000000E-03 0. -1.
        -12    1    4    4    0    0 -0.93519085911E+01  0.34232886503E+01  0.18548566451E+02  0.21052943187E+02  0.00000000000E+00 0.  1.
</event>
<event>
 8    1  0.2500956E-006  0.9118800E+02  0.7816164E-02  0.1184000E+00
        -11   -1    0    0    0    0  0.00000000000E+00  0.00000000000E+00  0.45593999997E+02  0.45594000000E+02  0.51100000000E-03 0.  1.
         11   -1    0    0    0    0 -0.00000000000E+00 -0.00000000000E+00 -0.45593999997E+02  0.45594000000E+02  0.51100000000E-03 0. -1.
         23    2    1    2    0    0 -0.35527136788E-14  0.00000000000E+00  0.35527136788E-14  0.91188000000E+02  0.91188000000E+02 0.  0.
    9900012    2    3    3    0    0 -0.23367754930E+02 -0.21194118612E+02  0.18987805558E+02  0.54367090260E+02  0.40000013865E+02 0.  0.
         12    1    3    3    0    0  0.23367754930E+02  0.21194118612E+02 -0.18987805558E+02  0.36820909740E+02  0.00000000000E+00 0. -1.
         11    1    4    4    0    0 -0.60458581869E+01  0.27332511757E+01  0.71461798099E+00  0.66733606470E+01  0.51100000000E-03 0. -1.
        -11    1    4    4    0    0 -0.21242763609E+02 -0.11668918291E+02  0.23540653833E+02  0.33787291146E+02  0.51100000000E-03 0.  1.
         12    1    4    4    0    0  0.39208668660E+01 -0.12258451497E+02 -0.52674662556E+01  0.13906438467E+02  0.00000000000E+00 0. -1.
</event>
<event>
 8    1  0.2500956E-006  0.9118800E+02  0.7816164E-02  0.1184000E+00
        -11   -1    0    0    0    0  0.00000000000E+00  0.00000000000E+00  0.45593999997E+02  0.45594000000E+02  0.51100000000E-03 0.  1.
         11   -1    0    0    0    0 -0.00000000000E+00 -0.00000000000E+00 -0.45593999997E+02  0.45594000000E+02  0.51100000000E-03 0. -1.
         23    2    1    2    0    0  0.00000000000E+00  0.00000000000E+00 -0.14710455076E-14  0.91188000000E+02  0.91188000000E+02 0.  0.
    9900012    2    3    3    0    0 -0.28960631376E+02 -0.22738608200E+02  0.12966575448E+00  0.54367091731E+02  0.40000017219E+02 0.  0.
         12    1    3    3    0    0  0.28960631376E+02  0.22738608200E+02 -0.12966575448E+00  0.36820908269E+02  0.00000000000E+00 0. -1.
         11    1    4    4    0    0 -0.12499509813E+02 -0.15600355776E+02  0.14126319567E+02  0.24477780754E+02  0.51100000000E-03 0.  1.
        -11    1    4    4    0    0 -0.92573222540E+01 -0.13773679796E+02 -0.82381949525E+01  0.18527820346E+02  0.51100000000E-03 0. -1.
        -12    1    4    4    0    0 -0.72037993094E+01  0.66354273721E+01 -0.57584588600E+01  0.11361490630E+02  0.00000000000E+00 0.  1.
</event>
<event>
 8    1  0.2500956E-006  0.9118800E+02  0.7816164E-02  0.1184000E+00
        -11   -1    0    0    0    0  0.00000000000E+00  0.00000000000E+00  0.45593999997E+02  0.45594000000E+02  0.51100000000E-03 0. -1.
         11   -1    0    0    0    0 -0.00000000000E+00 -0.00000000000E+00 -0.45593999997E+02  0.45594000000E+02  0.51100000000E-03 0.  1.
         23    2    1    2    0    0  0.00000000000E+00  0.00000000000E+00  0.17763568394E-14  0.91188000000E+02  0.91188000000E+02 0.  0.
    9900012    2    3    3    0    0  0.35049420438E+02  0.10067837013E+02 -0.50946858375E+01  0.54367095083E+02  0.40000024860E+02 0.  0.
         12    1    3    3    0    0 -0.35049420438E+02 -0.10067837013E+02  0.50946858375E+01  0.36820904917E+02  0.00000000000E+00 0. -1.
         11    1    4    4    0    0  0.18008393296E+02  0.36674447355E+01  0.11916118445E+02  0.21903110717E+02  0.51100000000E-03 0. -1.
        -11    1    4    4    0    0  0.13396829650E+02  0.35366985746E+01 -0.21779949856E+02  0.25813746289E+02  0.51100000000E-03 0.  1.
        -12    1    4    4    0    0  0.36441974912E+01  0.28636937026E+01  0.47691455732E+01  0.66502380766E+01  0.00000000000E+00 0.  1.
</event>
<event>
 8    1  0.2500956E-006  0.9118800E+02  0.7816164E-02  0.1184000E+00
        -11   -1    0    0    0    0  0.00000000000E+00  0.00000000000E+00  0.45593999997E+02  0.45594000000E+02  0.51100000000E-03 0.  1.
         11   -1    0    0    0    0 -0.00000000000E+00 -0.00000000000E+00 -0.45593999997E+02  0.45594000000E+02  0.51100000000E-03 0. -1.
         23    2    1    2    0    0  0.17763568394E-14  0.00000000000E+00  0.00000000000E+00  0.91188000000E+02  0.91188000000E+02 0.  0.
    9900012    2    3    3    0    0 -0.15537327764E+02  0.18238828879E+02  0.27959192564E+02  0.54367083638E+02  0.39999998769E+02 0.  0.
         12    1    3    3    0    0  0.15537327764E+02 -0.18238828879E+02 -0.27959192564E+02  0.36820916362E+02  0.00000000000E+00 0. -1.
         11    1    4    4    0    0 -0.21144743473E+01 -0.58313618325E+01  0.24574402728E+02  0.25345158360E+02  0.51100000000E-03 0.  1.
        -11    1    4    4    0    0 -0.80251738719E+01  0.16869814843E+02 -0.15733414082E+01  0.18747519088E+02  0.51100000000E-03 0. -1.
        -12    1    4    4    0    0 -0.53976795450E+01  0.72003758676E+01  0.49581312442E+01  0.10274406189E+02  0.00000000000E+00 0.  1.
</event>
<event>
 8    1  0.2500956E-006  0.9118800E+02  0.7816164E-02  0.1184000E+00
        -11   -1    0    0    0    0  0.00000000000E+00  0.00000000000E+00  0.45593999997E+02  0.45594000000E+02  0.51100000000E-03 0. -1.
         11   -1    0    0    0    0 -0.00000000000E+00 -0.00000000000E+00 -0.45593999997E+02  0.45594000000E+02  0.51100000000E-03 0.  1.
         23    2    1    2    0    0  0.00000000000E+00  0.16653345369E-14 -0.71054273576E-14  0.91188000000E+02  0.91188000000E+02 0.  0.
    9900012    2    3    3    0    0  0.21919280343E+01  0.65525005151E+00  0.36749735034E+02  0.54367123772E+02  0.40000090263E+02 0.  0.
        -12    1    3    3    0    0 -0.21919280343E+01 -0.65525005151E+00 -0.36749735034E+02  0.36820876228E+02  0.00000000000E+00 0.  1.
         11    1    4    4    0    0  0.14414429272E+01  0.11399033686E+02  0.12055440277E+02  0.16653809390E+02  0.51100000000E-03 0. -1.
        -11    1    4    4    0    0  0.50595056283E+01  0.54890246725E+01 -0.44678176442E+00  0.74784759988E+01  0.51100000000E-03 0.  1.
        -12    1    4    4    0    0 -0.43090205213E+01 -0.16232808307E+02  0.25141076521E+02  0.30234838383E+02  0.00000000000E+00 0.  1.
</event>
<event>
 8    1  0.2500956E-006  0.9118800E+02  0.7816164E-02  0.1184000E+00
        -11   -1    0    0    0    0  0.00000000000E+00  0.00000000000E+00  0.45593999997E+02  0.45594000000E+02  0.51100000000E-03 0. -1.
         11   -1    0    0    0    0 -0.00000000000E+00 -0.00000000000E+00 -0.45593999997E+02  0.45594000000E+02  0.51100000000E-03 0.  1.
         23    2    1    2    0    0 -0.35527136788E-14 -0.33306690739E-15  0.00000000000E+00  0.91188000000E+02  0.91188000000E+02 0.  0.
    9900012    2    3    3    0    0  0.26406104101E+02  0.86028906079E+00 -0.25646776823E+02  0.54367087566E+02  0.40000007724E+02 0.  0.
         12    1    3    3    0    0 -0.26406104101E+02 -0.86028906079E+00  0.25646776823E+02  0.36820912434E+02  0.00000000000E+00 0. -1.
         11    1    4    4    0    0  0.29950662904E+01  0.92638971231E+01 -0.88918943735E+01  0.13185446439E+02  0.51100000000E-03 0.  1.
        -11    1    4    4    0    0  0.97048251263E+01 -0.11028064886E+01  0.75458855498E+01  0.12342617302E+02  0.51100000000E-03 0. -1.
        -12    1    4    4    0    0  0.13706212684E+02 -0.73008015738E+01 -0.24300768000E+02  0.28839023824E+02  0.00000000000E+00 0.  1.
</event>
<event>
 8    1  0.2500956E-006  0.9118800E+02  0.7816164E-02  0.1184000E+00
        -11   -1    0    0    0    0  0.00000000000E+00  0.00000000000E+00  0.45593999997E+02  0.45594000000E+02  0.51100000000E-03 0.  1.
         11   -1    0    0    0    0 -0.00000000000E+00 -0.00000000000E+00 -0.45593999997E+02  0.45594000000E+02  0.51100000000E-03 0. -1.
         23    2    1    2    0    0 -0.17763568394E-14  0.00000000000E+00 -0.35527136788E-14  0.91188000000E+02  0.91188000000E+02 0.  0.
    9900012    2    3    3    0    0  0.12256073184E+02  0.27305575421E+02 -0.21447025122E+02  0.54367072994E+02  0.39999974505E+02 0.  0.
        -12    1    3    3    0    0 -0.12256073184E+02 -0.27305575421E+02  0.21447025122E+02  0.36820927006E+02  0.00000000000E+00 0.  1.
         11    1    4    4    0    0 -0.81999326508E+01 -0.87865952441E-01 -0.67906640259E+01  0.10647052835E+02  0.51100000000E-03 0. -1.
        -11    1    4    4    0    0  0.12550331197E+02  0.25417730206E+02 -0.16798598123E+01  0.28397072934E+02  0.51100000000E-03 0.  1.
         12    1    4    4    0    0  0.79056746377E+01  0.19757111675E+01 -0.12976501284E+02  0.15322947225E+02  0.00000000000E+00 0. -1.
</event>
<event>
 8    1  0.2500956E-006  0.9118800E+02  0.7816164E-02  0.1184000E+00
        -11   -1    0    0    0    0  0.00000000000E+00  0.00000000000E+00  0.45593999997E+02  0.45594000000E+02  0.51100000000E-03 0.  1.
         11   -1    0    0    0    0 -0.00000000000E+00 -0.00000000000E+00 -0.45593999997E+02  0.45594000000E+02  0.51100000000E-03 0. -1.
         23    2    1    2    0    0  0.00000000000E+00 -0.88817841970E-15 -0.55511151231E-15  0.91188000000E+02  0.91188000000E+02 0.  0.
    9900012    2    3    3    0    0 -0.36140941927E+02 -0.70194903218E+01  0.58162256364E+00  0.54367092725E+02  0.40000019486E+02 0.  0.
        -12    1    3    3    0    0  0.36140941927E+02  0.70194903218E+01 -0.58162256364E+00  0.36820907275E+02  0.00000000000E+00 0.  1.
         11    1    4    4    0    0  0.10040019089E+01 -0.11839728646E+02  0.31389506068E+01  0.12289841554E+02  0.51100000000E-03 0. -1.
        -11    1    4    4    0    0 -0.23238123478E+02  0.36919772939E+01  0.77028851636E+01  0.24758342417E+02  0.51100000000E-03 0.  1.
         12    1    4    4    0    0 -0.13906820357E+02  0.11282610300E+01 -0.10260213207E+02  0.17318908755E+02  0.00000000000E+00 0. -1.
</event>
<event>
 8    1  0.2500956E-006  0.9118800E+02  0.7816164E-02  0.1184000E+00
        -11   -1    0    0    0    0  0.00000000000E+00  0.00000000000E+00  0.45593999997E+02  0.45594000000E+02  0.51100000000E-03 0.  1.
         11   -1    0    0    0    0 -0.00000000000E+00 -0.00000000000E+00 -0.45593999997E+02  0.45594000000E+02  0.51100000000E-03 0. -1.
         23    2    1    2    0    0  0.17763568394E-14  0.00000000000E+00  0.00000000000E+00  0.91188000000E+02  0.91188000000E+02 0.  0.
    9900012    2    3    3    0    0  0.90495528385E+01  0.17133404008E+02  0.31310254819E+02  0.54367082083E+02  0.39999995224E+02 0.  0.
         12    1    3    3    0    0 -0.90495528385E+01 -0.17133404008E+02 -0.31310254819E+02  0.36820917917E+02  0.00000000000E+00 0. -1.
         11    1    4    4    0    0  0.28906556302E+01  0.72003970202E+01  0.24809100396E+02  0.25994096829E+02  0.51100000000E-03 0. -1.
        -11    1    4    4    0    0  0.14716257222E+02  0.96519992928E+01  0.85547700485E+01  0.19568173338E+02  0.51100000000E-03 0.  1.
         12    1    4    4    0    0 -0.85573600132E+01  0.28100769506E+00 -0.20536156262E+01  0.88048119151E+01  0.00000000000E+00 0. -1.
</event>
<event>
 8    1  0.2500956E-006  0.9118800E+02  0.7816164E-02  0.1184000E+00
        -11   -1    0    0    0    0  0.00000000000E+00  0.00000000000E+00  0.45593999997E+02  0.45594000000E+02  0.51100000000E-03 0.  1.
         11   -1    0    0    0    0 -0.00000000000E+00 -0.00000000000E+00 -0.45593999997E+02  0.45594000000E+02  0.51100000000E-03 0. -1.
         23    2    1    2    0    0  0.71054273576E-14 -0.35527136788E-14  0.44408920985E-15  0.91188000000E+02  0.91188000000E+02 0.  0.
    9900012    2    3    3    0    0 -0.32247600898E+02 -0.17630136023E+02 -0.22472713592E+01  0.54367086263E+02  0.40000004755E+02 0.  0.
        -12    1    3    3    0    0  0.32247600898E+02  0.17630136023E+02  0.22472713592E+01  0.36820913737E+02  0.00000000000E+00 0.  1.
         11    1    4    4    0    0 -0.13976891601E+01  0.57628125139E+01 -0.20616537956E+01  0.62780538141E+01  0.51100000000E-03 0. -1.
        -11    1    4    4    0    0 -0.10576475993E+02 -0.25495356846E+02 -0.16725320050E+01  0.27652711055E+02  0.51100000000E-03 0.  1.
         12    1    4    4    0    0 -0.20273435744E+02  0.21024083091E+01  0.14869144414E+01  0.20436321394E+02  0.00000000000E+00 0. -1.
</event>
<event>
 8    1  0.2500956E-006  0.9118800E+02  0.7816164E-02  0.1184000E+00
        -11   -1    0    0    0    0  0.00000000000E+00  0.00000000000E+00  0.45593999997E+02  0.45594000000E+02  0.51100000000E-03 0. -1.
         11   -1    0    0    0    0 -0.00000000000E+00 -0.00000000000E+00 -0.45593999997E+02  0.45594000000E+02  0.51100000000E-03 0.  1.
         23    2    1    2    0    0  0.00000000000E+00 -0.88817841970E-15  0.00000000000E+00  0.91188000000E+02  0.91188000000E+02 0.  0.
    9900012    2    3    3    0    0  0.23128312024E+02  0.71765283784E+01 -0.27737276605E+02  0.54367110682E+02  0.40000060423E+02 0.  0.
         12    1    3    3    0    0 -0.23128312024E+02 -0.71765283784E+01  0.27737276605E+02  0.36820889318E+02  0.00000000000E+00 0. -1.
         11    1    4    4    0    0 -0.16134564543E+01 -0.28606248573E+01 -0.18355754924E+02  0.18647255975E+02  0.51100000000E-03 0. -1.
        -11    1    4    4    0    0  0.27554206341E+02  0.11353361446E+02 -0.11518808459E+02  0.31950212078E+02  0.51100000000E-03 0.  1.
        -12    1    4    4    0    0 -0.28124378630E+01 -0.13162082104E+01  0.21372867777E+01  0.37696426298E+01  0.00000000000E+00 0.  1.
</event>
<event>
 8    1  0.2500956E-006  0.9118800E+02  0.7816164E-02  0.1184000E+00
        -11   -1    0    0    0    0  0.00000000000E+00  0.00000000000E+00  0.45593999997E+02  0.45594000000E+02  0.51100000000E-03 0.  1.
         11   -1    0    0    0    0 -0.00000000000E+00 -0.00000000000E+00 -0.45593999997E+02  0.45594000000E+02  0.51100000000E-03 0. -1.
         23    2    1    2    0    0  0.83266726847E-15  0.00000000000E+00  0.00000000000E+00  0.91188000000E+02  0.91188000000E+02 0.  0.
    9900012    2    3    3    0    0 -0.16990094345E+00  0.28317644770E+02  0.23534298219E+02  0.54367067580E+02  0.39999962162E+02 0.  0.
         12    1    3    3    0    0  0.16990094345E+00 -0.28317644770E+02 -0.23534298219E+02  0.36820932420E+02  0.00000000000E+00 0. -1.
         11    1    4    4    0    0  0.14566694584E+02  0.31852728467E+01  0.12881023243E+02  0.19704195347E+02  0.51100000000E-03 0. -1.
        -11    1    4    4    0    0 -0.72193067441E+01  0.32992071972E+01  0.82478948868E+01  0.11446874173E+02  0.51100000000E-03 0.  1.
         12    1    4    4    0    0 -0.75172887828E+01  0.21833164726E+02  0.24053800884E+01  0.23215998061E+02  0.00000000000E+00 0. -1.
</event>
<event>
 8    1  0.2500956E-006  0.9118800E+02  0.7816164E-02  0.1184000E+00
        -11   -1    0    0    0    0  0.00000000000E+00  0.00000000000E+00  0.45593999997E+02  0.45594000000E+02  0.51100000000E-03 0.  1.
         11   -1    0    0    0    0 -0.00000000000E+00 -0.00000000000E+00 -0.45593999997E+02  0.45594000000E+02  0.51100000000E-03 0. -1.
         23    2    1    2    0    0  0.00000000000E+00  0.00000000000E+00  0.00000000000E+00  0.91188000000E+02  0.91188000000E+02 0.  0.
    9900012    2    3    3    0    0  0.18423072311E+02 -0.29729462980E+02  0.11512139935E+02  0.54367083005E+02  0.39999997327E+02 0.  0.
         12    1    3    3    0    0 -0.18423072311E+02  0.29729462980E+02 -0.11512139935E+02  0.36820916995E+02  0.00000000000E+00 0. -1.
         11    1    4    4    0    0  0.39574178240E+01  0.41693179584E+01  0.55385284610E+01  0.79824598869E+01  0.51100000000E-03 0. -1.
        -11    1    4    4    0    0 -0.18687858299E+01 -0.92195572673E+01  0.12923160730E+02  0.15984388640E+02  0.51100000000E-03 0.  1.
        -12    1    4    4    0    0  0.16334440317E+02 -0.24679223671E+02 -0.69495492559E+01  0.30400234478E+02  0.00000000000E+00 0.  1.
</event>
<event>
 8    1  0.2500956E-006  0.9118800E+02  0.7816164E-02  0.1184000E+00
        -11   -1    0    0    0    0  0.00000000000E+00  0.00000000000E+00  0.45593999997E+02  0.45594000000E+02  0.51100000000E-03 0.  1.
         11   -1    0    0    0    0 -0.00000000000E+00 -0.00000000000E+00 -0.45593999997E+02  0.45594000000E+02  0.51100000000E-03 0. -1.
         23    2    1    2    0    0 -0.22204460493E-15  0.00000000000E+00 -0.17763568394E-14  0.91188000000E+02  0.91188000000E+02 0.  0.
    9900012    2    3    3    0    0  0.12052108090E+01  0.33651601271E+02 -0.14896099798E+02  0.54367128331E+02  0.40000100657E+02 0.  0.
        -12    1    3    3    0    0 -0.12052108090E+01 -0.33651601271E+02  0.14896099798E+02  0.36820871669E+02  0.00000000000E+00 0.  1.
         11    1    4    4    0    0 -0.34626246856E+01  0.14892901174E+01 -0.69438706999E+01  0.79009553425E+01  0.51100000000E-03 0. -1.
        -11    1    4    4    0    0  0.60120194162E+00 -0.15352616530E+01  0.85623938013E+01  0.87196938013E+01  0.51100000000E-03 0.  1.
        -12    1    4    4    0    0  0.40666335530E+01  0.33697572807E+02 -0.16514622900E+02  0.37746479188E+02  0.00000000000E+00 0.  1.
</event>
<event>
 8    1  0.2500956E-006  0.9118800E+02  0.7816164E-02  0.1184000E+00
        -11   -1    0    0    0    0  0.00000000000E+00  0.00000000000E+00  0.45593999997E+02  0.45594000000E+02  0.51100000000E-03 0.  1.
         11   -1    0    0    0    0 -0.00000000000E+00 -0.00000000000E+00 -0.45593999997E+02  0.45594000000E+02  0.51100000000E-03 0. -1.
         23    2    1    2    0    0  0.17763568394E-14  0.22204460493E-15 -0.71054273576E-14  0.91188000000E+02  0.91188000000E+02 0.  0.
    9900012    2    3    3    0    0 -0.65118618786E+01 -0.83293174591E+00  0.36230949108E+02  0.54367084834E+02  0.40000001495E+02 0.  0.
         12    1    3    3    0    0  0.65118618786E+01  0.83293174591E+00 -0.36230949108E+02  0.36820915166E+02  0.00000000000E+00 0. -1.
         11    1    4    4    0    0 -0.19494531027E+01 -0.14750464788E+01  0.64760308158E+00  0.25289364418E+01  0.51100000000E-03 0. -1.
        -11    1    4    4    0    0 -0.11687586009E+02  0.16533151759E+02  0.18029526163E+02  0.27111041804E+02  0.51100000000E-03 0.  1.
        -12    1    4    4    0    0  0.71251772325E+01 -0.15891037026E+02  0.17553819864E+02  0.24727106587E+02  0.00000000000E+00 0.  1.
</event>
<event>
 8    1  0.2500956E-006  0.9118800E+02  0.7816164E-02  0.1184000E+00
        -11   -1    0    0    0    0  0.00000000000E+00  0.00000000000E+00  0.45593999997E+02  0.45594000000E+02  0.51100000000E-03 0.  1.
         11   -1    0    0    0    0 -0.00000000000E+00 -0.00000000000E+00 -0.45593999997E+02  0.45594000000E+02  0.51100000000E-03 0. -1.
         23    2    1    2    0    0  0.00000000000E+00 -0.88817841970E-15  0.00000000000E+00  0.91188000000E+02  0.91188000000E+02 0.  0.
    9900012    2    3    3    0    0 -0.81366648472E+01  0.63774656972E+01  0.35339784762E+02  0.54367112306E+02  0.40000064125E+02 0.  0.
         12    1    3    3    0    0  0.81366648472E+01 -0.63774656972E+01 -0.35339784762E+02  0.36820887694E+02  0.00000000000E+00 0. -1.
         11    1    4    4    0    0  0.68078346173E+01  0.53815580621E+01 -0.23573388383E+01  0.89924871983E+01  0.51100000000E-03 0. -1.
        -11    1    4    4    0    0  0.33680829791E+01 -0.34470582370E+01  0.15632145936E+02  0.16358183892E+02  0.51100000000E-03 0.  1.
         12    1    4    4    0    0 -0.18312582444E+02  0.44429658722E+01  0.22064977664E+02  0.29016441216E+02  0.00000000000E+00 0. -1.
</event>
<event>
 8    1  0.2500956E-006  0.9118800E+02  0.7816164E-02  0.1184000E+00
        -11   -1    0    0    0    0  0.00000000000E+00  0.00000000000E+00  0.45593999997E+02  0.45594000000E+02  0.51100000000E-03 0.  1.
         11   -1    0    0    0    0 -0.00000000000E+00 -0.00000000000E+00 -0.45593999997E+02  0.45594000000E+02  0.51100000000E-03 0. -1.
         23    2    1    2    0    0  0.00000000000E+00  0.00000000000E+00  0.35527136788E-14  0.91188000000E+02  0.91188000000E+02 0.  0.
    9900012    2    3    3    0    0 -0.27370111418E+02  0.18735865471E+02 -0.15988237365E+02  0.54367090342E+02  0.40000014054E+02 0.  0.
        -12    1    3    3    0    0  0.27370111418E+02 -0.18735865471E+02  0.15988237365E+02  0.36820909658E+02  0.00000000000E+00 0.  1.
         11    1    4    4    0    0 -0.92292060129E+01  0.12188861991E+02 -0.68226971716E+01  0.16742036830E+02  0.51100000000E-03 0. -1.
        -11    1    4    4    0    0 -0.22527175557E+02  0.12679449800E+02 -0.12176072429E+00  0.25850665596E+02  0.51100000000E-03 0.  1.
        -12    1    4    4    0    0  0.43862701520E+01 -0.61324463205E+01 -0.90437794690E+01  0.11774387916E+02  0.00000000000E+00 0.  1.
</event>
<event>
 8    1  0.2500956E-006  0.9118800E+02  0.7816164E-02  0.1184000E+00
        -11   -1    0    0    0    0  0.00000000000E+00  0.00000000000E+00  0.45593999997E+02  0.45594000000E+02  0.51100000000E-03 0. -1.
         11   -1    0    0    0    0 -0.00000000000E+00 -0.00000000000E+00 -0.45593999997E+02  0.45594000000E+02  0.51100000000E-03 0.  1.
         23    2    1    2    0    0  0.00000000000E+00  0.17763568394E-14  0.00000000000E+00  0.91188000000E+02  0.91188000000E+02 0.  0.
    9900012    2    3    3    0    0  0.50723136193E+00  0.10363731879E+02 -0.35328674025E+02  0.54367089766E+02  0.40000012740E+02 0.  0.
         12    1    3    3    0    0 -0.50723136193E+00 -0.10363731879E+02  0.35328674025E+02  0.36820910234E+02  0.00000000000E+00 0. -1.
         11    1    4    4    0    0 -0.11455084403E+02  0.14747106083E+02 -0.46941683392E+01  0.19254384259E+02  0.51100000000E-03 0. -1.
        -11    1    4    4    0    0 -0.79059813784E+00  0.14512050892E+01 -0.28143738734E+00  0.16763796976E+01  0.51100000000E-03 0.  1.
        -12    1    4    4    0    0  0.12752913903E+02 -0.58345792942E+01 -0.30353068298E+02  0.33436325810E+02  0.00000000000E+00 0.  1.
</event>
<event>
 8    1  0.2500956E-006  0.9118800E+02  0.7816164E-02  0.1184000E+00
        -11   -1    0    0    0    0  0.00000000000E+00  0.00000000000E+00  0.45593999997E+02  0.45594000000E+02  0.51100000000E-03 0.  1.
         11   -1    0    0    0    0 -0.00000000000E+00 -0.00000000000E+00 -0.45593999997E+02  0.45594000000E+02  0.51100000000E-03 0. -1.
         23    2    1    2    0    0  0.44408920985E-15  0.00000000000E+00 -0.17763568394E-14  0.91188000000E+02  0.91188000000E+02 0.  0.
    9900012    2    3    3    0    0 -0.38705442536E+01 -0.34505463296E+02  0.12254459230E+02  0.54367083647E+02  0.39999998789E+02 0.  0.
        -12    1    3    3    0    0  0.38705442536E+01  0.34505463296E+02 -0.12254459230E+02  0.36820916353E+02  0.00000000000E+00 0.  1.
         11    1    4    4    0    0 -0.13997087451E+02 -0.26069241563E+02  0.15655013382E+02  0.33475412724E+02  0.51100000000E-03 0. -1.
        -11    1    4    4    0    0  0.14079785700E+01 -0.15967752432E+01  0.59960867065E+01  0.63627942670E+01  0.51100000000E-03 0.  1.
        -12    1    4    4    0    0  0.87185646278E+01 -0.68394464895E+01 -0.93966408582E+01  0.14528876655E+02  0.00000000000E+00 0.  1.
</event>
<event>
 8    1  0.2500956E-006  0.9118800E+02  0.7816164E-02  0.1184000E+00
        -11   -1    0    0    0    0  0.00000000000E+00  0.00000000000E+00  0.45593999997E+02  0.45594000000E+02  0.51100000000E-03 0. -1.
         11   -1    0    0    0    0 -0.00000000000E+00 -0.00000000000E+00 -0.45593999997E+02  0.45594000000E+02  0.51100000000E-03 0.  1.
         23    2    1    2    0    0  0.00000000000E+00  0.00000000000E+00 -0.71054273576E-14  0.91188000000E+02  0.91188000000E+02 0.  0.
    9900012    2    3    3    0    0 -0.84367623811E+01 -0.82652363777E+01  0.34875295048E+02  0.54367091585E+02  0.40000016886E+02 0.  0.
        -12    1    3    3    0    0  0.84367623811E+01  0.82652363777E+01 -0.34875295048E+02  0.36820908415E+02  0.00000000000E+00 0.  1.
         11    1    4    4    0    0 -0.64608570172E+00  0.67464689561E+01  0.16733284246E+02  0.18053671982E+02  0.51100000000E-03 0. -1.
        -11    1    4    4    0    0 -0.56153694006E+01 -0.20999684924E+02  0.20143269730E+02  0.29635628155E+02  0.51100000000E-03 0.  1.
        -12    1    4    4    0    0 -0.21753072788E+01  0.59879795906E+01 -0.20012589283E+01  0.66777914487E+01  0.00000000000E+00 0.  1.
</event>
<event>
 8    1  0.2500956E-006  0.9118800E+02  0.7816164E-02  0.1184000E+00
        -11   -1    0    0    0    0  0.00000000000E+00  0.00000000000E+00  0.45593999997E+02  0.45594000000E+02  0.51100000000E-03 0.  1.
         11   -1    0    0    0    0 -0.00000000000E+00 -0.00000000000E+00 -0.45593999997E+02  0.45594000000E+02  0.51100000000E-03 0. -1.
         23    2    1    2    0    0  0.35527136788E-14  0.71054273576E-14 -0.35527136788E-14  0.91188000000E+02  0.91188000000E+02 0.  0.
    9900012    2    3    3    0    0  0.27830646489E+02  0.15445798649E+02 -0.18511144812E+02  0.54367081188E+02  0.39999993184E+02 0.  0.
         12    1    3    3    0    0 -0.27830646489E+02 -0.15445798649E+02  0.18511144812E+02  0.36820918812E+02  0.00000000000E+00 0. -1.
         11    1    4    4    0    0 -0.65524380038E+01 -0.45134798048E+01 -0.26352586374E+01  0.83815590488E+01  0.51100000000E-03 0. -1.
        -11    1    4    4    0    0  0.88644409841E+01 -0.22679669372E+01 -0.17586710968E+01  0.93174520271E+01  0.51100000000E-03 0.  1.
        -12    1    4    4    0    0  0.25518643508E+02  0.22227245391E+02 -0.14117215078E+02  0.36668070112E+02  0.00000000000E+00 0.  1.
</event>
<event>
 8    1  0.2500956E-006  0.9118800E+02  0.7816164E-02  0.1184000E+00
        -11   -1    0    0    0    0  0.00000000000E+00  0.00000000000E+00  0.45593999997E+02  0.45594000000E+02  0.51100000000E-03 0.  1.
         11   -1    0    0    0    0 -0.00000000000E+00 -0.00000000000E+00 -0.45593999997E+02  0.45594000000E+02  0.51100000000E-03 0. -1.
         23    2    1    2    0    0  0.17763568394E-14  0.17763568394E-14  0.00000000000E+00  0.91188000000E+02  0.91188000000E+02 0.  0.
    9900012    2    3    3    0    0  0.74119484594E+01  0.11532484024E+02 -0.34173720118E+02  0.54367104920E+02  0.40000047287E+02 0.  0.
        -12    1    3    3    0    0 -0.74119484594E+01 -0.11532484024E+02  0.34173720118E+02  0.36820895080E+02  0.00000000000E+00 0.  1.
         11    1    4    4    0    0  0.62306093959E+00  0.52775865356E+01 -0.59913096327E+01  0.80085526752E+01  0.51100000000E-03 0. -1.
        -11    1    4    4    0    0 -0.70135823606E+01  0.15213897813E+02 -0.24192334539E+02  0.29426553908E+02  0.51100000000E-03 0.  1.
        -12    1    4    4    0    0  0.13802469880E+02 -0.89590003247E+01 -0.39900759463E+01  0.16931998337E+02  0.00000000000E+00 0.  1.
</event>
<event>
 8    1  0.2500956E-006  0.9118800E+02  0.7816164E-02  0.1184000E+00
        -11   -1    0    0    0    0  0.00000000000E+00  0.00000000000E+00  0.45593999997E+02  0.45594000000E+02  0.51100000000E-03 0. -1.
         11   -1    0    0    0    0 -0.00000000000E+00 -0.00000000000E+00 -0.45593999997E+02  0.45594000000E+02  0.51100000000E-03 0.  1.
         23    2    1    2    0    0 -0.71054273576E-14 -0.74246164772E-15  0.00000000000E+00  0.91188000000E+02  0.91188000000E+02 0.  0.
    9900012    2    3    3    0    0 -0.35910841513E+02 -0.55372988869E-01  0.81356355493E+01  0.54367079722E+02  0.39999989843E+02 0.  0.
        -12    1    3    3    0    0  0.35910841513E+02  0.55372988869E-01 -0.81356355493E+01  0.36820920278E+02  0.00000000000E+00 0.  1.
         11    1    4    4    0    0 -0.11636898312E+02  0.34035756850E+01  0.14714220272E+02  0.19065938431E+02  0.51100000000E-03 0. -1.
        -11    1    4    4    0    0 -0.14512770555E+02 -0.92363937235E+01  0.61342761016E+01  0.18263647548E+02  0.51100000000E-03 0.  1.
        -12    1    4    4    0    0 -0.97611726456E+01  0.57774450496E+01 -0.12712860825E+02  0.17037493744E+02  0.00000000000E+00 0.  1.
</event>
<event>
 8    1  0.2500956E-006  0.9118800E+02  0.7816164E-02  0.1184000E+00
        -11   -1    0    0    0    0  0.00000000000E+00  0.00000000000E+00  0.45593999997E+02  0.45594000000E+02  0.51100000000E-03 0. -1.
         11   -1    0    0    0    0 -0.00000000000E+00 -0.00000000000E+00 -0.45593999997E+02  0.45594000000E+02  0.51100000000E-03 0.  1.
         23    2    1    2    0    0 -0.17763568394E-14  0.00000000000E+00  0.17763568394E-14  0.91188000000E+02  0.91188000000E+02 0.  0.
    9900012    2    3    3    0    0 -0.98049712050E+01 -0.33122405518E+02  0.12749490239E+02  0.54367072404E+02  0.39999973160E+02 0.  0.
        -12    1    3    3    0    0  0.98049712050E+01  0.33122405518E+02 -0.12749490239E+02  0.36820927596E+02  0.00000000000E+00 0.  1.
         11    1    4    4    0    0 -0.50907900967E+01 -0.23915857798E+02  0.14688179586E+02  0.28524147977E+02  0.51100000000E-03 0. -1.
        -11    1    4    4    0    0  0.46182266939E+01 -0.13357193789E+02 -0.52941494037E+01  0.15092072816E+02  0.51100000000E-03 0.  1.
         12    1    4    4    0    0 -0.93324078022E+01  0.41506460687E+01  0.33554600559E+01  0.10750851611E+02  0.00000000000E+00 0. -1.
</event>
<event>
 8    1  0.2500956E-006  0.9118800E+02  0.7816164E-02  0.1184000E+00
        -11   -1    0    0    0    0  0.00000000000E+00  0.00000000000E+00  0.45593999997E+02  0.45594000000E+02  0.51100000000E-03 0. -1.
         11   -1    0    0    0    0 -0.00000000000E+00 -0.00000000000E+00 -0.45593999997E+02  0.45594000000E+02  0.51100000000E-03 0.  1.
         23    2    1    2    0    0  0.71054273576E-14  0.11102230246E-15  0.17763568394E-14  0.91188000000E+02  0.91188000000E+02 0.  0.
    9900012    2    3    3    0    0 -0.35827894837E+02  0.54374303589E+00 -0.84761978612E+01  0.54367086987E+02  0.40000006405E+02 0.  0.
         12    1    3    3    0    0  0.35827894837E+02 -0.54374303589E+00  0.84761978612E+01  0.36820913013E+02  0.00000000000E+00 0. -1.
         11    1    4    4    0    0 -0.36960244148E+00 -0.74858582723E+01  0.68596101421E+01  0.10160163955E+02  0.51100000000E-03 0. -1.
        -11    1    4    4    0    0  0.40659049398E+00  0.18235863306E+01 -0.64844724234E+01  0.67482713198E+01  0.51100000000E-03 0.  1.
        -12    1    4    4    0    0 -0.35864882889E+02  0.62060149777E+01 -0.88513355798E+01  0.37458651712E+02  0.00000000000E+00 0.  1.
</event>
<event>
 8    1  0.2500956E-006  0.9118800E+02  0.7816164E-02  0.1184000E+00
        -11   -1    0    0    0    0  0.00000000000E+00  0.00000000000E+00  0.45593999997E+02  0.45594000000E+02  0.51100000000E-03 0.  1.
         11   -1    0    0    0    0 -0.00000000000E+00 -0.00000000000E+00 -0.45593999997E+02  0.45594000000E+02  0.51100000000E-03 0. -1.
         23    2    1    2    0    0  0.00000000000E+00  0.00000000000E+00  0.00000000000E+00  0.91188000000E+02  0.91188000000E+02 0.  0.
    9900012    2    3    3    0    0 -0.88468818947E+01  0.23662853912E+02  0.26787727599E+02  0.54367077627E+02  0.39999985066E+02 0.  0.
         12    1    3    3    0    0  0.88468818947E+01 -0.23662853912E+02 -0.26787727599E+02  0.36820922373E+02  0.00000000000E+00 0. -1.
         11    1    4    4    0    0 -0.10456745945E+02  0.19308498736E+01  0.11111860247E+01  0.10691419533E+02  0.51100000000E-03 0. -1.
        -11    1    4    4    0    0  0.10774573461E+02  0.73594343986E+01  0.22968495286E+02  0.26415989171E+02  0.51100000000E-03 0.  1.
        -12    1    4    4    0    0 -0.91647094112E+01  0.14372569639E+02  0.27080462884E+01  0.17259668923E+02  0.00000000000E+00 0.  1.
</event>
<event>
 8    1  0.2500956E-006  0.9118800E+02  0.7816164E-02  0.1184000E+00
        -11   -1    0    0    0    0  0.00000000000E+00  0.00000000000E+00  0.45593999997E+02  0.45594000000E+02  0.51100000000E-03 0.  1.
         11   -1    0    0    0    0 -0.00000000000E+00 -0.00000000000E+00 -0.45593999997E+02  0.45594000000E+02  0.51100000000E-03 0. -1.
         23    2    1    2    0    0  0.26645352591E-14  0.00000000000E+00  0.00000000000E+00  0.91188000000E+02  0.91188000000E+02 0.  0.
    9900012    2    3    3    0    0  0.33953515298E+01 -0.10733999610E+02  0.35057560824E+02  0.54367085690E+02  0.40000003449E+02 0.  0.
         12    1    3    3    0    0 -0.33953515298E+01  0.10733999610E+02 -0.35057560824E+02  0.36820914310E+02  0.00000000000E+00 0. -1.
         11    1    4    4    0    0 -0.11328376807E+02 -0.71872380877E+01  0.63620242308E+01  0.14848025626E+02  0.51100000000E-03 0. -1.
        -11    1    4    4    0    0  0.12434756145E+02  0.71440986042E+01  0.23219611136E+02  0.27291237546E+02  0.51100000000E-03 0.  1.
        -12    1    4    4    0    0  0.22889721918E+01 -0.10690860126E+02  0.54759254577E+01  0.12227822519E+02  0.00000000000E+00 0.  1.
</event>
<event>
 8    1  0.2500956E-006  0.9118800E+02  0.7816164E-02  0.1184000E+00
        -11   -1    0    0    0    0  0.00000000000E+00  0.00000000000E+00  0.45593999997E+02  0.45594000000E+02  0.51100000000E-03 0.  1.
         11   -1    0    0    0    0 -0.00000000000E+00 -0.00000000000E+00 -0.45593999997E+02  0.45594000000E+02  0.51100000000E-03 0. -1.
         23    2    1    2    0    0 -0.17763568394E-14  0.00000000000E+00  0.00000000000E+00  0.91188000000E+02  0.91188000000E+02 0.  0.
    9900012    2    3    3    0    0  0.10188833167E+02 -0.25462453861E+02 -0.24568893323E+02  0.54367090219E+02  0.40000013773E+02 0.  0.
        -12    1    3    3    0    0 -0.10188833167E+02  0.25462453861E+02  0.24568893323E+02  0.36820909781E+02  0.00000000000E+00 0.  1.
         11    1    4    4    0    0  0.39459476451E+00 -0.23839768726E+02 -0.15469112553E+02  0.28421536225E+02  0.51100000000E-03 0. -1.
        -11    1    4    4    0    0 -0.17196105973E+01  0.76606374055E+01  0.11721652392E+01  0.79382868224E+01  0.51100000000E-03 0.  1.
         12    1    4    4    0    0  0.11513849000E+02 -0.92833225409E+01 -0.10271946009E+02  0.18007267172E+02  0.00000000000E+00 0. -1.
</event>
<event>
 8    1  0.2500956E-006  0.9118800E+02  0.7816164E-02  0.1184000E+00
        -11   -1    0    0    0    0  0.00000000000E+00  0.00000000000E+00  0.45593999997E+02  0.45594000000E+02  0.51100000000E-03 0. -1.
         11   -1    0    0    0    0 -0.00000000000E+00 -0.00000000000E+00 -0.45593999997E+02  0.45594000000E+02  0.51100000000E-03 0.  1.
         23    2    1    2    0    0  0.35527136788E-14  0.00000000000E+00  0.00000000000E+00  0.91188000000E+02  0.91188000000E+02 0.  0.
    9900012    2    3    3    0    0 -0.12482070345E+02 -0.29172890473E+02 -0.18679412493E+02  0.54367081085E+02  0.39999992949E+02 0.  0.
         12    1    3    3    0    0  0.12482070345E+02  0.29172890473E+02  0.18679412493E+02  0.36820918915E+02  0.00000000000E+00 0. -1.
         11    1    4    4    0    0  0.62999388079E+01 -0.48636012468E+01 -0.73842615297E+01  0.10856848745E+02  0.51100000000E-03 0. -1.
        -11    1    4    4    0    0 -0.17374640587E+01 -0.36629113178E+01 -0.15843271561E+02  0.16353744363E+02  0.51100000000E-03 0.  1.
         12    1    4    4    0    0 -0.17044545095E+02 -0.20646377909E+02  0.45481205976E+01  0.27156487976E+02  0.00000000000E+00 0. -1.
</event>
<event>
 8    1  0.2500956E-006  0.9118800E+02  0.7816164E-02  0.1184000E+00
        -11   -1    0    0    0    0  0.00000000000E+00  0.00000000000E+00  0.45593999997E+02  0.45594000000E+02  0.51100000000E-03 0. -1.
         11   -1    0    0    0    0 -0.00000000000E+00 -0.00000000000E+00 -0.45593999997E+02  0.45594000000E+02  0.51100000000E-03 0.  1.
         23    2    1    2    0    0  0.00000000000E+00  0.00000000000E+00 -0.35527136788E-14  0.91188000000E+02  0.91188000000E+02 0.  0.
    9900012    2    3    3    0    0 -0.17800082453E+02  0.24571034505E+02  0.20861485360E+02  0.54367078727E+02  0.39999987573E+02 0.  0.
        -12    1    3    3    0    0  0.17800082453E+02 -0.24571034505E+02 -0.20861485360E+02  0.36820921273E+02  0.00000000000E+00 0.  1.
         11    1    4    4    0    0 -0.87294207919E+01  0.34522666505E+01 -0.27248024751E+01  0.97747368854E+01  0.51100000000E-03 0. -1.
        -11    1    4    4    0    0 -0.13434729372E+02  0.91609863428E+00  0.31769268934E+00  0.13469674046E+02  0.51100000000E-03 0.  1.
         12    1    4    4    0    0  0.43640677110E+01  0.20202669220E+02  0.23268595146E+02  0.31122667795E+02  0.00000000000E+00 0. -1.
</event>
<event>
 8    1  0.2500956E-006  0.9118800E+02  0.7816164E-02  0.1184000E+00
        -11   -1    0    0    0    0  0.00000000000E+00  0.00000000000E+00  0.45593999997E+02  0.45594000000E+02  0.51100000000E-03 0.  1.
         11   -1    0    0    0    0 -0.00000000000E+00 -0.00000000000E+00 -0.45593999997E+02  0.45594000000E+02  0.51100000000E-03 0. -1.
         23    2    1    2    0    0  0.88817841970E-15 -0.88817841970E-15  0.00000000000E+00  0.91188000000E+02  0.91188000000E+02 0.  0.
    9900012    2    3    3    0    0 -0.58310384842E+01 -0.46234855189E+01 -0.36061084158E+02  0.54367089924E+02  0.40000013100E+02 0.  0.
        -12    1    3    3    0    0  0.58310384842E+01  0.46234855189E+01  0.36061084158E+02  0.36820910076E+02  0.00000000000E+00 0.  1.
         11    1    4    4    0    0 -0.16619268901E+01  0.41266814083E+00 -0.21859506300E+02  0.21926475137E+02  0.51100000000E-03 0. -1.
        -11    1    4    4    0    0  0.47999754298E+01  0.42751413748E+01  0.57779583188E+01  0.86429971941E+01  0.51100000000E-03 0.  1.
        -12    1    4    4    0    0 -0.89690870240E+01 -0.93112950346E+01 -0.19979536177E+02  0.23797617593E+02  0.00000000000E+00 0.  1.
</event>
<event>
 8    1  0.2500956E-006  0.9118800E+02  0.7816164E-02  0.1184000E+00
        -11   -1    0    0    0    0  0.00000000000E+00  0.00000000000E+00  0.45593999997E+02  0.45594000000E+02  0.51100000000E-03 0.  1.
         11   -1    0    0    0    0 -0.00000000000E+00 -0.00000000000E+00 -0.45593999997E+02  0.45594000000E+02  0.51100000000E-03 0. -1.
         23    2    1    2    0    0  0.00000000000E+00  0.00000000000E+00  0.00000000000E+00  0.91188000000E+02  0.91188000000E+02 0.  0.
    9900012    2    3    3    0    0 -0.21670927019E+02 -0.21421091887E+02  0.20670907664E+02  0.54367099969E+02  0.40000035998E+02 0.  0.
         12    1    3    3    0    0  0.21670927019E+02  0.21421091887E+02 -0.20670907664E+02  0.36820900031E+02  0.00000000000E+00 0. -1.
         11    1    4    4    0    0 -0.22630125232E+02  0.78834665397E+00  0.20364910354E+02  0.30454451767E+02  0.51100000000E-03 0. -1.
        -11    1    4    4    0    0  0.18679625425E+00 -0.80468400074E+01  0.43692985321E+01  0.91584549390E+01  0.51100000000E-03 0.  1.
         12    1    4    4    0    0  0.77240195834E+00 -0.14162598533E+02 -0.40633012223E+01  0.14754193262E+02  0.00000000000E+00 0. -1.
</event>
<event>
 8    1  0.2500956E-006  0.9118800E+02  0.7816164E-02  0.1184000E+00
        -11   -1    0    0    0    0  0.00000000000E+00  0.00000000000E+00  0.45593999997E+02  0.45594000000E+02  0.51100000000E-03 0. -1.
         11   -1    0    0    0    0 -0.00000000000E+00 -0.00000000000E+00 -0.45593999997E+02  0.45594000000E+02  0.51100000000E-03 0.  1.
         23    2    1    2    0    0 -0.35527136788E-14  0.00000000000E+00  0.35527136788E-14  0.91188000000E+02  0.91188000000E+02 0.  0.
    9900012    2    3    3    0    0 -0.19864453462E+02 -0.21462167694E+02 -0.22373174264E+02  0.54367080945E+02  0.39999992629E+02 0.  0.
         12    1    3    3    0    0  0.19864453462E+02  0.21462167694E+02  0.22373174264E+02  0.36820919055E+02  0.00000000000E+00 0. -1.
         11    1    4    4    0    0 -0.99370229815E+01 -0.76060873796E+01 -0.36454281578E+01  0.13034037658E+02  0.51100000000E-03 0. -1.
        -11    1    4    4    0    0  0.74112697044E+01  0.19713332486E+01 -0.15943702043E+02  0.17692221695E+02  0.51100000000E-03 0.  1.
        -12    1    4    4    0    0 -0.17338700184E+02 -0.15827413563E+02 -0.27840440633E+01  0.23640821592E+02  0.00000000000E+00 0.  1.
</event>
<event>
 8    1  0.2500956E-006  0.9118800E+02  0.7816164E-02  0.1184000E+00
        -11   -1    0    0    0    0  0.00000000000E+00  0.00000000000E+00  0.45593999997E+02  0.45594000000E+02  0.51100000000E-03 0.  1.
         11   -1    0    0    0    0 -0.00000000000E+00 -0.00000000000E+00 -0.45593999997E+02  0.45594000000E+02  0.51100000000E-03 0. -1.
         23    2    1    2    0    0 -0.35527136788E-14  0.00000000000E+00  0.00000000000E+00  0.91188000000E+02  0.91188000000E+02 0.  0.
    9900012    2    3    3    0    0  0.25975909221E+02  0.81708126515E+01  0.24784256815E+02  0.54367225631E+02  0.40000322470E+02 0.  0.
         12    1    3    3    0    0 -0.25975909221E+02 -0.81708126515E+01 -0.24784256815E+02  0.36820774369E+02  0.00000000000E+00 0. -1.
         11    1    4    4    0    0  0.11030376774E+01 -0.22303612192E+00 -0.90086527903E+01  0.90786707500E+01  0.51100000000E-03 0. -1.
        -11    1    4    4    0    0  0.10182490792E+02  0.56137159061E+01  0.25881243957E+02  0.28373151289E+02  0.51100000000E-03 0.  1.
        -12    1    4    4    0    0  0.14690380751E+02  0.27801328673E+01  0.79116656481E+01  0.16915403593E+02  0.00000000000E+00 0.  1.
</event>
<event>
 8    1  0.2500956E-006  0.9118800E+02  0.7816164E-02  0.1184000E+00
        -11   -1    0    0    0    0  0.00000000000E+00  0.00000000000E+00  0.45593999997E+02  0.45594000000E+02  0.51100000000E-03 0. -1.
         11   -1    0    0    0    0 -0.00000000000E+00 -0.00000000000E+00 -0.45593999997E+02  0.45594000000E+02  0.51100000000E-03 0.  1.
         23    2    1    2    0    0  0.00000000000E+00  0.00000000000E+00  0.00000000000E+00  0.91188000000E+02  0.91188000000E+02 0.  0.
    9900012    2    3    3    0    0  0.62647586093E+01  0.27761254694E+02 -0.23363295630E+02  0.54367108575E+02  0.40000055619E+02 0.  0.
         12    1    3    3    0    0 -0.62647586093E+01 -0.27761254694E+02  0.23363295630E+02  0.36820891425E+02  0.00000000000E+00 0. -1.
         11    1    4    4    0    0 -0.39250806789E+01  0.19454929097E+01 -0.42796914647E+01  0.61242926360E+01  0.51100000000E-03 0. -1.
        -11    1    4    4    0    0  0.56787278863E+01  0.20022828149E+02  0.63587357670E+01  0.21762240655E+02  0.51100000000E-03 0.  1.
        -12    1    4    4    0    0  0.45111114020E+01  0.57929336352E+01 -0.25442339932E+02  0.26480575285E+02  0.00000000000E+00 0.  1.
</event>
<event>
 8    1  0.2500956E-006  0.9118800E+02  0.7816164E-02  0.1184000E+00
        -11   -1    0    0    0    0  0.00000000000E+00  0.00000000000E+00  0.45593999997E+02  0.45594000000E+02  0.51100000000E-03 0. -1.
         11   -1    0    0    0    0 -0.00000000000E+00 -0.00000000000E+00 -0.45593999997E+02  0.45594000000E+02  0.51100000000E-03 0.  1.
         23    2    1    2    0    0 -0.35527136788E-14 -0.44408920985E-15  0.00000000000E+00  0.91188000000E+02  0.91188000000E+02 0.  0.
    9900012    2    3    3    0    0 -0.31014095978E+02 -0.35698307505E+01 -0.19523516500E+02  0.54367006838E+02  0.39999823689E+02 0.  0.
         12    1    3    3    0    0  0.31014095978E+02  0.35698307505E+01  0.19523516500E+02  0.36820993162E+02  0.00000000000E+00 0. -1.
         11    1    4    4    0    0  0.55564301591E+01 -0.14396571191E+01  0.91154602100E+00  0.58118366411E+01  0.51100000000E-03 0. -1.
        -11    1    4    4    0    0 -0.31839938124E+02 -0.96849834877E+01 -0.98302186340E+01  0.34701783291E+02  0.51100000000E-03 0.  1.
         12    1    4    4    0    0 -0.47305880122E+01  0.75548098563E+01 -0.10604843887E+02  0.13853386906E+02  0.00000000000E+00 0. -1.
</event>
<event>
 8    1  0.2500956E-006  0.9118800E+02  0.7816164E-02  0.1184000E+00
        -11   -1    0    0    0    0  0.00000000000E+00  0.00000000000E+00  0.45593999997E+02  0.45594000000E+02  0.51100000000E-03 0. -1.
         11   -1    0    0    0    0 -0.00000000000E+00 -0.00000000000E+00 -0.45593999997E+02  0.45594000000E+02  0.51100000000E-03 0.  1.
         23    2    1    2    0    0  0.00000000000E+00  0.35527136788E-14  0.00000000000E+00  0.91188000000E+02  0.91188000000E+02 0.  0.
    9900012    2    3    3    0    0  0.15824586034E+02  0.16088448089E+02 -0.29095089587E+02  0.54367083076E+02  0.39999997489E+02 0.  0.
         12    1    3    3    0    0 -0.15824586034E+02 -0.16088448089E+02  0.29095089587E+02  0.36820916924E+02  0.00000000000E+00 0. -1.
         11    1    4    4    0    0 -0.48642975118E+01  0.17166121016E+02 -0.16700472556E+02  0.24438553248E+02  0.51100000000E-03 0. -1.
        -11    1    4    4    0    0  0.20144886523E+02  0.38908574199E+01 -0.13812141251E+02  0.24733185615E+02  0.51100000000E-03 0.  1.
        -12    1    4    4    0    0  0.54399702284E+00 -0.49685303473E+01  0.14175242202E+01  0.51953442127E+01  0.00000000000E+00 0.  1.
</event>
<event>
 8    1  0.2500956E-006  0.9118800E+02  0.7816164E-02  0.1184000E+00
        -11   -1    0    0    0    0  0.00000000000E+00  0.00000000000E+00  0.45593999997E+02  0.45594000000E+02  0.51100000000E-03 0. -1.
         11   -1    0    0    0    0 -0.00000000000E+00 -0.00000000000E+00 -0.45593999997E+02  0.45594000000E+02  0.51100000000E-03 0.  1.
         23    2    1    2    0    0  0.35527136788E-14  0.00000000000E+00  0.00000000000E+00  0.91188000000E+02  0.91188000000E+02 0.  0.
    9900012    2    3    3    0    0  0.27271837358E+02  0.44336813663E+01  0.24338674998E+02  0.54367058350E+02  0.39999941121E+02 0.  0.
        -12    1    3    3    0    0 -0.27271837358E+02 -0.44336813663E+01 -0.24338674998E+02  0.36820941650E+02  0.00000000000E+00 0.  1.
         11    1    4    4    0    0  0.41511581399E+01  0.34429448106E+01  0.95838272530E+01  0.10997078155E+02  0.51100000000E-03 0. -1.
        -11    1    4    4    0    0  0.24357478797E+02 -0.19022245415E+01 -0.36459060828E+01  0.24702183364E+02  0.51100000000E-03 0.  1.
        -12    1    4    4    0    0 -0.12367995787E+01  0.28929610973E+01  0.18400753827E+02  0.18667796831E+02  0.00000000000E+00 0.  1.
</event>
<event>
 8    1  0.2500956E-006  0.9118800E+02  0.7816164E-02  0.1184000E+00
        -11   -1    0    0    0    0  0.00000000000E+00  0.00000000000E+00  0.45593999997E+02  0.45594000000E+02  0.51100000000E-03 0.  1.
         11   -1    0    0    0    0 -0.00000000000E+00 -0.00000000000E+00 -0.45593999997E+02  0.45594000000E+02  0.51100000000E-03 0. -1.
         23    2    1    2    0    0 -0.88817841970E-15  0.00000000000E+00  0.00000000000E+00  0.91188000000E+02  0.91188000000E+02 0.  0.
    9900012    2    3    3    0    0  0.63761715772E+01 -0.32034065237E+02  0.16997899927E+02  0.54367278911E+02  0.40000443931E+02 0.  0.
         12    1    3    3    0    0 -0.63761715772E+01  0.32034065237E+02 -0.16997899927E+02  0.36820721089E+02  0.00000000000E+00 0. -1.
         11    1    4    4    0    0 -0.11083805457E+02 -0.16562413644E+02  0.19304576611E+01  0.20022261515E+02  0.51100000000E-03 0. -1.
        -11    1    4    4    0    0  0.92572892733E+01 -0.12318818545E+02  0.19212571268E+02  0.24628714746E+02  0.51100000000E-03 0.  1.
         12    1    4    4    0    0  0.82026877614E+01 -0.31528330476E+01 -0.41451290020E+01  0.97163026497E+01  0.00000000000E+00 0. -1.
</event>
<event>
 8    1  0.2500956E-006  0.9118800E+02  0.7816164E-02  0.1184000E+00
        -11   -1    0    0    0    0  0.00000000000E+00  0.00000000000E+00  0.45593999997E+02  0.45594000000E+02  0.51100000000E-03 0. -1.
         11   -1    0    0    0    0 -0.00000000000E+00 -0.00000000000E+00 -0.45593999997E+02  0.45594000000E+02  0.51100000000E-03 0.  1.
         23    2    1    2    0    0  0.00000000000E+00  0.00000000000E+00 -0.35527136788E-14  0.91188000000E+02  0.91188000000E+02 0.  0.
    9900012    2    3    3    0    0 -0.25559300685E+02 -0.20266344183E+02 -0.17081711417E+02  0.54366981234E+02  0.39999765318E+02 0.  0.
         12    1    3    3    0    0  0.25559300685E+02  0.20266344183E+02  0.17081711417E+02  0.36821018766E+02  0.00000000000E+00 0. -1.
         11    1    4    4    0    0 -0.20825076986E+01 -0.17029927697E+01  0.83364885665E+01  0.87597982037E+01  0.51100000000E-03 0. -1.
        -11    1    4    4    0    0 -0.13170282709E+02  0.20051040034E+01 -0.33699355522E+01  0.13741661275E+02  0.51100000000E-03 0.  1.
        -12    1    4    4    0    0 -0.10306510277E+02 -0.20568455417E+02 -0.22048264431E+02  0.31865521755E+02  0.00000000000E+00 0.  1.
</event>
<event>
 8    1  0.2500956E-006  0.9118800E+02  0.7816164E-02  0.1184000E+00
        -11   -1    0    0    0    0  0.00000000000E+00  0.00000000000E+00  0.45593999997E+02  0.45594000000E+02  0.51100000000E-03 0.  1.
         11   -1    0    0    0    0 -0.00000000000E+00 -0.00000000000E+00 -0.45593999997E+02  0.45594000000E+02  0.51100000000E-03 0. -1.
         23    2    1    2    0    0  0.17763568394E-14  0.17763568394E-14  0.00000000000E+00  0.91188000000E+02  0.91188000000E+02 0.  0.
    9900012    2    3    3    0    0 -0.13010502524E+02 -0.12096090654E+02 -0.32251979639E+02  0.54367098657E+02  0.40000033009E+02 0.  0.
        -12    1    3    3    0    0  0.13010502524E+02  0.12096090654E+02  0.32251979639E+02  0.36820901343E+02  0.00000000000E+00 0.  1.
         11    1    4    4    0    0 -0.74885390896E+01  0.11480549293E+02 -0.22461731933E+02  0.26313696652E+02  0.51100000000E-03 0. -1.
        -11    1    4    4    0    0  0.30422533636E+00 -0.50917878953E+01  0.18724210972E+01  0.54336744522E+01  0.51100000000E-03 0.  1.
         12    1    4    4    0    0 -0.58261887705E+01 -0.18484852052E+02 -0.11662668803E+02  0.22619727553E+02  0.00000000000E+00 0. -1.
</event>
<event>
 8    1  0.2500956E-006  0.9118800E+02  0.7816164E-02  0.1184000E+00
        -11   -1    0    0    0    0  0.00000000000E+00  0.00000000000E+00  0.45593999997E+02  0.45594000000E+02  0.51100000000E-03 0.  1.
         11   -1    0    0    0    0 -0.00000000000E+00 -0.00000000000E+00 -0.45593999997E+02  0.45594000000E+02  0.51100000000E-03 0. -1.
         23    2    1    2    0    0  0.00000000000E+00  0.35527136788E-14 -0.22204460493E-15  0.91188000000E+02  0.91188000000E+02 0.  0.
    9900012    2    3    3    0    0  0.36018428481E+02  0.74403762367E+01  0.17588891007E+01  0.54367080951E+02  0.39999992644E+02 0.  0.
         12    1    3    3    0    0 -0.36018428481E+02 -0.74403762367E+01 -0.17588891007E+01  0.36820919049E+02  0.00000000000E+00 0. -1.
         11    1    4    4    0    0  0.24046385485E+02 -0.14943382021E+02  0.29162963432E+01  0.28461168383E+02  0.51100000000E-03 0. -1.
        -11    1    4    4    0    0  0.91855455419E+01  0.18218189045E+02 -0.28829445058E+01  0.20605533924E+02  0.51100000000E-03 0.  1.
         12    1    4    4    0    0  0.27864974536E+01  0.41655692124E+01  0.17255372633E+01  0.53003786439E+01  0.00000000000E+00 0. -1.
</event>
<event>
 8    1  0.2500956E-006  0.9118800E+02  0.7816164E-02  0.1184000E+00
        -11   -1    0    0    0    0  0.00000000000E+00  0.00000000000E+00  0.45593999997E+02  0.45594000000E+02  0.51100000000E-03 0.  1.
         11   -1    0    0    0    0 -0.00000000000E+00 -0.00000000000E+00 -0.45593999997E+02  0.45594000000E+02  0.51100000000E-03 0. -1.
         23    2    1    2    0    0  0.00000000000E+00  0.00000000000E+00 -0.17763568394E-14  0.91188000000E+02  0.91188000000E+02 0.  0.
    9900012    2    3    3    0    0 -0.33306267281E+02 -0.27323541974E+01 -0.15459820370E+02  0.54367092277E+02  0.40000018464E+02 0.  0.
        -12    1    3    3    0    0  0.33306267281E+02  0.27323541974E+01  0.15459820370E+02  0.36820907723E+02  0.00000000000E+00 0.  1.
         11    1    4    4    0    0 -0.31900187404E+02 -0.15345299017E+00 -0.23332206804E+02  0.39522618573E+02  0.51100000000E-03 0. -1.
        -11    1    4    4    0    0 -0.38160059829E+01 -0.36872002874E+01 -0.11591376194E+01  0.54314775064E+01  0.51100000000E-03 0.  1.
         12    1    4    4    0    0  0.24099261062E+01  0.11082990801E+01  0.90315240536E+01  0.94129961977E+01  0.00000000000E+00 0. -1.
</event>
<event>
 8    1  0.2500956E-006  0.9118800E+02  0.7816164E-02  0.1184000E+00
        -11   -1    0    0    0    0  0.00000000000E+00  0.00000000000E+00  0.45593999997E+02  0.45594000000E+02  0.51100000000E-03 0.  1.
         11   -1    0    0    0    0 -0.00000000000E+00 -0.00000000000E+00 -0.45593999997E+02  0.45594000000E+02  0.51100000000E-03 0. -1.
         23    2    1    2    0    0 -0.71054273576E-14  0.00000000000E+00  0.17763568394E-14  0.91188000000E+02  0.91188000000E+02 0.  0.
    9900012    2    3    3    0    0 -0.32425300216E+02 -0.16583018375E+02  0.54206134143E+01  0.54367086890E+02  0.40000006182E+02 0.  0.
         12    1    3    3    0    0  0.32425300216E+02  0.16583018375E+02 -0.54206134143E+01  0.36820913110E+02  0.00000000000E+00 0. -1.
         11    1    4    4    0    0 -0.24116510424E+01 -0.45680319342E+01  0.89937310203E+01  0.10371604236E+02  0.51100000000E-03 0. -1.
        -11    1    4    4    0    0 -0.17623794480E+02 -0.19233954990E+02 -0.10437326989E+02  0.28097703667E+02  0.51100000000E-03 0.  1.
        -12    1    4    4    0    0 -0.12389854693E+02  0.72189685494E+01  0.68642093833E+01  0.15897778986E+02  0.00000000000E+00 0.  1.
</event>
<event>
 8    1  0.2500956E-006  0.9118800E+02  0.7816164E-02  0.1184000E+00
        -11   -1    0    0    0    0  0.00000000000E+00  0.00000000000E+00  0.45593999997E+02  0.45594000000E+02  0.51100000000E-03 0.  1.
         11   -1    0    0    0    0 -0.00000000000E+00 -0.00000000000E+00 -0.45593999997E+02  0.45594000000E+02  0.51100000000E-03 0. -1.
         23    2    1    2    0    0  0.88817841970E-15  0.00000000000E+00  0.00000000000E+00  0.91188000000E+02  0.91188000000E+02 0.  0.
    9900012    2    3    3    0    0  0.76047040763E+01 -0.99722451675E+01 -0.34619418133E+02  0.54367064249E+02  0.39999954567E+02 0.  0.
        -12    1    3    3    0    0 -0.76047040763E+01  0.99722451675E+01  0.34619418133E+02  0.36820935751E+02  0.00000000000E+00 0.  1.
         11    1    4    4    0    0  0.21634836362E+01  0.59965787705E+01 -0.25261762724E+02  0.26053719016E+02  0.51100000000E-03 0. -1.
        -11    1    4    4    0    0 -0.70232245022E+01 -0.48523536981E+01  0.11014594183E+01  0.86072197562E+01  0.51100000000E-03 0.  1.
        -12    1    4    4    0    0  0.12464444942E+02 -0.11116470240E+02 -0.10459114827E+02  0.19706125476E+02  0.00000000000E+00 0.  1.
</event>
<event>
 8    1  0.2500956E-006  0.9118800E+02  0.7816164E-02  0.1184000E+00
        -11   -1    0    0    0    0  0.00000000000E+00  0.00000000000E+00  0.45593999997E+02  0.45594000000E+02  0.51100000000E-03 0.  1.
         11   -1    0    0    0    0 -0.00000000000E+00 -0.00000000000E+00 -0.45593999997E+02  0.45594000000E+02  0.51100000000E-03 0. -1.
         23    2    1    2    0    0  0.00000000000E+00 -0.17763568394E-14 -0.71054273576E-14  0.91188000000E+02  0.91188000000E+02 0.  0.
    9900012    2    3    3    0    0  0.86654136529E+01  0.84085732461E+01  0.34784879078E+02  0.54367064239E+02  0.39999954547E+02 0.  0.
         12    1    3    3    0    0 -0.86654136529E+01 -0.84085732461E+01 -0.34784879078E+02  0.36820935761E+02  0.00000000000E+00 0. -1.
         11    1    4    4    0    0  0.10731470990E+02  0.18367069608E+02  0.41527701892E+01  0.21673929411E+02  0.51100000000E-03 0. -1.
        -11    1    4    4    0    0 -0.63308323150E+00 -0.87811047302E+01  0.28678393705E+02  0.29999314333E+02  0.51100000000E-03 0.  1.
         12    1    4    4    0    0 -0.14329741060E+01 -0.11773916320E+01  0.19537151834E+01  0.26938204954E+01  0.00000000000E+00 0. -1.
</event>
<event>
 8    1  0.2500956E-006  0.9118800E+02  0.7816164E-02  0.1184000E+00
        -11   -1    0    0    0    0  0.00000000000E+00  0.00000000000E+00  0.45593999997E+02  0.45594000000E+02  0.51100000000E-03 0. -1.
         11   -1    0    0    0    0 -0.00000000000E+00 -0.00000000000E+00 -0.45593999997E+02  0.45594000000E+02  0.51100000000E-03 0.  1.
         23    2    1    2    0    0  0.00000000000E+00  0.00000000000E+00  0.22204460493E-14  0.91188000000E+02  0.91188000000E+02 0.  0.
    9900012    2    3    3    0    0 -0.25408044700E+02 -0.26492849775E+02 -0.28877807563E+01  0.54367094221E+02  0.40000022896E+02 0.  0.
         12    1    3    3    0    0  0.25408044700E+02  0.26492849775E+02  0.28877807563E+01  0.36820905779E+02  0.00000000000E+00 0. -1.
         11    1    4    4    0    0  0.17414493135E+01  0.94236299835E-01 -0.98837242605E+00  0.20045963447E+01  0.51100000000E-03 0. -1.
        -11    1    4    4    0    0 -0.18380450114E+02 -0.10959937118E+02  0.16240123770E+02  0.26864526580E+02  0.51100000000E-03 0.  1.
        -12    1    4    4    0    0 -0.87690438992E+01 -0.15627148957E+02 -0.18139532100E+02  0.25497971297E+02  0.00000000000E+00 0.  1.
</event>
<event>
 8    1  0.2500956E-006  0.9118800E+02  0.7816164E-02  0.1184000E+00
        -11   -1    0    0    0    0  0.00000000000E+00  0.00000000000E+00  0.45593999997E+02  0.45594000000E+02  0.51100000000E-03 0. -1.
         11   -1    0    0    0    0 -0.00000000000E+00 -0.00000000000E+00 -0.45593999997E+02  0.45594000000E+02  0.51100000000E-03 0.  1.
         23    2    1    2    0    0 -0.35527136788E-14 -0.71054273576E-14  0.00000000000E+00  0.91188000000E+02  0.91188000000E+02 0.  0.
    9900012    2    3    3    0    0 -0.23765421307E+02  0.27057120778E+02 -0.76742475029E+01  0.54367121284E+02  0.40000084592E+02 0.  0.
        -12    1    3    3    0    0  0.23765421307E+02 -0.27057120778E+02  0.76742475029E+01  0.36820878716E+02  0.00000000000E+00 0.  1.
         11    1    4    4    0    0  0.97725822311E+01  0.63137947739E+01 -0.63643054853E+01  0.13261664770E+02  0.51100000000E-03 0. -1.
        -11    1    4    4    0    0 -0.11792628098E+02  0.26300776176E+01 -0.38745811972E+01  0.12688410675E+02  0.51100000000E-03 0.  1.
         12    1    4    4    0    0 -0.21745375440E+02  0.18113248386E+02  0.25646391797E+01  0.28417045839E+02  0.00000000000E+00 0. -1.
</event>
<event>
 8    1  0.2500956E-006  0.9118800E+02  0.7816164E-02  0.1184000E+00
        -11   -1    0    0    0    0  0.00000000000E+00  0.00000000000E+00  0.45593999997E+02  0.45594000000E+02  0.51100000000E-03 0.  1.
         11   -1    0    0    0    0 -0.00000000000E+00 -0.00000000000E+00 -0.45593999997E+02  0.45594000000E+02  0.51100000000E-03 0. -1.
         23    2    1    2    0    0  0.00000000000E+00 -0.13322676296E-14  0.00000000000E+00  0.91188000000E+02  0.91188000000E+02 0.  0.
    9900012    2    3    3    0    0 -0.30866496881E+02 -0.29523952907E+01 -0.19857576849E+02  0.54367073532E+02  0.39999975730E+02 0.  0.
        -12    1    3    3    0    0  0.30866496881E+02  0.29523952907E+01  0.19857576849E+02  0.36820926468E+02  0.00000000000E+00 0.  1.
         11    1    4    4    0    0 -0.35483432933E+01  0.80131793485E+01 -0.12870375303E+02  0.15570752843E+02  0.51100000000E-03 0. -1.
        -11    1    4    4    0    0 -0.79757305670E+01 -0.23678753101E+01 -0.14179898128E+02  0.16440456890E+02  0.51100000000E-03 0.  1.
         12    1    4    4    0    0 -0.19342423021E+02 -0.85976993292E+01  0.71926965822E+01  0.22355863799E+02  0.00000000000E+00 0. -1.
</event>
<event>
 8    1  0.2500956E-006  0.9118800E+02  0.7816164E-02  0.1184000E+00
        -11   -1    0    0    0    0  0.00000000000E+00  0.00000000000E+00  0.45593999997E+02  0.45594000000E+02  0.51100000000E-03 0.  1.
         11   -1    0    0    0    0 -0.00000000000E+00 -0.00000000000E+00 -0.45593999997E+02  0.45594000000E+02  0.51100000000E-03 0. -1.
         23    2    1    2    0    0  0.00000000000E+00  0.00000000000E+00 -0.35527136788E-14  0.91188000000E+02  0.91188000000E+02 0.  0.
    9900012    2    3    3    0    0 -0.23572747526E+02  0.89837329175E+01 -0.26821603238E+02  0.54367078185E+02  0.39999986338E+02 0.  0.
         12    1    3    3    0    0  0.23572747526E+02 -0.89837329175E+01  0.26821603238E+02  0.36820921815E+02  0.00000000000E+00 0. -1.
         11    1    4    4    0    0 -0.64740861795E+01  0.40721786648E+01 -0.67222168712E+01  0.10182565043E+02  0.51100000000E-03 0. -1.
        -11    1    4    4    0    0 -0.43390964953E+01  0.17409166378E+02 -0.19233954362E+02  0.26303076494E+02  0.51100000000E-03 0.  1.
        -12    1    4    4    0    0 -0.12759564851E+02 -0.12497612125E+02 -0.86543200455E+00  0.17881436648E+02  0.00000000000E+00 0.  1.
</event>
<event>
 8    1  0.2500956E-006  0.9118800E+02  0.7816164E-02  0.1184000E+00
        -11   -1    0    0    0    0  0.00000000000E+00  0.00000000000E+00  0.45593999997E+02  0.45594000000E+02  0.51100000000E-03 0.  1.
         11   -1    0    0    0    0 -0.00000000000E+00 -0.00000000000E+00 -0.45593999997E+02  0.45594000000E+02  0.51100000000E-03 0. -1.
         23    2    1    2    0    0 -0.35527136788E-14  0.88817841970E-15  0.35527136788E-14  0.91188000000E+02  0.91188000000E+02 0.  0.
    9900012    2    3    3    0    0 -0.20151885568E+02 -0.19522979506E+01 -0.30755000821E+02  0.54367081561E+02  0.39999994034E+02 0.  0.
        -12    1    3    3    0    0  0.20151885568E+02  0.19522979506E+01  0.30755000821E+02  0.36820918439E+02  0.00000000000E+00 0.  1.
         11    1    4    4    0    0 -0.58541879991E+01 -0.77917476359E+01 -0.21401072274E+02  0.23515712685E+02  0.51100000000E-03 0. -1.
        -11    1    4    4    0    0 -0.10588706830E+02 -0.73488803919E+01  0.20187228827E+01  0.13046148769E+02  0.51100000000E-03 0.  1.
        -12    1    4    4    0    0 -0.37089907388E+01  0.13188330077E+02 -0.11372651430E+02  0.17805220107E+02  0.00000000000E+00 0.  1.
</event>
<event>
 8    1  0.2500956E-006  0.9118800E+02  0.7816164E-02  0.1184000E+00
        -11   -1    0    0    0    0  0.00000000000E+00  0.00000000000E+00  0.45593999997E+02  0.45594000000E+02  0.51100000000E-03 0.  1.
         11   -1    0    0    0    0 -0.00000000000E+00 -0.00000000000E+00 -0.45593999997E+02  0.45594000000E+02  0.51100000000E-03 0. -1.
         23    2    1    2    0    0  0.00000000000E+00  0.00000000000E+00  0.17763568394E-14  0.91188000000E+02  0.91188000000E+02 0.  0.
    9900012    2    3    3    0    0 -0.31294190973E+02  0.15810858788E+02 -0.11245899644E+02  0.54367083348E+02  0.39999998109E+02 0.  0.
         12    1    3    3    0    0  0.31294190973E+02 -0.15810858788E+02  0.11245899644E+02  0.36820916652E+02  0.00000000000E+00 0. -1.
         11    1    4    4    0    0 -0.14649826939E+02 -0.92156449542E+01  0.60017163975E+00  0.17317787028E+02  0.51100000000E-03 0. -1.
        -11    1    4    4    0    0 -0.13717130952E+02  0.11960336177E+02  0.13505284688E+01  0.18249198624E+02  0.51100000000E-03 0.  1.
         12    1    4    4    0    0 -0.29272330814E+01  0.13066167566E+02 -0.13196599753E+02  0.18800097697E+02  0.00000000000E+00 0. -1.
</event>
<event>
 8    1  0.2500956E-006  0.9118800E+02  0.7816164E-02  0.1184000E+00
        -11   -1    0    0    0    0  0.00000000000E+00  0.00000000000E+00  0.45593999997E+02  0.45594000000E+02  0.51100000000E-03 0. -1.
         11   -1    0    0    0    0 -0.00000000000E+00 -0.00000000000E+00 -0.45593999997E+02  0.45594000000E+02  0.51100000000E-03 0.  1.
         23    2    1    2    0    0 -0.17763568394E-14  0.00000000000E+00  0.00000000000E+00  0.91188000000E+02  0.91188000000E+02 0.  0.
    9900012    2    3    3    0    0 -0.11036211312E+02  0.12289104985E+02 -0.32908327484E+02  0.54367108114E+02  0.40000054568E+02 0.  0.
         12    1    3    3    0    0  0.11036211312E+02 -0.12289104985E+02  0.32908327484E+02  0.36820891886E+02  0.00000000000E+00 0. -1.
         11    1    4    4    0    0  0.53497005035E+01  0.12977527485E+02 -0.46137151407E+01  0.14775719366E+02  0.51100000000E-03 0. -1.
        -11    1    4    4    0    0 -0.82353702005E+01 -0.93767200096E+01 -0.23772332291E+02  0.26848984773E+02  0.51100000000E-03 0.  1.
        -12    1    4    4    0    0 -0.81505416148E+01  0.86882975093E+01 -0.45222800520E+01  0.12742403976E+02  0.00000000000E+00 0.  1.
</event>
<event>
 8    1  0.2500956E-006  0.9118800E+02  0.7816164E-02  0.1184000E+00
        -11   -1    0    0    0    0  0.00000000000E+00  0.00000000000E+00  0.45593999997E+02  0.45594000000E+02  0.51100000000E-03 0.  1.
         11   -1    0    0    0    0 -0.00000000000E+00 -0.00000000000E+00 -0.45593999997E+02  0.45594000000E+02  0.51100000000E-03 0. -1.
         23    2    1    2    0    0  0.00000000000E+00  0.49960036108E-15 -0.71054273576E-14  0.91188000000E+02  0.91188000000E+02 0.  0.
    9900012    2    3    3    0    0 -0.98092763764E+01  0.48283227453E+00 -0.35486962619E+02  0.54367088198E+02  0.40000009164E+02 0.  0.
        -12    1    3    3    0    0  0.98092763764E+01 -0.48283227453E+00  0.35486962619E+02  0.36820911802E+02  0.00000000000E+00 0.  1.
         11    1    4    4    0    0  0.36844186416E+01  0.10065067403E+02 -0.81094513824E+01  0.13440376652E+02  0.51100000000E-03 0. -1.
        -11    1    4    4    0    0 -0.58955206242E+01  0.13217231596E+01  0.37290503732E+01  0.70999952457E+01  0.51100000000E-03 0.  1.
        -12    1    4    4    0    0 -0.75981743938E+01 -0.10903958288E+02 -0.31106561610E+02  0.33826716300E+02  0.00000000000E+00 0.  1.
</event>
<event>
 8    1  0.2500956E-006  0.9118800E+02  0.7816164E-02  0.1184000E+00
        -11   -1    0    0    0    0  0.00000000000E+00  0.00000000000E+00  0.45593999997E+02  0.45594000000E+02  0.51100000000E-03 0.  1.
         11   -1    0    0    0    0 -0.00000000000E+00 -0.00000000000E+00 -0.45593999997E+02  0.45594000000E+02  0.51100000000E-03 0. -1.
         23    2    1    2    0    0  0.00000000000E+00  0.00000000000E+00  0.00000000000E+00  0.91188000000E+02  0.91188000000E+02 0.  0.
    9900012    2    3    3    0    0  0.18243370311E+02  0.27440495096E+02  0.16430986291E+02  0.54367100474E+02  0.40000037150E+02 0.  0.
        -12    1    3    3    0    0 -0.18243370311E+02 -0.27440495096E+02 -0.16430986291E+02  0.36820899526E+02  0.00000000000E+00 0.  1.
         11    1    4    4    0    0  0.25040919930E+02  0.17642792332E+02  0.38679615194E+01  0.30875182894E+02  0.51100000000E-03 0. -1.
        -11    1    4    4    0    0 -0.15868862144E+01 -0.44256712355E+01  0.28709409325E+01  0.55088180077E+01  0.51100000000E-03 0.  1.
         12    1    4    4    0    0 -0.52106634045E+01  0.14223374000E+02  0.96920838390E+01  0.17983099572E+02  0.00000000000E+00 0. -1.
</event>
<event>
 8    1  0.2500956E-006  0.9118800E+02  0.7816164E-02  0.1184000E+00
        -11   -1    0    0    0    0  0.00000000000E+00  0.00000000000E+00  0.45593999997E+02  0.45594000000E+02  0.51100000000E-03 0.  1.
         11   -1    0    0    0    0 -0.00000000000E+00 -0.00000000000E+00 -0.45593999997E+02  0.45594000000E+02  0.51100000000E-03 0. -1.
         23    2    1    2    0    0  0.88817841970E-15  0.00000000000E+00  0.00000000000E+00  0.91188000000E+02  0.91188000000E+02 0.  0.
    9900012    2    3    3    0    0  0.20090081765E+01  0.95919883255E+01  0.35492815265E+02  0.54367050945E+02  0.39999924239E+02 0.  0.
         12    1    3    3    0    0 -0.20090081765E+01 -0.95919883255E+01 -0.35492815265E+02  0.36820949055E+02  0.00000000000E+00 0. -1.
         11    1    4    4    0    0 -0.80599612607E+01  0.13894390949E+02  0.83120767510E+01  0.18086118864E+02  0.51100000000E-03 0. -1.
        -11    1    4    4    0    0 -0.11215896437E+01  0.72865464883E+01  0.51700011430E+01  0.90044786154E+01  0.51100000000E-03 0.  1.
        -12    1    4    4    0    0  0.11190559081E+02 -0.11588949112E+02  0.22010737371E+02  0.27276453466E+02  0.00000000000E+00 0.  1.
</event>
<event>
 8    1  0.2500956E-006  0.9118800E+02  0.7816164E-02  0.1184000E+00
        -11   -1    0    0    0    0  0.00000000000E+00  0.00000000000E+00  0.45593999997E+02  0.45594000000E+02  0.51100000000E-03 0.  1.
         11   -1    0    0    0    0 -0.00000000000E+00 -0.00000000000E+00 -0.45593999997E+02  0.45594000000E+02  0.51100000000E-03 0. -1.
         23    2    1    2    0    0  0.00000000000E+00  0.00000000000E+00  0.35527136788E-14  0.91188000000E+02  0.91188000000E+02 0.  0.
    9900012    2    3    3    0    0  0.53099378530E+01  0.23648003520E+02 -0.27719258611E+02  0.54367071054E+02  0.39999970082E+02 0.  0.
        -12    1    3    3    0    0 -0.53099378530E+01 -0.23648003520E+02  0.27719258611E+02  0.36820928946E+02  0.00000000000E+00 0.  1.
         11    1    4    4    0    0 -0.52696157727E+01  0.12391709248E+02 -0.19007605459E+02  0.23294041600E+02  0.51100000000E-03 0. -1.
        -11    1    4    4    0    0  0.12159018514E+02  0.15351991776E+01 -0.15013747083E+02  0.19380690634E+02  0.51100000000E-03 0.  1.
         12    1    4    4    0    0 -0.15794648879E+01  0.97210950947E+01  0.63020939310E+01  0.11692338820E+02  0.00000000000E+00 0. -1.
</event>
<event>
 8    1  0.2500956E-006  0.9118800E+02  0.7816164E-02  0.1184000E+00
        -11   -1    0    0    0    0  0.00000000000E+00  0.00000000000E+00  0.45593999997E+02  0.45594000000E+02  0.51100000000E-03 0. -1.
         11   -1    0    0    0    0 -0.00000000000E+00 -0.00000000000E+00 -0.45593999997E+02  0.45594000000E+02  0.51100000000E-03 0.  1.
         23    2    1    2    0    0  0.00000000000E+00  0.00000000000E+00  0.00000000000E+00  0.91188000000E+02  0.91188000000E+02 0.  0.
    9900012    2    3    3    0    0  0.14851445035E+02  0.19892896508E+02  0.27193514453E+02  0.54367082312E+02  0.39999995746E+02 0.  0.
        -12    1    3    3    0    0 -0.14851445035E+02 -0.19892896508E+02 -0.27193514453E+02  0.36820917688E+02  0.00000000000E+00 0.  1.
         11    1    4    4    0    0  0.15563677325E+02 -0.83098154046E+00  0.12401069377E+02  0.19917457271E+02  0.51100000000E-03 0. -1.
        -11    1    4    4    0    0 -0.55003135147E+01  0.23125784150E+02  0.16373650989E+02  0.28864368836E+02  0.51100000000E-03 0.  1.
        -12    1    4    4    0    0  0.47880812251E+01 -0.24019061017E+01 -0.15812059130E+01  0.55852562053E+01  0.00000000000E+00 0.  1.
</event>
<event>
 8    1  0.2500956E-006  0.9118800E+02  0.7816164E-02  0.1184000E+00
        -11   -1    0    0    0    0  0.00000000000E+00  0.00000000000E+00  0.45593999997E+02  0.45594000000E+02  0.51100000000E-03 0.  1.
         11   -1    0    0    0    0 -0.00000000000E+00 -0.00000000000E+00 -0.45593999997E+02  0.45594000000E+02  0.51100000000E-03 0. -1.
         23    2    1    2    0    0  0.00000000000E+00  0.35527136788E-14  0.00000000000E+00  0.91188000000E+02  0.91188000000E+02 0.  0.
    9900012    2    3    3    0    0 -0.17212937975E+02 -0.19344818271E+02 -0.26177715146E+02  0.54367082060E+02  0.39999995172E+02 0.  0.
        -12    1    3    3    0    0  0.17212937975E+02  0.19344818271E+02  0.26177715146E+02  0.36820917940E+02  0.00000000000E+00 0.  1.
         11    1    4    4    0    0 -0.27589280963E+01  0.84690448536E+01 -0.65675922540E+01  0.11066601703E+02  0.51100000000E-03 0. -1.
        -11    1    4    4    0    0  0.24875384346E+01  0.26213861611E+01 -0.30627288717E+01  0.47370688481E+01  0.51100000000E-03 0.  1.
         12    1    4    4    0    0 -0.16941548313E+02 -0.30435249286E+02 -0.16547394020E+02  0.38563411509E+02  0.00000000000E+00 0. -1.
</event>
<event>
 8    1  0.2500956E-006  0.9118800E+02  0.7816164E-02  0.1184000E+00
        -11   -1    0    0    0    0  0.00000000000E+00  0.00000000000E+00  0.45593999997E+02  0.45594000000E+02  0.51100000000E-03 0.  1.
         11   -1    0    0    0    0 -0.00000000000E+00 -0.00000000000E+00 -0.45593999997E+02  0.45594000000E+02  0.51100000000E-03 0. -1.
         23    2    1    2    0    0  0.00000000000E+00 -0.35527136788E-14  0.17763568394E-14  0.91188000000E+02  0.91188000000E+02 0.  0.
    9900012    2    3    3    0    0  0.24701453597E+02  0.23999817067E+02  0.13024170546E+02  0.54367054229E+02  0.39999931727E+02 0.  0.
         12    1    3    3    0    0 -0.24701453597E+02 -0.23999817067E+02 -0.13024170546E+02  0.36820945771E+02  0.00000000000E+00 0. -1.
         11    1    4    4    0    0  0.20807139158E+02  0.27475745099E+01  0.27016120678E+01  0.21160928942E+02  0.51100000000E-03 0. -1.
        -11    1    4    4    0    0 -0.47995413729E+01  0.12542090971E+01  0.10264060956E+02  0.11399981817E+02  0.51100000000E-03 0.  1.
         12    1    4    4    0    0  0.86938558114E+01  0.19998033460E+02  0.58497522327E-01  0.21806143471E+02  0.00000000000E+00 0. -1.
</event>
<event>
 8    1  0.2500956E-006  0.9118800E+02  0.7816164E-02  0.1184000E+00
        -11   -1    0    0    0    0  0.00000000000E+00  0.00000000000E+00  0.45593999997E+02  0.45594000000E+02  0.51100000000E-03 0.  1.
         11   -1    0    0    0    0 -0.00000000000E+00 -0.00000000000E+00 -0.45593999997E+02  0.45594000000E+02  0.51100000000E-03 0. -1.
         23    2    1    2    0    0  0.00000000000E+00  0.00000000000E+00  0.00000000000E+00  0.91188000000E+02  0.91188000000E+02 0.  0.
    9900012    2    3    3    0    0  0.17076724715E+02 -0.27859844411E+02  0.16970390118E+02  0.54367087486E+02  0.40000007542E+02 0.  0.
         12    1    3    3    0    0 -0.17076724715E+02  0.27859844411E+02 -0.16970390118E+02  0.36820912514E+02  0.00000000000E+00 0. -1.
         11    1    4    4    0    0  0.12881310723E+02 -0.10700509561E+02 -0.66687787534E+01  0.18025029296E+02  0.51100000000E-03 0. -1.
        -11    1    4    4    0    0  0.11768654111E+02 -0.15773257645E+02  0.14825518728E+02  0.24639254902E+02  0.51100000000E-03 0.  1.
        -12    1    4    4    0    0 -0.75732401196E+01 -0.13860772054E+01  0.88136501438E+01  0.11702803287E+02  0.00000000000E+00 0.  1.
</event>
<event>
 8    1  0.2500956E-006  0.9118800E+02  0.7816164E-02  0.1184000E+00
        -11   -1    0    0    0    0  0.00000000000E+00  0.00000000000E+00  0.45593999997E+02  0.45594000000E+02  0.51100000000E-03 0. -1.
         11   -1    0    0    0    0 -0.00000000000E+00 -0.00000000000E+00 -0.45593999997E+02  0.45594000000E+02  0.51100000000E-03 0.  1.
         23    2    1    2    0    0  0.00000000000E+00 -0.35527136788E-14  0.00000000000E+00  0.91188000000E+02  0.91188000000E+02 0.  0.
    9900012    2    3    3    0    0  0.14406661264E+02 -0.28112472877E+02  0.18918707905E+02  0.54367074851E+02  0.39999978737E+02 0.  0.
        -12    1    3    3    0    0 -0.14406661264E+02  0.28112472877E+02 -0.18918707905E+02  0.36820925149E+02  0.00000000000E+00 0.  1.
         11    1    4    4    0    0  0.87845756011E+01 -0.54783020194E+01  0.17510763606E+02  0.20342256606E+02  0.51100000000E-03 0. -1.
        -11    1    4    4    0    0 -0.71321319702E+01 -0.14214501822E+02 -0.60551978291E+01  0.17017190999E+02  0.51100000000E-03 0.  1.
         12    1    4    4    0    0  0.12754217633E+02 -0.84196690362E+01  0.74631421285E+01  0.17007627246E+02  0.00000000000E+00 0. -1.
</event>
<event>
 8    1  0.2500956E-006  0.9118800E+02  0.7816164E-02  0.1184000E+00
        -11   -1    0    0    0    0  0.00000000000E+00  0.00000000000E+00  0.45593999997E+02  0.45594000000E+02  0.51100000000E-03 0.  1.
         11   -1    0    0    0    0 -0.00000000000E+00 -0.00000000000E+00 -0.45593999997E+02  0.45594000000E+02  0.51100000000E-03 0. -1.
         23    2    1    2    0    0  0.53290705182E-14  0.71054273576E-14 -0.88817841970E-15  0.91188000000E+02  0.91188000000E+02 0.  0.
    9900012    2    3    3    0    0 -0.92972231551E+01 -0.35412138678E+02 -0.39143225782E+01  0.54367084131E+02  0.39999999894E+02 0.  0.
        -12    1    3    3    0    0  0.92972231551E+01  0.35412138678E+02  0.39143225782E+01  0.36820915869E+02  0.00000000000E+00 0.  1.
         11    1    4    4    0    0  0.62035858465E+01 -0.61517345124E+01  0.58379101724E+01  0.10507592984E+02  0.51100000000E-03 0. -1.
        -11    1    4    4    0    0 -0.30944769450E+01  0.50860930931E+01 -0.31961586588E+01  0.67571858749E+01  0.51100000000E-03 0.  1.
         12    1    4    4    0    0 -0.12406332057E+02 -0.34346497259E+02 -0.65560740918E+01  0.37102305273E+02  0.00000000000E+00 0. -1.
</event>
<event>
 8    1  0.2500956E-006  0.9118800E+02  0.7816164E-02  0.1184000E+00
        -11   -1    0    0    0    0  0.00000000000E+00  0.00000000000E+00  0.45593999997E+02  0.45594000000E+02  0.51100000000E-03 0.  1.
         11   -1    0    0    0    0 -0.00000000000E+00 -0.00000000000E+00 -0.45593999997E+02  0.45594000000E+02  0.51100000000E-03 0. -1.
         23    2    1    2    0    0  0.71054273576E-14  0.00000000000E+00  0.35527136788E-14  0.91188000000E+02  0.91188000000E+02 0.  0.
    9900012    2    3    3    0    0  0.27058029527E+02 -0.17462244427E+02  0.17852657552E+02  0.54367023316E+02  0.39999861253E+02 0.  0.
         12    1    3    3    0    0 -0.27058029527E+02  0.17462244427E+02 -0.17852657552E+02  0.36820976684E+02  0.00000000000E+00 0. -1.
         11    1    4    4    0    0  0.26807042873E+01 -0.42716412931E+01  0.11790434705E+02  0.12823706392E+02  0.51100000000E-03 0. -1.
        -11    1    4    4    0    0  0.25910852369E+02 -0.60945025296E+00  0.10710068428E+02  0.28043702788E+02  0.51100000000E-03 0.  1.
         12    1    4    4    0    0 -0.15335271292E+01 -0.12581152881E+02 -0.46478455819E+01  0.13499614136E+02  0.00000000000E+00 0. -1.
</event>
<event>
 8    1  0.2500956E-006  0.9118800E+02  0.7816164E-02  0.1184000E+00
        -11   -1    0    0    0    0  0.00000000000E+00  0.00000000000E+00  0.45593999997E+02  0.45594000000E+02  0.51100000000E-03 0.  1.
         11   -1    0    0    0    0 -0.00000000000E+00 -0.00000000000E+00 -0.45593999997E+02  0.45594000000E+02  0.51100000000E-03 0. -1.
         23    2    1    2    0    0  0.00000000000E+00  0.22204460493E-15 -0.88817841970E-15  0.91188000000E+02  0.91188000000E+02 0.  0.
    9900012    2    3    3    0    0  0.36701910220E+02  0.60704614386E+00  0.28950916867E+01  0.54367078302E+02  0.39999986604E+02 0.  0.
         12    1    3    3    0    0 -0.36701910220E+02 -0.60704614386E+00 -0.28950916867E+01  0.36820921698E+02  0.00000000000E+00 0. -1.
         11    1    4    4    0    0  0.92656396642E+01 -0.84095600000E+01  0.83895562224E+01  0.15065106427E+02  0.51100000000E-03 0. -1.
        -11    1    4    4    0    0  0.23072940775E+02  0.12882352500E+01 -0.13992053146E+02  0.27014768139E+02  0.51100000000E-03 0.  1.
         12    1    4    4    0    0  0.43633297807E+01  0.77283708939E+01  0.84975886107E+01  0.12287203736E+02  0.00000000000E+00 0. -1.
</event>
<event>
 8    1  0.2500956E-006  0.9118800E+02  0.7816164E-02  0.1184000E+00
        -11   -1    0    0    0    0  0.00000000000E+00  0.00000000000E+00  0.45593999997E+02  0.45594000000E+02  0.51100000000E-03 0. -1.
         11   -1    0    0    0    0 -0.00000000000E+00 -0.00000000000E+00 -0.45593999997E+02  0.45594000000E+02  0.51100000000E-03 0.  1.
         23    2    1    2    0    0 -0.35527136788E-14  0.35527136788E-14  0.88817841970E-15  0.91188000000E+02  0.91188000000E+02 0.  0.
    9900012    2    3    3    0    0 -0.27888131217E+02  0.23510535799E+02  0.50301763428E+01  0.54366867068E+02  0.39999505053E+02 0.  0.
        -12    1    3    3    0    0  0.27888131217E+02 -0.23510535799E+02 -0.50301763428E+01  0.36821132932E+02  0.00000000000E+00 0.  1.
         11    1    4    4    0    0  0.61455451094E+01 -0.30694656266E+01  0.13990636804E+01  0.70104724068E+01  0.51100000000E-03 0. -1.
        -11    1    4    4    0    0 -0.16806832701E+02  0.73878754602E+01 -0.67435613408E+01  0.19558270605E+02  0.51100000000E-03 0.  1.
         12    1    4    4    0    0 -0.17226843625E+02  0.19192125966E+02  0.10374674003E+02  0.27798124056E+02  0.00000000000E+00 0. -1.
</event>
<event>
 8    1  0.2500956E-006  0.9118800E+02  0.7816164E-02  0.1184000E+00
        -11   -1    0    0    0    0  0.00000000000E+00  0.00000000000E+00  0.45593999997E+02  0.45594000000E+02  0.51100000000E-03 0. -1.
         11   -1    0    0    0    0 -0.00000000000E+00 -0.00000000000E+00 -0.45593999997E+02  0.45594000000E+02  0.51100000000E-03 0.  1.
         23    2    1    2    0    0  0.17763568394E-14  0.71054273576E-14 -0.17763568394E-14  0.91188000000E+02  0.91188000000E+02 0.  0.
    9900012    2    3    3    0    0 -0.10838042889E+02 -0.33359471706E+02  0.11200989819E+02  0.54367086118E+02  0.40000004423E+02 0.  0.
        -12    1    3    3    0    0  0.10838042889E+02  0.33359471706E+02 -0.11200989819E+02  0.36820913882E+02  0.00000000000E+00 0.  1.
         11    1    4    4    0    0 -0.16252825752E+02 -0.89754499061E+01  0.17719731217E+02  0.25665188887E+02  0.51100000000E-03 0. -1.
        -11    1    4    4    0    0 -0.10068451241E+01 -0.39994626637E+01 -0.60532555903E+01  0.73247076532E+01  0.51100000000E-03 0.  1.
         12    1    4    4    0    0  0.64216279877E+01 -0.20384559137E+02 -0.46548580788E+00  0.21377189578E+02  0.00000000000E+00 0. -1.
</event>
<event>
 8    1  0.2500956E-006  0.9118800E+02  0.7816164E-02  0.1184000E+00
        -11   -1    0    0    0    0  0.00000000000E+00  0.00000000000E+00  0.45593999997E+02  0.45594000000E+02  0.51100000000E-03 0.  1.
         11   -1    0    0    0    0 -0.00000000000E+00 -0.00000000000E+00 -0.45593999997E+02  0.45594000000E+02  0.51100000000E-03 0. -1.
         23    2    1    2    0    0 -0.35527136788E-14  0.00000000000E+00  0.44408920985E-15  0.91188000000E+02  0.91188000000E+02 0.  0.
    9900012    2    3    3    0    0  0.28607635487E+02 -0.23118993767E+02 -0.17015541809E+01  0.54367082473E+02  0.39999996113E+02 0.  0.
         12    1    3    3    0    0 -0.28607635487E+02  0.23118993767E+02  0.17015541809E+01  0.36820917527E+02  0.00000000000E+00 0. -1.
         11    1    4    4    0    0 -0.44260531553E+00 -0.10274079991E+01  0.11988598562E+02  0.12040679483E+02  0.51100000000E-03 0.  1.
        -11    1    4    4    0    0  0.46960561517E+01  0.13160103253E+01  0.17554997795E+01  0.51833007141E+01  0.51100000000E-03 0. -1.
         12    1    4    4    0    0  0.24354184650E+02 -0.23407596093E+02 -0.15445652522E+02  0.37143102276E+02  0.00000000000E+00 0. -1.
</event>
<event>
 8    1  0.2500956E-006  0.9118800E+02  0.7816164E-02  0.1184000E+00
        -11   -1    0    0    0    0  0.00000000000E+00  0.00000000000E+00  0.45593999997E+02  0.45594000000E+02  0.51100000000E-03 0.  1.
         11   -1    0    0    0    0 -0.00000000000E+00 -0.00000000000E+00 -0.45593999997E+02  0.45594000000E+02  0.51100000000E-03 0. -1.
         23    2    1    2    0    0 -0.44408920985E-15  0.00000000000E+00  0.43715031595E-15  0.91188000000E+02  0.91188000000E+02 0.  0.
    9900012    2    3    3    0    0 -0.30847807393E+01 -0.36691478988E+02 -0.20934572973E-01  0.54367069256E+02  0.39999965984E+02 0.  0.
         12    1    3    3    0    0  0.30847807393E+01  0.36691478988E+02  0.20934572973E-01  0.36820930744E+02  0.00000000000E+00 0. -1.
         11    1    4    4    0    0 -0.16149157909E+01 -0.35898544919E+01 -0.81653220123E+01  0.90646286251E+01  0.51100000000E-03 0. -1.
        -11    1    4    4    0    0  0.13209066660E+02 -0.15001097291E+02  0.91361417943E+01  0.21976838925E+02  0.51100000000E-03 0.  1.
         12    1    4    4    0    0 -0.14678931609E+02 -0.18100527205E+02 -0.99175435499E+00  0.23325601707E+02  0.00000000000E+00 0. -1.
</event>
<event>
 8    1  0.2500956E-006  0.9118800E+02  0.7816164E-02  0.1184000E+00
        -11   -1    0    0    0    0  0.00000000000E+00  0.00000000000E+00  0.45593999997E+02  0.45594000000E+02  0.51100000000E-03 0.  1.
         11   -1    0    0    0    0 -0.00000000000E+00 -0.00000000000E+00 -0.45593999997E+02  0.45594000000E+02  0.51100000000E-03 0. -1.
         23    2    1    2    0    0  0.88817841970E-15  0.22204460493E-14  0.00000000000E+00  0.91188000000E+02  0.91188000000E+02 0.  0.
    9900012    2    3    3    0    0 -0.34042765531E+01 -0.28443645667E+01  0.36552698371E+02  0.54367091987E+02  0.40000017804E+02 0.  0.
         12    1    3    3    0    0  0.34042765531E+01  0.28443645667E+01 -0.36552698371E+02  0.36820908013E+02  0.00000000000E+00 0. -1.
         11    1    4    4    0    0  0.65187034090E+01  0.48761136017E+01 -0.41581709865E+01  0.91411358269E+01  0.51100000000E-03 0. -1.
        -11    1    4    4    0    0 -0.11159113696E+02 -0.10942242468E+02  0.36963596208E+02  0.40131856842E+02  0.51100000000E-03 0.  1.
        -12    1    4    4    0    0  0.12361337336E+01  0.32217642991E+01  0.37472731496E+01  0.50940993182E+01  0.00000000000E+00 0.  1.
</event>
<event>
 8    1  0.2500956E-006  0.9118800E+02  0.7816164E-02  0.1184000E+00
        -11   -1    0    0    0    0  0.00000000000E+00  0.00000000000E+00  0.45593999997E+02  0.45594000000E+02  0.51100000000E-03 0.  1.
         11   -1    0    0    0    0 -0.00000000000E+00 -0.00000000000E+00 -0.45593999997E+02  0.45594000000E+02  0.51100000000E-03 0. -1.
         23    2    1    2    0    0  0.35527136788E-14 -0.17763568394E-14 -0.35527136788E-14  0.91188000000E+02  0.91188000000E+02 0.  0.
    9900012    2    3    3    0    0  0.20946659141E+02  0.13232439991E+02  0.27238198396E+02  0.54367089512E+02  0.40000012160E+02 0.  0.
         12    1    3    3    0    0 -0.20946659141E+02 -0.13232439991E+02 -0.27238198396E+02  0.36820910488E+02  0.00000000000E+00 0. -1.
         11    1    4    4    0    0 -0.55682722926E+01  0.10555276906E+01  0.69848849015E+01  0.89949103597E+01  0.51100000000E-03 0. -1.
        -11    1    4    4    0    0 -0.32628203500E+01  0.25051807825E+01 -0.40231732498E+01  0.57539421833E+01  0.51100000000E-03 0.  1.
        -12    1    4    4    0    0  0.29777751784E+02  0.96717315180E+01  0.24276486745E+02  0.39618236969E+02  0.00000000000E+00 0.  1.
</event>
<event>
 8    1  0.2500956E-006  0.9118800E+02  0.7816164E-02  0.1184000E+00
        -11   -1    0    0    0    0  0.00000000000E+00  0.00000000000E+00  0.45593999997E+02  0.45594000000E+02  0.51100000000E-03 0.  1.
         11   -1    0    0    0    0 -0.00000000000E+00 -0.00000000000E+00 -0.45593999997E+02  0.45594000000E+02  0.51100000000E-03 0. -1.
         23    2    1    2    0    0  0.17763568394E-14  0.00000000000E+00 -0.17763568394E-14  0.91188000000E+02  0.91188000000E+02 0.  0.
    9900012    2    3    3    0    0 -0.12728928158E+02  0.31854406114E+02  0.13381140747E+02  0.54367031400E+02  0.39999879682E+02 0.  0.
         12    1    3    3    0    0  0.12728928158E+02 -0.31854406114E+02 -0.13381140747E+02  0.36820968600E+02  0.00000000000E+00 0. -1.
         11    1    4    4    0    0  0.95913776060E+01  0.71781481842E+01 -0.45696461548E+01  0.12821934409E+02  0.51100000000E-03 0. -1.
        -11    1    4    4    0    0 -0.37047123962E+01  0.76662518015E+01 -0.27205829077E+01  0.89385615309E+01  0.51100000000E-03 0.  1.
        -12    1    4    4    0    0 -0.18615593368E+02  0.17010006129E+02  0.20671369810E+02  0.32606535461E+02  0.00000000000E+00 0.  1.
</event>
<event>
 8    1  0.2500956E-006  0.9118800E+02  0.7816164E-02  0.1184000E+00
        -11   -1    0    0    0    0  0.00000000000E+00  0.00000000000E+00  0.45593999997E+02  0.45594000000E+02  0.51100000000E-03 0. -1.
         11   -1    0    0    0    0 -0.00000000000E+00 -0.00000000000E+00 -0.45593999997E+02  0.45594000000E+02  0.51100000000E-03 0.  1.
         23    2    1    2    0    0  0.00000000000E+00 -0.17763568394E-14  0.35527136788E-14  0.91188000000E+02  0.91188000000E+02 0.  0.
    9900012    2    3    3    0    0  0.19807942037E+02  0.88517188124E+01 -0.29750211934E+02  0.54367046675E+02  0.39999914505E+02 0.  0.
         12    1    3    3    0    0 -0.19807942037E+02 -0.88517188124E+01  0.29750211934E+02  0.36820953325E+02  0.00000000000E+00 0. -1.
         11    1    4    4    0    0  0.64362365138E+01  0.19743134094E+02 -0.16843322639E+01  0.20833949691E+02  0.51100000000E-03 0. -1.
        -11    1    4    4    0    0  0.92080115225E+01 -0.42017037175E+01 -0.12477822463E+02  0.16066668728E+02  0.51100000000E-03 0.  1.
         12    1    4    4    0    0  0.41636940004E+01 -0.66897115639E+01 -0.15588057206E+02  0.17466428255E+02  0.00000000000E+00 0. -1.
</event>
<event>
 8    1  0.2500956E-006  0.9118800E+02  0.7816164E-02  0.1184000E+00
        -11   -1    0    0    0    0  0.00000000000E+00  0.00000000000E+00  0.45593999997E+02  0.45594000000E+02  0.51100000000E-03 0. -1.
         11   -1    0    0    0    0 -0.00000000000E+00 -0.00000000000E+00 -0.45593999997E+02  0.45594000000E+02  0.51100000000E-03 0.  1.
         23    2    1    2    0    0  0.00000000000E+00  0.35527136788E-14  0.00000000000E+00  0.91188000000E+02  0.91188000000E+02 0.  0.
    9900012    2    3    3    0    0 -0.15901471580E+02 -0.30205136497E+02  0.13804811086E+02  0.54367083684E+02  0.39999998875E+02 0.  0.
         12    1    3    3    0    0  0.15901471580E+02  0.30205136497E+02 -0.13804811086E+02  0.36820916316E+02  0.00000000000E+00 0. -1.
         11    1    4    4    0    0 -0.59719466862E+01 -0.15892537379E+00  0.17903163331E+02  0.18873596955E+02  0.51100000000E-03 0. -1.
        -11    1    4    4    0    0 -0.12666653004E+02 -0.15925814223E+02  0.61360127224E+00  0.20358098236E+02  0.51100000000E-03 0.  1.
         12    1    4    4    0    0  0.27371281104E+01 -0.14120396900E+02 -0.47119535166E+01  0.15135388493E+02  0.00000000000E+00 0. -1.
</event>
<event>
 8    1  0.2500956E-006  0.9118800E+02  0.7816164E-02  0.1184000E+00
        -11   -1    0    0    0    0  0.00000000000E+00  0.00000000000E+00  0.45593999997E+02  0.45594000000E+02  0.51100000000E-03 0.  1.
         11   -1    0    0    0    0 -0.00000000000E+00 -0.00000000000E+00 -0.45593999997E+02  0.45594000000E+02  0.51100000000E-03 0. -1.
         23    2    1    2    0    0 -0.26645352591E-14  0.00000000000E+00  0.00000000000E+00  0.91188000000E+02  0.91188000000E+02 0.  0.
    9900012    2    3    3    0    0  0.69198943103E+01  0.33184346521E+02 -0.14376869481E+02  0.54367079760E+02  0.39999989929E+02 0.  0.
        -12    1    3    3    0    0 -0.69198943103E+01 -0.33184346521E+02  0.14376869481E+02  0.36820920240E+02  0.00000000000E+00 0.  1.
         11    1    4    4    0    0  0.11798297725E+02  0.57163509815E+00 -0.16391570278E+02  0.20204211747E+02  0.51100000000E-03 0.  1.
        -11    1    4    4    0    0  0.15798330564E+01  0.14168848902E+02 -0.13987765361E+01  0.14325108298E+02  0.51100000000E-03 0. -1.
        -12    1    4    4    0    0 -0.64582364712E+01  0.18443862520E+02  0.34134773331E+01  0.19837759714E+02  0.00000000000E+00 0.  1.
</event>
<event>
 8    1  0.2500956E-006  0.9118800E+02  0.7816164E-02  0.1184000E+00
        -11   -1    0    0    0    0  0.00000000000E+00  0.00000000000E+00  0.45593999997E+02  0.45594000000E+02  0.51100000000E-03 0.  1.
         11   -1    0    0    0    0 -0.00000000000E+00 -0.00000000000E+00 -0.45593999997E+02  0.45594000000E+02  0.51100000000E-03 0. -1.
         23    2    1    2    0    0  0.00000000000E+00  0.44408920985E-15  0.00000000000E+00  0.91188000000E+02  0.91188000000E+02 0.  0.
    9900012    2    3    3    0    0 -0.30401014730E+02 -0.35347831008E+01 -0.20471046473E+02  0.54367080241E+02  0.39999991025E+02 0.  0.
        -12    1    3    3    0    0  0.30401014730E+02  0.35347831008E+01  0.20471046473E+02  0.36820919759E+02  0.00000000000E+00 0.  1.
         11    1    4    4    0    0 -0.23887497717E+02 -0.68569745129E+01 -0.22100739350E+02  0.33257680718E+02  0.51100000000E-03 0. -1.
        -11    1    4    4    0    0 -0.38553730952E+01 -0.57251479546E+01  0.73479268535E+01  0.10081331763E+02  0.51100000000E-03 0.  1.
        -12    1    4    4    0    0 -0.26581439179E+01  0.90473393667E+01 -0.57182339768E+01  0.11028067760E+02  0.00000000000E+00 0.  1.
</event>
<event>
 8    1  0.2500956E-006  0.9118800E+02  0.7816164E-02  0.1184000E+00
        -11   -1    0    0    0    0  0.00000000000E+00  0.00000000000E+00  0.45593999997E+02  0.45594000000E+02  0.51100000000E-03 0. -1.
         11   -1    0    0    0    0 -0.00000000000E+00 -0.00000000000E+00 -0.45593999997E+02  0.45594000000E+02  0.51100000000E-03 0.  1.
         23    2    1    2    0    0  0.35527136788E-14  0.00000000000E+00 -0.35527136788E-14  0.91188000000E+02  0.91188000000E+02 0.  0.
    9900012    2    3    3    0    0 -0.21346794930E+02 -0.56634990606E+01  0.29462165583E+02  0.54367080997E+02  0.39999992748E+02 0.  0.
        -12    1    3    3    0    0  0.21346794930E+02  0.56634990606E+01 -0.29462165583E+02  0.36820919003E+02  0.00000000000E+00 0.  1.
         11    1    4    4    0    0 -0.18012627430E+01 -0.10974147117E+02  0.87310264488E+01  0.14138856939E+02  0.51100000000E-03 0. -1.
        -11    1    4    4    0    0  0.33026185023E+01 -0.38551537442E+01 -0.31138513765E+01  0.59552976432E+01  0.51100000000E-03 0.  1.
         12    1    4    4    0    0 -0.22848150689E+02  0.91658018011E+01  0.23844990511E+02  0.34272926415E+02  0.00000000000E+00 0. -1.
</event>
<event>
 8    1  0.2500956E-006  0.9118800E+02  0.7816164E-02  0.1184000E+00
        -11   -1    0    0    0    0  0.00000000000E+00  0.00000000000E+00  0.45593999997E+02  0.45594000000E+02  0.51100000000E-03 0. -1.
         11   -1    0    0    0    0 -0.00000000000E+00 -0.00000000000E+00 -0.45593999997E+02  0.45594000000E+02  0.51100000000E-03 0.  1.
         23    2    1    2    0    0  0.00000000000E+00  0.00000000000E+00  0.00000000000E+00  0.91188000000E+02  0.91188000000E+02 0.  0.
    9900012    2    3    3    0    0  0.32381836895E+02  0.12225914258E+02  0.12558741269E+02  0.54367104812E+02  0.40000047041E+02 0.  0.
         12    1    3    3    0    0 -0.32381836895E+02 -0.12225914258E+02 -0.12558741269E+02  0.36820895188E+02  0.00000000000E+00 0. -1.
         11    1    4    4    0    0  0.12238931099E+02  0.53574366504E+01 -0.18128496658E+01  0.13482580839E+02  0.51100000000E-03 0. -1.
        -11    1    4    4    0    0  0.14752014308E+02  0.36895946086E+01 -0.83283171864E+01  0.17337701749E+02  0.51100000000E-03 0.  1.
         12    1    4    4    0    0  0.53908914881E+01  0.31788829986E+01  0.22699908121E+02  0.23546822224E+02  0.00000000000E+00 0. -1.
</event>
<event>
 8    1  0.2500956E-006  0.9118800E+02  0.7816164E-02  0.1184000E+00
        -11   -1    0    0    0    0  0.00000000000E+00  0.00000000000E+00  0.45593999997E+02  0.45594000000E+02  0.51100000000E-03 0.  1.
         11   -1    0    0    0    0 -0.00000000000E+00 -0.00000000000E+00 -0.45593999997E+02  0.45594000000E+02  0.51100000000E-03 0. -1.
         23    2    1    2    0    0  0.00000000000E+00  0.35527136788E-14 -0.35527136788E-14  0.91188000000E+02  0.91188000000E+02 0.  0.
    9900012    2    3    3    0    0 -0.42620285387E+01 -0.18162374498E+02  0.31744971025E+02  0.54367083118E+02  0.39999997584E+02 0.  0.
         12    1    3    3    0    0  0.42620285387E+01  0.18162374498E+02 -0.31744971025E+02  0.36820916882E+02  0.00000000000E+00 0. -1.
         11    1    4    4    0    0  0.27755950885E+01  0.50738079616E+01  0.89823878187E+01  0.10683199264E+02  0.51100000000E-03 0. -1.
        -11    1    4    4    0    0  0.76150582813E+01 -0.15720272543E+02  0.26146482915E+01  0.17662176180E+02  0.51100000000E-03 0.  1.
         12    1    4    4    0    0 -0.14652681908E+02 -0.75159099162E+01  0.20147934915E+02  0.26021707675E+02  0.00000000000E+00 0. -1.
</event>
<event>
 8    1  0.2500956E-006  0.9118800E+02  0.7816164E-02  0.1184000E+00
        -11   -1    0    0    0    0  0.00000000000E+00  0.00000000000E+00  0.45593999997E+02  0.45594000000E+02  0.51100000000E-03 0.  1.
         11   -1    0    0    0    0 -0.00000000000E+00 -0.00000000000E+00 -0.45593999997E+02  0.45594000000E+02  0.51100000000E-03 0. -1.
         23    2    1    2    0    0  0.00000000000E+00  0.00000000000E+00  0.54123372450E-15  0.91188000000E+02  0.91188000000E+02 0.  0.
    9900012    2    3    3    0    0 -0.30564490228E+02 -0.20532391841E+02  0.11276941891E+00  0.54367083464E+02  0.39999998372E+02 0.  0.
        -12    1    3    3    0    0  0.30564490228E+02  0.20532391841E+02 -0.11276941891E+00  0.36820916536E+02  0.00000000000E+00 0.  1.
         11    1    4    4    0    0 -0.40260463372E+00 -0.25741592330E+01 -0.41029511558E+01  0.48603080865E+01  0.51100000000E-03 0. -1.
        -11    1    4    4    0    0 -0.13918595005E+02 -0.10655643882E+02  0.19368869290E+02  0.26123229725E+02  0.51100000000E-03 0.  1.
        -12    1    4    4    0    0 -0.16243290589E+02 -0.73025887259E+01 -0.15153148715E+02  0.23383545652E+02  0.00000000000E+00 0.  1.
</event>
<event>
 8    1  0.2500956E-006  0.9118800E+02  0.7816164E-02  0.1184000E+00
        -11   -1    0    0    0    0  0.00000000000E+00  0.00000000000E+00  0.45593999997E+02  0.45594000000E+02  0.51100000000E-03 0. -1.
         11   -1    0    0    0    0 -0.00000000000E+00 -0.00000000000E+00 -0.45593999997E+02  0.45594000000E+02  0.51100000000E-03 0.  1.
         23    2    1    2    0    0  0.44408920985E-15 -0.17763568394E-14 -0.71054273576E-14  0.91188000000E+02  0.91188000000E+02 0.  0.
    9900012    2    3    3    0    0  0.11297010187E+01 -0.11734793385E+02  0.34882628799E+02  0.54367090286E+02  0.40000013926E+02 0.  0.
        -12    1    3    3    0    0 -0.11297010187E+01  0.11734793385E+02 -0.34882628799E+02  0.36820909714E+02  0.00000000000E+00 0.  1.
         11    1    4    4    0    0 -0.34349245921E+01 -0.51800011118E+01  0.14936544253E+02  0.16178117102E+02  0.51100000000E-03 0. -1.
        -11    1    4    4    0    0  0.57184522895E+01 -0.18302605716E+02  0.17854905915E+02  0.26200834682E+02  0.51100000000E-03 0.  1.
        -12    1    4    4    0    0 -0.11538266787E+01  0.11747813442E+02  0.20911786318E+01  0.11988138502E+02  0.00000000000E+00 0.  1.
</event>
<event>
 8    1  0.2500956E-006  0.9118800E+02  0.7816164E-02  0.1184000E+00
        -11   -1    0    0    0    0  0.00000000000E+00  0.00000000000E+00  0.45593999997E+02  0.45594000000E+02  0.51100000000E-03 0.  1.
         11   -1    0    0    0    0 -0.00000000000E+00 -0.00000000000E+00 -0.45593999997E+02  0.45594000000E+02  0.51100000000E-03 0. -1.
         23    2    1    2    0    0  0.71054273576E-14  0.00000000000E+00 -0.35527136788E-14  0.91188000000E+02  0.91188000000E+02 0.  0.
    9900012    2    3    3    0    0 -0.18569693818E+02  0.65358425004E+01  0.31116379556E+02  0.54367084173E+02  0.39999999989E+02 0.  0.
         12    1    3    3    0    0  0.18569693818E+02 -0.65358425004E+01 -0.31116379556E+02  0.36820915827E+02  0.00000000000E+00 0. -1.
         11    1    4    4    0    0 -0.19133228075E+01 -0.41971912180E+01 -0.21863589065E+01  0.51046433583E+01  0.51100000000E-03 0. -1.
        -11    1    4    4    0    0 -0.15186646084E+00  0.16682238113E+02  0.24482016658E+02  0.29625821031E+02  0.51100000000E-03 0.  1.
        -12    1    4    4    0    0 -0.16504504550E+02 -0.59492043943E+01  0.88207218044E+01  0.19636619783E+02  0.00000000000E+00 0.  1.
</event>
<event>
 8    1  0.2500956E-006  0.9118800E+02  0.7816164E-02  0.1184000E+00
        -11   -1    0    0    0    0  0.00000000000E+00  0.00000000000E+00  0.45593999997E+02  0.45594000000E+02  0.51100000000E-03 0. -1.
         11   -1    0    0    0    0 -0.00000000000E+00 -0.00000000000E+00 -0.45593999997E+02  0.45594000000E+02  0.51100000000E-03 0.  1.
         23    2    1    2    0    0  0.00000000000E+00  0.00000000000E+00  0.00000000000E+00  0.91188000000E+02  0.91188000000E+02 0.  0.
    9900012    2    3    3    0    0 -0.45335334903E+01  0.32672055572E+02 -0.16363495095E+02  0.54367080498E+02  0.39999991612E+02 0.  0.
         12    1    3    3    0    0  0.45335334903E+01 -0.32672055572E+02  0.16363495095E+02  0.36820919502E+02  0.00000000000E+00 0. -1.
         11    1    4    4    0    0 -0.94017621620E+01  0.60752598102E+01 -0.14487296951E+02  0.18308022469E+02  0.51100000000E-03 0. -1.
        -11    1    4    4    0    0 -0.65369544527E+01  0.11098354089E+02 -0.88101088234E+01  0.15605231646E+02  0.51100000000E-03 0.  1.
        -12    1    4    4    0    0  0.11405183124E+02  0.15498441674E+02  0.69339106796E+01  0.20453826383E+02  0.00000000000E+00 0.  1.
</event>
<event>
 8    1  0.2500956E-006  0.9118800E+02  0.7816164E-02  0.1184000E+00
        -11   -1    0    0    0    0  0.00000000000E+00  0.00000000000E+00  0.45593999997E+02  0.45594000000E+02  0.51100000000E-03 0.  1.
         11   -1    0    0    0    0 -0.00000000000E+00 -0.00000000000E+00 -0.45593999997E+02  0.45594000000E+02  0.51100000000E-03 0. -1.
         23    2    1    2    0    0  0.35527136788E-14 -0.17763568394E-14 -0.35527136788E-14  0.91188000000E+02  0.91188000000E+02 0.  0.
    9900012    2    3    3    0    0  0.17355892433E+02  0.15313437321E+02 -0.28636531752E+02  0.54367091327E+02  0.40000016298E+02 0.  0.
        -12    1    3    3    0    0 -0.17355892433E+02 -0.15313437321E+02  0.28636531752E+02  0.36820908673E+02  0.00000000000E+00 0.  1.
         11    1    4    4    0    0  0.52234908008E+01  0.14372837093E+01 -0.32310360497E+01  0.63079501284E+01  0.51100000000E-03 0. -1.
        -11    1    4    4    0    0  0.78537397334E+01 -0.11644941283E+02 -0.43680735440E+01  0.14709383129E+02  0.51100000000E-03 0.  1.
        -12    1    4    4    0    0  0.42786618989E+01  0.25521094894E+02 -0.21037422158E+02  0.33349758070E+02  0.00000000000E+00 0.  1.
</event>
<event>
 8    1  0.2500956E-006  0.9118800E+02  0.7816164E-02  0.1184000E+00
        -11   -1    0    0    0    0  0.00000000000E+00  0.00000000000E+00  0.45593999997E+02  0.45594000000E+02  0.51100000000E-03 0. -1.
         11   -1    0    0    0    0 -0.00000000000E+00 -0.00000000000E+00 -0.45593999997E+02  0.45594000000E+02  0.51100000000E-03 0.  1.
         23    2    1    2    0    0  0.00000000000E+00  0.00000000000E+00  0.00000000000E+00  0.91188000000E+02  0.91188000000E+02 0.  0.
    9900012    2    3    3    0    0 -0.94287711612E+01 -0.25302328460E+02 -0.25033385751E+02  0.54367082667E+02  0.39999996556E+02 0.  0.
         12    1    3    3    0    0  0.94287711612E+01  0.25302328460E+02  0.25033385751E+02  0.36820917333E+02  0.00000000000E+00 0. -1.
         11    1    4    4    0    0  0.67476129720E+01 -0.13387117106E+02  0.20466928843E+01  0.15130569627E+02  0.51100000000E-03 0. -1.
        -11    1    4    4    0    0 -0.74087508196E+01 -0.15403991551E+02 -0.10219832776E+02  0.19915258639E+02  0.51100000000E-03 0.  1.
        -12    1    4    4    0    0 -0.87676333137E+01  0.34887801973E+01 -0.16860245859E+02  0.19321254401E+02  0.00000000000E+00 0.  1.
</event>
<event>
 8    1  0.2500956E-006  0.9118800E+02  0.7816164E-02  0.1184000E+00
        -11   -1    0    0    0    0  0.00000000000E+00  0.00000000000E+00  0.45593999997E+02  0.45594000000E+02  0.51100000000E-03 0.  1.
         11   -1    0    0    0    0 -0.00000000000E+00 -0.00000000000E+00 -0.45593999997E+02  0.45594000000E+02  0.51100000000E-03 0. -1.
         23    2    1    2    0    0 -0.17763568394E-14  0.17763568394E-14  0.00000000000E+00  0.91188000000E+02  0.91188000000E+02 0.  0.
    9900012    2    3    3    0    0 -0.15975688189E+02 -0.94683172911E+01 -0.31794788797E+02  0.54367078772E+02  0.39999987677E+02 0.  0.
        -12    1    3    3    0    0  0.15975688189E+02  0.94683172911E+01  0.31794788797E+02  0.36820921228E+02  0.00000000000E+00 0.  1.
         11    1    4    4    0    0 -0.45210017392E+01 -0.31692039955E+01 -0.26148907036E+02  0.26725430775E+02  0.51100000000E-03 0. -1.
        -11    1    4    4    0    0 -0.13603150438E+02 -0.57748149636E+01 -0.13172601719E+02  0.19796757967E+02  0.51100000000E-03 0.  1.
         12    1    4    4    0    0  0.21484639881E+01 -0.52429833204E+00  0.75267199584E+01  0.78448900299E+01  0.00000000000E+00 0. -1.
</event>
<event>
 8    1  0.2500956E-006  0.9118800E+02  0.7816164E-02  0.1184000E+00
        -11   -1    0    0    0    0  0.00000000000E+00  0.00000000000E+00  0.45593999997E+02  0.45594000000E+02  0.51100000000E-03 0.  1.
         11   -1    0    0    0    0 -0.00000000000E+00 -0.00000000000E+00 -0.45593999997E+02  0.45594000000E+02  0.51100000000E-03 0. -1.
         23    2    1    2    0    0 -0.16653345369E-14  0.00000000000E+00  0.00000000000E+00  0.91188000000E+02  0.91188000000E+02 0.  0.
    9900012    2    3    3    0    0 -0.60139963658E+00  0.35994526917E+02  0.77337947914E+01  0.54367092469E+02  0.40000018902E+02 0.  0.
         12    1    3    3    0    0  0.60139963658E+00 -0.35994526917E+02 -0.77337947914E+01  0.36820907531E+02  0.00000000000E+00 0. -1.
         11    1    4    4    0    0 -0.35494720185E+01  0.18648544260E+01 -0.10601265705E+02  0.11334163773E+02  0.51100000000E-03 0. -1.
        -11    1    4    4    0    0 -0.73136830875E+01  0.18880414984E+02  0.69255134442E+01  0.21399130052E+02  0.51100000000E-03 0.  1.
        -12    1    4    4    0    0  0.10261755469E+02  0.15249257508E+02  0.11409547052E+02  0.21633798644E+02  0.00000000000E+00 0.  1.
</event>
<event>
 8    1  0.2500956E-006  0.9118800E+02  0.7816164E-02  0.1184000E+00
        -11   -1    0    0    0    0  0.00000000000E+00  0.00000000000E+00  0.45593999997E+02  0.45594000000E+02  0.51100000000E-03 0.  1.
         11   -1    0    0    0    0 -0.00000000000E+00 -0.00000000000E+00 -0.45593999997E+02  0.45594000000E+02  0.51100000000E-03 0. -1.
         23    2    1    2    0    0  0.00000000000E+00 -0.77715611724E-15 -0.71054273576E-14  0.91188000000E+02  0.91188000000E+02 0.  0.
    9900012    2    3    3    0    0 -0.69354022693E+01 -0.68167045818E+00 -0.36155441994E+02  0.54367075717E+02  0.39999980713E+02 0.  0.
        -12    1    3    3    0    0  0.69354022693E+01  0.68167045818E+00  0.36155441994E+02  0.36820924283E+02  0.00000000000E+00 0.  1.
         11    1    4    4    0    0  0.23478487067E+01 -0.37667419340E+01 -0.26702015911E+02  0.27068402101E+02  0.51100000000E-03 0.  1.
        -11    1    4    4    0    0 -0.10399544285E+02 -0.24997895843E+01 -0.15602935904E+02  0.18916952143E+02  0.51100000000E-03 0. -1.
        -12    1    4    4    0    0  0.11162933088E+01  0.55848610601E+01  0.61495098211E+01  0.83817214730E+01  0.00000000000E+00 0.  1.
</event>
<event>
 8    1  0.2500956E-006  0.9118800E+02  0.7816164E-02  0.1184000E+00
        -11   -1    0    0    0    0  0.00000000000E+00  0.00000000000E+00  0.45593999997E+02  0.45594000000E+02  0.51100000000E-03 0.  1.
         11   -1    0    0    0    0 -0.00000000000E+00 -0.00000000000E+00 -0.45593999997E+02  0.45594000000E+02  0.51100000000E-03 0. -1.
         23    2    1    2    0    0  0.00000000000E+00 -0.17763568394E-14  0.35527136788E-14  0.91188000000E+02  0.91188000000E+02 0.  0.
    9900012    2    3    3    0    0  0.17725158774E+02  0.14828688674E+02 -0.28665431690E+02  0.54367105995E+02  0.40000049736E+02 0.  0.
        -12    1    3    3    0    0 -0.17725158774E+02 -0.14828688674E+02  0.28665431690E+02  0.36820894005E+02  0.00000000000E+00 0.  1.
         11    1    4    4    0    0  0.67430601905E+01 -0.13894346455E+01 -0.76471402463E+01  0.10289710568E+02  0.51100000000E-03 0. -1.
        -11    1    4    4    0    0  0.16197375541E+02  0.52496242082E+01  0.28812484589E+01  0.17268906210E+02  0.51100000000E-03 0.  1.
        -12    1    4    4    0    0 -0.52152769577E+01  0.10968499111E+02 -0.23899539903E+02  0.26808489216E+02  0.00000000000E+00 0.  1.
</event>
<event>
 8    1  0.2500956E-006  0.9118800E+02  0.7816164E-02  0.1184000E+00
        -11   -1    0    0    0    0  0.00000000000E+00  0.00000000000E+00  0.45593999997E+02  0.45594000000E+02  0.51100000000E-03 0. -1.
         11   -1    0    0    0    0 -0.00000000000E+00 -0.00000000000E+00 -0.45593999997E+02  0.45594000000E+02  0.51100000000E-03 0.  1.
         23    2    1    2    0    0  0.00000000000E+00 -0.17763568394E-14 -0.66613381478E-15  0.91188000000E+02  0.91188000000E+02 0.  0.
    9900012    2    3    3    0    0 -0.34293757422E+02 -0.13306795795E+02  0.16272176605E+01  0.54367075925E+02  0.39999981186E+02 0.  0.
         12    1    3    3    0    0  0.34293757422E+02  0.13306795795E+02 -0.16272176605E+01  0.36820924075E+02  0.00000000000E+00 0. -1.
         11    1    4    4    0    0 -0.15632046538E+02  0.86248715789E+01 -0.77113746573E+01  0.19447739922E+02  0.51100000000E-03 0. -1.
        -11    1    4    4    0    0 -0.11579601633E+02 -0.11566165663E+02  0.13990462906E+02  0.21531289202E+02  0.51100000000E-03 0.  1.
        -12    1    4    4    0    0 -0.70821092509E+01 -0.10365501711E+02 -0.46518705883E+01  0.13388046800E+02  0.00000000000E+00 0.  1.
</event>
<event>
 8    1  0.2500956E-006  0.9118800E+02  0.7816164E-02  0.1184000E+00
        -11   -1    0    0    0    0  0.00000000000E+00  0.00000000000E+00  0.45593999997E+02  0.45594000000E+02  0.51100000000E-03 0. -1.
         11   -1    0    0    0    0 -0.00000000000E+00 -0.00000000000E+00 -0.45593999997E+02  0.45594000000E+02  0.51100000000E-03 0.  1.
         23    2    1    2    0    0  0.00000000000E+00  0.00000000000E+00  0.00000000000E+00  0.91188000000E+02  0.91188000000E+02 0.  0.
    9900012    2    3    3    0    0 -0.86496739018E+01 -0.50665313417E+01  0.35430075296E+02  0.54367125025E+02  0.40000093120E+02 0.  0.
        -12    1    3    3    0    0  0.86496739018E+01  0.50665313417E+01 -0.35430075296E+02  0.36820874975E+02  0.00000000000E+00 0.  1.
         11    1    4    4    0    0  0.58925697519E+00 -0.12574831711E+02  0.26370043981E+01  0.12861858684E+02  0.51100000000E-03 0. -1.
        -11    1    4    4    0    0  0.16866499591E+01  0.12471653480E+02  0.11422009135E+02  0.16995564761E+02  0.51100000000E-03 0.  1.
         12    1    4    4    0    0 -0.10925580836E+02 -0.49633531108E+01  0.21371061762E+02  0.24509701580E+02  0.00000000000E+00 0. -1.
</event>
<event>
 8    1  0.2500956E-006  0.9118800E+02  0.7816164E-02  0.1184000E+00
        -11   -1    0    0    0    0  0.00000000000E+00  0.00000000000E+00  0.45593999997E+02  0.45594000000E+02  0.51100000000E-03 0.  1.
         11   -1    0    0    0    0 -0.00000000000E+00 -0.00000000000E+00 -0.45593999997E+02  0.45594000000E+02  0.51100000000E-03 0. -1.
         23    2    1    2    0    0  0.00000000000E+00  0.00000000000E+00  0.17763568394E-14  0.91188000000E+02  0.91188000000E+02 0.  0.
    9900012    2    3    3    0    0 -0.92239404197E+01 -0.35194401708E+02 -0.56612686375E+01  0.54367123434E+02  0.40000089493E+02 0.  0.
         12    1    3    3    0    0  0.92239404197E+01  0.35194401708E+02  0.56612686375E+01  0.36820876566E+02  0.00000000000E+00 0. -1.
         11    1    4    4    0    0  0.30086679179E+01  0.12583975175E+01  0.80836102310E+01  0.87166737681E+01  0.51100000000E-03 0. -1.
        -11    1    4    4    0    0 -0.17259643439E+02 -0.22734458079E+02 -0.11895918148E+02  0.30923514429E+02  0.51100000000E-03 0.  1.
         12    1    4    4    0    0  0.50270351018E+01 -0.13718341147E+02 -0.18489607202E+01  0.14726935237E+02  0.00000000000E+00 0. -1.
</event>
<event>
 8    1  0.2500956E-006  0.9118800E+02  0.7816164E-02  0.1184000E+00
        -11   -1    0    0    0    0  0.00000000000E+00  0.00000000000E+00  0.45593999997E+02  0.45594000000E+02  0.51100000000E-03 0.  1.
         11   -1    0    0    0    0 -0.00000000000E+00 -0.00000000000E+00 -0.45593999997E+02  0.45594000000E+02  0.51100000000E-03 0. -1.
         23    2    1    2    0    0  0.00000000000E+00  0.66613381478E-15  0.00000000000E+00  0.91188000000E+02  0.91188000000E+02 0.  0.
    9900012    2    3    3    0    0 -0.75722622761E+01 -0.18084421373E+01 -0.35988477171E+02  0.54367080565E+02  0.39999991764E+02 0.  0.
        -12    1    3    3    0    0  0.75722622761E+01  0.18084421373E+01  0.35988477171E+02  0.36820919435E+02  0.00000000000E+00 0.  1.
         11    1    4    4    0    0  0.25708132123E+01 -0.77645705418E+01  0.23908470137E+01  0.85213723059E+01  0.51100000000E-03 0. -1.
        -11    1    4    4    0    0 -0.43165172820E+01 -0.84471521629E+01 -0.16024472142E+02  0.18621772439E+02  0.51100000000E-03 0.  1.
         12    1    4    4    0    0 -0.58265582065E+01  0.14403280567E+02 -0.22354852043E+02  0.27223935820E+02  0.00000000000E+00 0. -1.
</event>
<event>
 8    1  0.2500956E-006  0.9118800E+02  0.7816164E-02  0.1184000E+00
        -11   -1    0    0    0    0  0.00000000000E+00  0.00000000000E+00  0.45593999997E+02  0.45594000000E+02  0.51100000000E-03 0.  1.
         11   -1    0    0    0    0 -0.00000000000E+00 -0.00000000000E+00 -0.45593999997E+02  0.45594000000E+02  0.51100000000E-03 0. -1.
         23    2    1    2    0    0  0.35527136788E-14  0.00000000000E+00  0.00000000000E+00  0.91188000000E+02  0.91188000000E+02 0.  0.
    9900012    2    3    3    0    0 -0.25372402873E+02 -0.24973382395E+02  0.93996013115E+01  0.54367066271E+02  0.39999959179E+02 0.  0.
         12    1    3    3    0    0  0.25372402873E+02  0.24973382395E+02 -0.93996013115E+01  0.36820933729E+02  0.00000000000E+00 0. -1.
         11    1    4    4    0    0  0.68441214088E+00  0.89265700414E+01 -0.14072340449E+01  0.90626916862E+01  0.51100000000E-03 0. -1.
        -11    1    4    4    0    0 -0.91749495753E+01 -0.20066132139E+02  0.38580627088E+01  0.22398973344E+02  0.51100000000E-03 0.  1.
        -12    1    4    4    0    0 -0.16881865439E+02 -0.13833820298E+02  0.69487726475E+01  0.22905401241E+02  0.00000000000E+00 0.  1.
</event>
<event>
 8    1  0.2500956E-006  0.9118800E+02  0.7816164E-02  0.1184000E+00
        -11   -1    0    0    0    0  0.00000000000E+00  0.00000000000E+00  0.45593999997E+02  0.45594000000E+02  0.51100000000E-03 0.  1.
         11   -1    0    0    0    0 -0.00000000000E+00 -0.00000000000E+00 -0.45593999997E+02  0.45594000000E+02  0.51100000000E-03 0. -1.
         23    2    1    2    0    0 -0.88817841970E-15  0.00000000000E+00  0.00000000000E+00  0.91188000000E+02  0.91188000000E+02 0.  0.
    9900012    2    3    3    0    0  0.61293204109E+01  0.34931621602E+02 -0.98991461305E+01  0.54367084062E+02  0.39999999735E+02 0.  0.
        -12    1    3    3    0    0 -0.61293204109E+01 -0.34931621602E+02  0.98991461305E+01  0.36820915938E+02  0.00000000000E+00 0.  1.
         11    1    4    4    0    0  0.10258374230E+02  0.36738697224E+01  0.84159825269E+01  0.13768090744E+02  0.51100000000E-03 0. -1.
        -11    1    4    4    0    0  0.22974419575E+01  0.15151487286E+00  0.18687815299E+01  0.29653905261E+01  0.51100000000E-03 0.  1.
         12    1    4    4    0    0 -0.64264957761E+01  0.31106237006E+02 -0.20183910187E+02  0.37633602792E+02  0.00000000000E+00 0. -1.
</event>
<event>
 8    1  0.2500956E-006  0.9118800E+02  0.7816164E-02  0.1184000E+00
        -11   -1    0    0    0    0  0.00000000000E+00  0.00000000000E+00  0.45593999997E+02  0.45594000000E+02  0.51100000000E-03 0. -1.
         11   -1    0    0    0    0 -0.00000000000E+00 -0.00000000000E+00 -0.45593999997E+02  0.45594000000E+02  0.51100000000E-03 0.  1.
         23    2    1    2    0    0  0.00000000000E+00 -0.17763568394E-14  0.35527136788E-14  0.91188000000E+02  0.91188000000E+02 0.  0.
    9900012    2    3    3    0    0 -0.24122950677E+02 -0.77927115725E+01  0.26704552470E+02  0.54367133285E+02  0.40000111949E+02 0.  0.
        -12    1    3    3    0    0  0.24122950677E+02  0.77927115725E+01 -0.26704552470E+02  0.36820866715E+02  0.00000000000E+00 0.  1.
         11    1    4    4    0    0  0.61256920886E+01 -0.13178447021E+02  0.68836860480E+01  0.16080444749E+02  0.51100000000E-03 0. -1.
        -11    1    4    4    0    0 -0.15330002187E+02 -0.28907492315E+01  0.10932223579E+02  0.19049380851E+02  0.51100000000E-03 0.  1.
        -12    1    4    4    0    0 -0.14918640579E+02  0.82764846799E+01  0.88886428427E+01  0.19237307685E+02  0.00000000000E+00 0.  1.
</event>
<event>
 8    1  0.2500956E-006  0.9118800E+02  0.7816164E-02  0.1184000E+00
        -11   -1    0    0    0    0  0.00000000000E+00  0.00000000000E+00  0.45593999997E+02  0.45594000000E+02  0.51100000000E-03 0.  1.
         11   -1    0    0    0    0 -0.00000000000E+00 -0.00000000000E+00 -0.45593999997E+02  0.45594000000E+02  0.51100000000E-03 0. -1.
         23    2    1    2    0    0  0.00000000000E+00  0.00000000000E+00  0.71054273576E-14  0.91188000000E+02  0.91188000000E+02 0.  0.
    9900012    2    3    3    0    0  0.93073716395E+01  0.16607711835E+01 -0.35586432977E+02  0.54367088281E+02  0.40000009354E+02 0.  0.
         12    1    3    3    0    0 -0.93073716395E+01 -0.16607711835E+01  0.35586432977E+02  0.36820911719E+02  0.00000000000E+00 0. -1.
         11    1    4    4    0    0  0.75036389174E+01 -0.47085620529E+01 -0.23821560171E+02  0.25415386734E+02  0.51100000000E-03 0. -1.
        -11    1    4    4    0    0  0.60717934941E+01  0.15228721688E+01 -0.18554100224E+02  0.19581635562E+02  0.51100000000E-03 0.  1.
        -12    1    4    4    0    0 -0.42680607720E+01  0.48464610675E+01  0.67892274179E+01  0.93700659851E+01  0.00000000000E+00 0.  1.
</event>
<event>
 8    1  0.2500956E-006  0.9118800E+02  0.7816164E-02  0.1184000E+00
        -11   -1    0    0    0    0  0.00000000000E+00  0.00000000000E+00  0.45593999997E+02  0.45594000000E+02  0.51100000000E-03 0.  1.
         11   -1    0    0    0    0 -0.00000000000E+00 -0.00000000000E+00 -0.45593999997E+02  0.45594000000E+02  0.51100000000E-03 0. -1.
         23    2    1    2    0    0  0.88817841970E-15 -0.35527136788E-14 -0.35527136788E-14  0.91188000000E+02  0.91188000000E+02 0.  0.
    9900012    2    3    3    0    0 -0.39103132076E+01  0.19509836411E+02  0.30981524622E+02  0.54367093791E+02  0.40000021914E+02 0.  0.
         12    1    3    3    0    0  0.39103132076E+01 -0.19509836411E+02 -0.30981524622E+02  0.36820906209E+02  0.00000000000E+00 0. -1.
         11    1    4    4    0    0 -0.75264017327E+01 -0.43720628755E+00 -0.37214740953E+00  0.75482690953E+01  0.51100000000E-03 0. -1.
        -11    1    4    4    0    0 -0.73759485705E+01  0.22327852439E+02  0.21688420801E+02  0.31989454652E+02  0.51100000000E-03 0.  1.
         12    1    4    4    0    0  0.10992037096E+02 -0.23808097397E+01  0.96652512303E+01  0.14829370043E+02  0.00000000000E+00 0. -1.
</event>
<event>
 8    1  0.2500956E-006  0.9118800E+02  0.7816164E-02  0.1184000E+00
        -11   -1    0    0    0    0  0.00000000000E+00  0.00000000000E+00  0.45593999997E+02  0.45594000000E+02  0.51100000000E-03 0. -1.
         11   -1    0    0    0    0 -0.00000000000E+00 -0.00000000000E+00 -0.45593999997E+02  0.45594000000E+02  0.51100000000E-03 0.  1.
         23    2    1    2    0    0  0.00000000000E+00 -0.66613381478E-15 -0.35527136788E-14  0.91188000000E+02  0.91188000000E+02 0.  0.
    9900012    2    3    3    0    0  0.21952595747E+02 -0.18933651110E+01 -0.29500479494E+02  0.54367087710E+02  0.40000008052E+02 0.  0.
         12    1    3    3    0    0 -0.21952595747E+02  0.18933651110E+01  0.29500479494E+02  0.36820912290E+02  0.00000000000E+00 0. -1.
         11    1    4    4    0    0  0.49261731008E+01  0.38938649398E+01  0.66513257248E+01  0.91471033528E+01  0.51100000000E-03 0. -1.
        -11    1    4    4    0    0  0.15971217656E+02 -0.11673897714E+02 -0.20613702065E+02  0.28570691177E+02  0.51100000000E-03 0.  1.
         12    1    4    4    0    0  0.10552049898E+01  0.58866676632E+01 -0.15538103155E+02  0.16649293180E+02  0.00000000000E+00 0. -1.
</event>
<event>
 8    1  0.2500956E-006  0.9118800E+02  0.7816164E-02  0.1184000E+00
        -11   -1    0    0    0    0  0.00000000000E+00  0.00000000000E+00  0.45593999997E+02  0.45594000000E+02  0.51100000000E-03 0. -1.
         11   -1    0    0    0    0 -0.00000000000E+00 -0.00000000000E+00 -0.45593999997E+02  0.45594000000E+02  0.51100000000E-03 0.  1.
         23    2    1    2    0    0  0.17763568394E-14  0.71054273576E-14  0.00000000000E+00  0.91188000000E+02  0.91188000000E+02 0.  0.
    9900012    2    3    3    0    0 -0.67750085068E+00  0.32959042574E+02 -0.16401912062E+02  0.54367079125E+02  0.39999988480E+02 0.  0.
        -12    1    3    3    0    0  0.67750085068E+00 -0.32959042574E+02  0.16401912062E+02  0.36820920875E+02  0.00000000000E+00 0.  1.
         11    1    4    4    0    0  0.10376329182E+02  0.46258077531E+01 -0.80547041759E+01  0.13926398109E+02  0.51100000000E-03 0.  1.
        -11    1    4    4    0    0 -0.73043827914E+01 -0.19936644924E+01 -0.62378356594E+01  0.98101630999E+01  0.51100000000E-03 0. -1.
         12    1    4    4    0    0 -0.37494472415E+01  0.30326899314E+02 -0.21093722266E+01  0.30630517916E+02  0.00000000000E+00 0. -1.
</event>
<event>
 8    1  0.2500956E-006  0.9118800E+02  0.7816164E-02  0.1184000E+00
        -11   -1    0    0    0    0  0.00000000000E+00  0.00000000000E+00  0.45593999997E+02  0.45594000000E+02  0.51100000000E-03 0. -1.
         11   -1    0    0    0    0 -0.00000000000E+00 -0.00000000000E+00 -0.45593999997E+02  0.45594000000E+02  0.51100000000E-03 0.  1.
         23    2    1    2    0    0  0.35527136788E-14  0.00000000000E+00 -0.35527136788E-14  0.91188000000E+02  0.91188000000E+02 0.  0.
    9900012    2    3    3    0    0 -0.16040776712E+02  0.26758371258E+02 -0.19556595289E+02  0.54367117756E+02  0.40000076549E+02 0.  0.
         12    1    3    3    0    0  0.16040776712E+02 -0.26758371258E+02  0.19556595289E+02  0.36820882244E+02  0.00000000000E+00 0. -1.
         11    1    4    4    0    0  0.25751590349E+01 -0.42231355851E+01  0.35726453332E+01  0.61016483972E+01  0.51100000000E-03 0.  1.
        -11    1    4    4    0    0 -0.34669469324E+01  0.20354635211E+02 -0.29018480106E+01  0.20850698256E+02  0.51100000000E-03 0. -1.
        -12    1    4    4    0    0 -0.15148988814E+02  0.10626871632E+02 -0.20227392612E+02  0.27414771103E+02  0.00000000000E+00 0.  1.
</event>
<event>
 8    1  0.2500956E-006  0.9118800E+02  0.7816164E-02  0.1184000E+00
        -11   -1    0    0    0    0  0.00000000000E+00  0.00000000000E+00  0.45593999997E+02  0.45594000000E+02  0.51100000000E-03 0.  1.
         11   -1    0    0    0    0 -0.00000000000E+00 -0.00000000000E+00 -0.45593999997E+02  0.45594000000E+02  0.51100000000E-03 0. -1.
         23    2    1    2    0    0  0.00000000000E+00  0.00000000000E+00  0.00000000000E+00  0.91188000000E+02  0.91188000000E+02 0.  0.
    9900012    2    3    3    0    0  0.28365481896E+02  0.13073536627E+02 -0.19500334271E+02  0.54367068998E+02  0.39999965396E+02 0.  0.
        -12    1    3    3    0    0 -0.28365481896E+02 -0.13073536627E+02  0.19500334271E+02  0.36820931002E+02  0.00000000000E+00 0.  1.
         11    1    4    4    0    0  0.38888647533E+01  0.10678640383E+02 -0.25666438433E+02  0.28069960663E+02  0.51100000000E-03 0. -1.
        -11    1    4    4    0    0  0.11647145350E+01 -0.15304967203E+01  0.41558064720E+00  0.19676604622E+01  0.51100000000E-03 0.  1.
         12    1    4    4    0    0  0.23311902608E+02  0.39253929635E+01  0.57505235151E+01  0.24329447873E+02  0.00000000000E+00 0. -1.
</event>
<event>
 8    1  0.2500956E-006  0.9118800E+02  0.7816164E-02  0.1184000E+00
        -11   -1    0    0    0    0  0.00000000000E+00  0.00000000000E+00  0.45593999997E+02  0.45594000000E+02  0.51100000000E-03 0. -1.
         11   -1    0    0    0    0 -0.00000000000E+00 -0.00000000000E+00 -0.45593999997E+02  0.45594000000E+02  0.51100000000E-03 0.  1.
         23    2    1    2    0    0 -0.35527136788E-14  0.00000000000E+00  0.35527136788E-14  0.91188000000E+02  0.91188000000E+02 0.  0.
    9900012    2    3    3    0    0  0.28973451499E+02  0.47017480284E+01 -0.22230923429E+02  0.54367064613E+02  0.39999955397E+02 0.  0.
         12    1    3    3    0    0 -0.28973451499E+02 -0.47017480284E+01  0.22230923429E+02  0.36820935387E+02  0.00000000000E+00 0. -1.
         11    1    4    4    0    0  0.17313089491E+02  0.76161630882E+01 -0.11759782547E+02  0.22271988994E+02  0.51100000000E-03 0. -1.
        -11    1    4    4    0    0  0.13393345811E+02 -0.57377826733E+01 -0.18418443146E+02  0.23484950717E+02  0.51100000000E-03 0.  1.
         12    1    4    4    0    0 -0.17329838030E+01  0.28233676135E+01  0.79473022640E+01  0.86101249014E+01  0.00000000000E+00 0. -1.
</event>
<event>
 8    1  0.2500956E-006  0.9118800E+02  0.7816164E-02  0.1184000E+00
        -11   -1    0    0    0    0  0.00000000000E+00  0.00000000000E+00  0.45593999997E+02  0.45594000000E+02  0.51100000000E-03 0. -1.
         11   -1    0    0    0    0 -0.00000000000E+00 -0.00000000000E+00 -0.45593999997E+02  0.45594000000E+02  0.51100000000E-03 0.  1.
         23    2    1    2    0    0  0.00000000000E+00  0.00000000000E+00  0.00000000000E+00  0.91188000000E+02  0.91188000000E+02 0.  0.
    9900012    2    3    3    0    0  0.36035050010E+02 -0.23537496966E+01 -0.71911238053E+01  0.54367119668E+02  0.40000080907E+02 0.  0.
        -12    1    3    3    0    0 -0.36035050010E+02  0.23537496966E+01  0.71911238053E+01  0.36820880332E+02  0.00000000000E+00 0.  1.
         11    1    4    4    0    0 -0.35652512624E+01  0.57023966104E-01 -0.53945896449E+01  0.64665188467E+01  0.51100000000E-03 0. -1.
        -11    1    4    4    0    0 -0.11714668818E+01 -0.61592169537E+01 -0.29755814877E+01  0.69399116413E+01  0.51100000000E-03 0.  1.
         12    1    4    4    0    0  0.40771768154E+02  0.37484432909E+01  0.11790473273E+01  0.40960689180E+02  0.00000000000E+00 0. -1.
</event>
<event>
 8    1  0.2500956E-006  0.9118800E+02  0.7816164E-02  0.1184000E+00
        -11   -1    0    0    0    0  0.00000000000E+00  0.00000000000E+00  0.45593999997E+02  0.45594000000E+02  0.51100000000E-03 0. -1.
         11   -1    0    0    0    0 -0.00000000000E+00 -0.00000000000E+00 -0.45593999997E+02  0.45594000000E+02  0.51100000000E-03 0.  1.
         23    2    1    2    0    0  0.00000000000E+00  0.35527136788E-14  0.35527136788E-14  0.91188000000E+02  0.91188000000E+02 0.  0.
    9900012    2    3    3    0    0  0.28374948826E+02 -0.16010306641E+02 -0.17155540212E+02  0.54367079322E+02  0.39999988929E+02 0.  0.
         12    1    3    3    0    0 -0.28374948826E+02  0.16010306641E+02  0.17155540212E+02  0.36820920678E+02  0.00000000000E+00 0. -1.
         11    1    4    4    0    0  0.10584642938E+02 -0.62286795881E+01  0.54619420825E+01  0.13441128194E+02  0.51100000000E-03 0. -1.
        -11    1    4    4    0    0  0.17759905627E+02  0.42759805612E+01 -0.19111686902E+02  0.26437753954E+02  0.51100000000E-03 0.  1.
        -12    1    4    4    0    0  0.30400261160E-01 -0.14057607614E+02 -0.35057953923E+01  0.14488197174E+02  0.00000000000E+00 0.  1.
</event>
<event>
 8    1  0.2500956E-006  0.9118800E+02  0.7816164E-02  0.1184000E+00
        -11   -1    0    0    0    0  0.00000000000E+00  0.00000000000E+00  0.45593999997E+02  0.45594000000E+02  0.51100000000E-03 0.  1.
         11   -1    0    0    0    0 -0.00000000000E+00 -0.00000000000E+00 -0.45593999997E+02  0.45594000000E+02  0.51100000000E-03 0. -1.
         23    2    1    2    0    0  0.00000000000E+00 -0.35527136788E-14  0.00000000000E+00  0.91188000000E+02  0.91188000000E+02 0.  0.
    9900012    2    3    3    0    0 -0.54222041159E+01 -0.30727159863E+02  0.19550460941E+02  0.54367093252E+02  0.40000020688E+02 0.  0.
        -12    1    3    3    0    0  0.54222041159E+01  0.30727159863E+02 -0.19550460941E+02  0.36820906748E+02  0.00000000000E+00 0.  1.
         11    1    4    4    0    0 -0.34895539908E+01 -0.64054922787E+01  0.20597279415E+02  0.21850749139E+02  0.51100000000E-03 0. -1.
        -11    1    4    4    0    0  0.11615293277E+00  0.61704885420E+00 -0.68096888170E+01  0.68385746204E+01  0.51100000000E-03 0.  1.
         12    1    4    4    0    0 -0.20488030579E+01 -0.24938716438E+02  0.57628703436E+01  0.25677769493E+02  0.00000000000E+00 0. -1.
</event>
<event>
 8    1  0.2500956E-006  0.9118800E+02  0.7816164E-02  0.1184000E+00
        -11   -1    0    0    0    0  0.00000000000E+00  0.00000000000E+00  0.45593999997E+02  0.45594000000E+02  0.51100000000E-03 0. -1.
         11   -1    0    0    0    0 -0.00000000000E+00 -0.00000000000E+00 -0.45593999997E+02  0.45594000000E+02  0.51100000000E-03 0.  1.
         23    2    1    2    0    0  0.35527136788E-14  0.88817841970E-15  0.00000000000E+00  0.91188000000E+02  0.91188000000E+02 0.  0.
    9900012    2    3    3    0    0 -0.28901926646E+02 -0.61288395438E+01  0.21974860772E+02  0.54367101804E+02  0.40000040183E+02 0.  0.
        -12    1    3    3    0    0  0.28901926646E+02  0.61288395438E+01 -0.21974860772E+02  0.36820898196E+02  0.00000000000E+00 0.  1.
         11    1    4    4    0    0 -0.34022765266E+02 -0.57077316393E+01  0.18365507279E+02  0.39082203299E+02  0.51100000000E-03 0. -1.
        -11    1    4    4    0    0  0.34147455776E+01  0.51836811271E+01  0.62943484169E+01  0.88402409267E+01  0.51100000000E-03 0.  1.
         12    1    4    4    0    0  0.17060930423E+01 -0.56047890316E+01 -0.26849949245E+01  0.64446575784E+01  0.00000000000E+00 0. -1.
</event>
<event>
 8    1  0.2500956E-006  0.9118800E+02  0.7816164E-02  0.1184000E+00
        -11   -1    0    0    0    0  0.00000000000E+00  0.00000000000E+00  0.45593999997E+02  0.45594000000E+02  0.51100000000E-03 0.  1.
         11   -1    0    0    0    0 -0.00000000000E+00 -0.00000000000E+00 -0.45593999997E+02  0.45594000000E+02  0.51100000000E-03 0. -1.
         23    2    1    2    0    0 -0.35527136788E-14 -0.35527136788E-14  0.35527136788E-14  0.91188000000E+02  0.91188000000E+02 0.  0.
    9900012    2    3    3    0    0  0.16357226354E+02  0.26566291547E+02 -0.19556423564E+02  0.54367076557E+02  0.39999982627E+02 0.  0.
        -12    1    3    3    0    0 -0.16357226354E+02 -0.26566291547E+02  0.19556423564E+02  0.36820923443E+02  0.00000000000E+00 0.  1.
         11    1    4    4    0    0 -0.10122786799E+02  0.17119048349E+02 -0.10590840672E+02  0.22532166681E+02  0.51100000000E-03 0. -1.
        -11    1    4    4    0    0  0.15862290617E+02  0.76641461292E-01 -0.18011904014E+01  0.15964411190E+02  0.51100000000E-03 0.  1.
         12    1    4    4    0    0  0.10617722536E+02  0.93706017370E+01 -0.71643924911E+01  0.15870498686E+02  0.00000000000E+00 0. -1.
</event>
<event>
 8    1  0.2500956E-006  0.9118800E+02  0.7816164E-02  0.1184000E+00
        -11   -1    0    0    0    0  0.00000000000E+00  0.00000000000E+00  0.45593999997E+02  0.45594000000E+02  0.51100000000E-03 0.  1.
         11   -1    0    0    0    0 -0.00000000000E+00 -0.00000000000E+00 -0.45593999997E+02  0.45594000000E+02  0.51100000000E-03 0. -1.
         23    2    1    2    0    0  0.00000000000E+00 -0.35527136788E-14  0.00000000000E+00  0.91188000000E+02  0.91188000000E+02 0.  0.
    9900012    2    3    3    0    0 -0.24852154084E+02 -0.20440787908E+02 -0.17897586996E+02  0.54367095703E+02  0.40000026275E+02 0.  0.
        -12    1    3    3    0    0  0.24852154084E+02  0.20440787908E+02  0.17897586996E+02  0.36820904297E+02  0.00000000000E+00 0.  1.
         11    1    4    4    0    0 -0.66675767165E+01 -0.18241605276E+02 -0.28289834958E+01  0.19626917491E+02  0.51100000000E-03 0. -1.
        -11    1    4    4    0    0 -0.40371948798E+01  0.88478206414E+01  0.20469188759E+01  0.99384480552E+01  0.51100000000E-03 0.  1.
        -12    1    4    4    0    0 -0.14147382488E+02 -0.11047003273E+02 -0.17115522376E+02  0.24801730157E+02  0.00000000000E+00 0.  1.
</event>
<event>
 8    1  0.2500956E-006  0.9118800E+02  0.7816164E-02  0.1184000E+00
        -11   -1    0    0    0    0  0.00000000000E+00  0.00000000000E+00  0.45593999997E+02  0.45594000000E+02  0.51100000000E-03 0.  1.
         11   -1    0    0    0    0 -0.00000000000E+00 -0.00000000000E+00 -0.45593999997E+02  0.45594000000E+02  0.51100000000E-03 0. -1.
         23    2    1    2    0    0  0.00000000000E+00  0.35527136788E-14  0.00000000000E+00  0.91188000000E+02  0.91188000000E+02 0.  0.
    9900012    2    3    3    0    0  0.17520854539E+02  0.29833190621E+02 -0.12600824596E+02  0.54367076778E+02  0.39999983131E+02 0.  0.
        -12    1    3    3    0    0 -0.17520854539E+02 -0.29833190621E+02  0.12600824596E+02  0.36820923222E+02  0.00000000000E+00 0.  1.
         11    1    4    4    0    0  0.92354152044E+01  0.73998253256E+01 -0.13800950413E+02  0.18180113900E+02  0.51100000000E-03 0. -1.
        -11    1    4    4    0    0 -0.34786231340E+01 -0.42386500134E+01 -0.37164351056E+01  0.66241122424E+01  0.51100000000E-03 0.  1.
         12    1    4    4    0    0  0.11764062468E+02  0.26672015309E+02  0.49165609230E+01  0.29562850636E+02  0.00000000000E+00 0. -1.
</event>
<event>
 8    1  0.2500956E-006  0.9118800E+02  0.7816164E-02  0.1184000E+00
        -11   -1    0    0    0    0  0.00000000000E+00  0.00000000000E+00  0.45593999997E+02  0.45594000000E+02  0.51100000000E-03 0.  1.
         11   -1    0    0    0    0 -0.00000000000E+00 -0.00000000000E+00 -0.45593999997E+02  0.45594000000E+02  0.51100000000E-03 0. -1.
         23    2    1    2    0    0  0.00000000000E+00  0.88817841970E-15  0.00000000000E+00  0.91188000000E+02  0.91188000000E+02 0.  0.
    9900012    2    3    3    0    0 -0.32427678331E+02  0.63510581031E+01 -0.16244620525E+02  0.54367109775E+02  0.40000058354E+02 0.  0.
        -12    1    3    3    0    0  0.32427678331E+02 -0.63510581031E+01  0.16244620525E+02  0.36820890225E+02  0.00000000000E+00 0.  1.
         11    1    4    4    0    0 -0.88316658441E+01  0.88464786038E+00 -0.13765902556E+02  0.16379285603E+02  0.51100000000E-03 0. -1.
        -11    1    4    4    0    0 -0.74645755483E+01  0.14715923665E+02  0.59908810073E+01  0.17554741608E+02  0.51100000000E-03 0.  1.
        -12    1    4    4    0    0 -0.16131436939E+02 -0.92495134218E+01 -0.84695989759E+01  0.20433082564E+02  0.00000000000E+00 0.  1.
</event>
<event>
 8    1  0.2500956E-006  0.9118800E+02  0.7816164E-02  0.1184000E+00
        -11   -1    0    0    0    0  0.00000000000E+00  0.00000000000E+00  0.45593999997E+02  0.45594000000E+02  0.51100000000E-03 0.  1.
         11   -1    0    0    0    0 -0.00000000000E+00 -0.00000000000E+00 -0.45593999997E+02  0.45594000000E+02  0.51100000000E-03 0. -1.
         23    2    1    2    0    0  0.00000000000E+00  0.00000000000E+00  0.00000000000E+00  0.91188000000E+02  0.91188000000E+02 0.  0.
    9900012    2    3    3    0    0  0.28244932622E+02  0.71287921297E+01  0.22520721316E+02  0.54367098536E+02  0.40000032733E+02 0.  0.
         12    1    3    3    0    0 -0.28244932622E+02 -0.71287921297E+01 -0.22520721316E+02  0.36820901464E+02  0.00000000000E+00 0. -1.
         11    1    4    4    0    0 -0.15250388812E+01  0.60021591565E+01 -0.13948783504E+01  0.63480189037E+01  0.51100000000E-03 0. -1.
        -11    1    4    4    0    0  0.33904481584E+02  0.66679632479E+01  0.21493395883E+02  0.40693263228E+02  0.51100000000E-03 0.  1.
         12    1    4    4    0    0 -0.41345100807E+01 -0.55413302747E+01  0.24222037828E+01  0.73258164041E+01  0.00000000000E+00 0. -1.
</event>
<event>
 8    1  0.2500956E-006  0.9118800E+02  0.7816164E-02  0.1184000E+00
        -11   -1    0    0    0    0  0.00000000000E+00  0.00000000000E+00  0.45593999997E+02  0.45594000000E+02  0.51100000000E-03 0.  1.
         11   -1    0    0    0    0 -0.00000000000E+00 -0.00000000000E+00 -0.45593999997E+02  0.45594000000E+02  0.51100000000E-03 0. -1.
         23    2    1    2    0    0  0.00000000000E+00  0.00000000000E+00  0.66613381478E-15  0.91188000000E+02  0.91188000000E+02 0.  0.
    9900012    2    3    3    0    0  0.40724264673E+01  0.36572433585E+02 -0.12833297520E+01  0.54367156842E+02  0.40000165652E+02 0.  0.
        -12    1    3    3    0    0 -0.40724264673E+01 -0.36572433585E+02  0.12833297520E+01  0.36820843158E+02  0.00000000000E+00 0.  1.
         11    1    4    4    0    0  0.24175964008E+01 -0.11471375942E+01  0.15374738796E+01  0.30861826273E+01  0.51100000000E-03 0. -1.
        -11    1    4    4    0    0  0.59045922274E+01  0.12274673318E+02  0.14743066706E+02  0.20072115748E+02  0.51100000000E-03 0.  1.
         12    1    4    4    0    0 -0.42497621609E+01  0.25444897861E+02 -0.17563870337E+02  0.31208858467E+02  0.00000000000E+00 0. -1.
</event>
<event>
 8    1  0.2500956E-006  0.9118800E+02  0.7816164E-02  0.1184000E+00
        -11   -1    0    0    0    0  0.00000000000E+00  0.00000000000E+00  0.45593999997E+02  0.45594000000E+02  0.51100000000E-03 0.  1.
         11   -1    0    0    0    0 -0.00000000000E+00 -0.00000000000E+00 -0.45593999997E+02  0.45594000000E+02  0.51100000000E-03 0. -1.
         23    2    1    2    0    0  0.00000000000E+00  0.17763568394E-14  0.00000000000E+00  0.91188000000E+02  0.91188000000E+02 0.  0.
    9900012    2    3    3    0    0 -0.49917607906E+01 -0.94760888033E+01  0.35228743826E+02  0.54367104759E+02  0.40000046920E+02 0.  0.
         12    1    3    3    0    0  0.49917607906E+01  0.94760888033E+01 -0.35228743826E+02  0.36820895241E+02  0.00000000000E+00 0. -1.
         11    1    4    4    0    0 -0.91441386404E+01  0.11299952738E+02  0.10605800643E+02  0.17994088220E+02  0.51100000000E-03 0. -1.
        -11    1    4    4    0    0 -0.51161400927E+01 -0.14422776485E+01  0.53896975664E+01  0.75699335784E+01  0.51100000000E-03 0.  1.
         12    1    4    4    0    0  0.92685179424E+01 -0.19333763892E+02  0.19233245617E+02  0.28803082961E+02  0.00000000000E+00 0. -1.
</event>
<event>
 8    1  0.2500956E-006  0.9118800E+02  0.7816164E-02  0.1184000E+00
        -11   -1    0    0    0    0  0.00000000000E+00  0.00000000000E+00  0.45593999997E+02  0.45594000000E+02  0.51100000000E-03 0.  1.
         11   -1    0    0    0    0 -0.00000000000E+00 -0.00000000000E+00 -0.45593999997E+02  0.45594000000E+02  0.51100000000E-03 0. -1.
         23    2    1    2    0    0 -0.35527136788E-14  0.00000000000E+00  0.00000000000E+00  0.91188000000E+02  0.91188000000E+02 0.  0.
    9900012    2    3    3    0    0  0.20196773942E+02 -0.22252888493E+02  0.21276281710E+02  0.54367069982E+02  0.39999967639E+02 0.  0.
         12    1    3    3    0    0 -0.20196773942E+02  0.22252888493E+02 -0.21276281710E+02  0.36820930018E+02  0.00000000000E+00 0. -1.
         11    1    4    4    0    0 -0.59614467228E+01  0.30718742040E+00 -0.22509028676E+01  0.63796375383E+01  0.51100000000E-03 0. -1.
        -11    1    4    4    0    0  0.63914364862E+01 -0.21033546253E+02  0.13020184012E+02  0.25549671628E+02  0.51100000000E-03 0.  1.
         12    1    4    4    0    0  0.19766784178E+02 -0.15265296607E+01  0.10507000565E+02  0.22437760816E+02  0.00000000000E+00 0. -1.
</event>
<event>
 8    1  0.2500956E-006  0.9118800E+02  0.7816164E-02  0.1184000E+00
        -11   -1    0    0    0    0  0.00000000000E+00  0.00000000000E+00  0.45593999997E+02  0.45594000000E+02  0.51100000000E-03 0.  1.
         11   -1    0    0    0    0 -0.00000000000E+00 -0.00000000000E+00 -0.45593999997E+02  0.45594000000E+02  0.51100000000E-03 0. -1.
         23    2    1    2    0    0  0.17763568394E-14  0.00000000000E+00  0.00000000000E+00  0.91188000000E+02  0.91188000000E+02 0.  0.
    9900012    2    3    3    0    0 -0.15992122739E+02  0.11680117641E+02  0.31041994858E+02  0.54367101279E+02  0.40000038986E+02 0.  0.
         12    1    3    3    0    0  0.15992122739E+02 -0.11680117641E+02 -0.31041994858E+02  0.36820898721E+02  0.00000000000E+00 0. -1.
         11    1    4    4    0    0  0.82101186534E+01 -0.76731743458E+00  0.25565717570E+01  0.86331271135E+01  0.51100000000E-03 0. -1.
        -11    1    4    4    0    0  0.90347909046E+00 -0.37712083523E+01  0.96633398195E+01  0.10412416801E+02  0.51100000000E-03 0.  1.
        -12    1    4    4    0    0 -0.25105720483E+02  0.16218643428E+02  0.18822083282E+02  0.35321557365E+02  0.00000000000E+00 0.  1.
</event>
<event>
 8    1  0.2500956E-006  0.9118800E+02  0.7816164E-02  0.1184000E+00
        -11   -1    0    0    0    0  0.00000000000E+00  0.00000000000E+00  0.45593999997E+02  0.45594000000E+02  0.51100000000E-03 0. -1.
         11   -1    0    0    0    0 -0.00000000000E+00 -0.00000000000E+00 -0.45593999997E+02  0.45594000000E+02  0.51100000000E-03 0.  1.
         23    2    1    2    0    0  0.35527136788E-14  0.00000000000E+00  0.35527136788E-14  0.91188000000E+02  0.91188000000E+02 0.  0.
    9900012    2    3    3    0    0  0.25985527536E+02  0.10610377422E+02 -0.23831703364E+02  0.54367111423E+02  0.40000062112E+02 0.  0.
         12    1    3    3    0    0 -0.25985527536E+02 -0.10610377422E+02  0.23831703364E+02  0.36820888577E+02  0.00000000000E+00 0. -1.
         11    1    4    4    0    0  0.18172721705E+02  0.12157923042E+02 -0.19532505535E+01  0.21951721911E+02  0.51100000000E-03 0. -1.
        -11    1    4    4    0    0 -0.22269160570E+01  0.88720733446E+01 -0.60339855433E+01  0.10958185176E+02  0.51100000000E-03 0.  1.
         12    1    4    4    0    0  0.10039721888E+02 -0.10419618965E+02 -0.15844467267E+02  0.21457204336E+02  0.00000000000E+00 0. -1.
</event>
<event>
 8    1  0.2500956E-006  0.9118800E+02  0.7816164E-02  0.1184000E+00
        -11   -1    0    0    0    0  0.00000000000E+00  0.00000000000E+00  0.45593999997E+02  0.45594000000E+02  0.51100000000E-03 0. -1.
         11   -1    0    0    0    0 -0.00000000000E+00 -0.00000000000E+00 -0.45593999997E+02  0.45594000000E+02  0.51100000000E-03 0.  1.
         23    2    1    2    0    0  0.00000000000E+00 -0.88817841970E-15  0.17763568394E-14  0.91188000000E+02  0.91188000000E+02 0.  0.
    9900012    2    3    3    0    0 -0.34395312220E+02  0.66211004720E+01  0.11353554525E+02  0.54367086452E+02  0.40000005184E+02 0.  0.
        -12    1    3    3    0    0  0.34395312220E+02 -0.66211004720E+01 -0.11353554525E+02  0.36820913548E+02  0.00000000000E+00 0.  1.
         11    1    4    4    0    0  0.46521974202E-01 -0.26317274624E+01 -0.39492992702E+01  0.47460634970E+01  0.51100000000E-03 0.  1.
        -11    1    4    4    0    0 -0.17821859087E+02  0.20131161663E+02  0.53903733253E+01  0.27421496240E+02  0.51100000000E-03 0. -1.
         12    1    4    4    0    0 -0.16619975108E+02 -0.10878333729E+02  0.99124804694E+01  0.22199526715E+02  0.00000000000E+00 0. -1.
</event>
<event>
 8    1  0.2500956E-006  0.9118800E+02  0.7816164E-02  0.1184000E+00
        -11   -1    0    0    0    0  0.00000000000E+00  0.00000000000E+00  0.45593999997E+02  0.45594000000E+02  0.51100000000E-03 0. -1.
         11   -1    0    0    0    0 -0.00000000000E+00 -0.00000000000E+00 -0.45593999997E+02  0.45594000000E+02  0.51100000000E-03 0.  1.
         23    2    1    2    0    0 -0.88817841970E-15  0.00000000000E+00 -0.35527136788E-14  0.91188000000E+02  0.91188000000E+02 0.  0.
    9900012    2    3    3    0    0  0.53631514920E+01  0.31735358300E+02  0.17885223933E+02  0.54367114683E+02  0.40000069544E+02 0.  0.
        -12    1    3    3    0    0 -0.53631514920E+01 -0.31735358300E+02 -0.17885223933E+02  0.36820885317E+02  0.00000000000E+00 0.  1.
         11    1    4    4    0    0  0.14469652596E+02  0.25938490048E+02  0.26376153918E+02  0.39722507575E+02  0.51100000000E-03 0. -1.
        -11    1    4    4    0    0 -0.52487446640E+01  0.36921715701E+01 -0.18451587675E+01  0.66772795800E+01  0.51100000000E-03 0.  1.
         12    1    4    4    0    0 -0.38577564403E+01  0.21046966815E+01 -0.66457712174E+01  0.79673275286E+01  0.00000000000E+00 0. -1.
</event>
<event>
 8    1  0.2500956E-006  0.9118800E+02  0.7816164E-02  0.1184000E+00
        -11   -1    0    0    0    0  0.00000000000E+00  0.00000000000E+00  0.45593999997E+02  0.45594000000E+02  0.51100000000E-03 0.  1.
         11   -1    0    0    0    0 -0.00000000000E+00 -0.00000000000E+00 -0.45593999997E+02  0.45594000000E+02  0.51100000000E-03 0. -1.
         23    2    1    2    0    0  0.00000000000E+00  0.88817841970E-15  0.00000000000E+00  0.91188000000E+02  0.91188000000E+02 0.  0.
    9900012    2    3    3    0    0 -0.33491550435E+02 -0.34389138082E+01 -0.14908714744E+02  0.54367084014E+02  0.39999999628E+02 0.  0.
        -12    1    3    3    0    0  0.33491550435E+02  0.34389138082E+01  0.14908714744E+02  0.36820915986E+02  0.00000000000E+00 0.  1.
         11    1    4    4    0    0 -0.59106342808E+01 -0.11377200328E+01  0.60423117643E+01  0.85287476333E+01  0.51100000000E-03 0. -1.
        -11    1    4    4    0    0  0.19124732504E+01 -0.95716212994E+01 -0.87318233869E+01  0.13096496789E+02  0.51100000000E-03 0.  1.
         12    1    4    4    0    0 -0.29493389404E+02  0.72704275240E+01 -0.12219203121E+02  0.32741839592E+02  0.00000000000E+00 0. -1.
</event>
<event>
 8    1  0.2500956E-006  0.9118800E+02  0.7816164E-02  0.1184000E+00
        -11   -1    0    0    0    0  0.00000000000E+00  0.00000000000E+00  0.45593999997E+02  0.45594000000E+02  0.51100000000E-03 0.  1.
         11   -1    0    0    0    0 -0.00000000000E+00 -0.00000000000E+00 -0.45593999997E+02  0.45594000000E+02  0.51100000000E-03 0. -1.
         23    2    1    2    0    0  0.00000000000E+00 -0.35527136788E-14  0.00000000000E+00  0.91188000000E+02  0.91188000000E+02 0.  0.
    9900012    2    3    3    0    0 -0.94541834175E+01  0.31166734923E+02 -0.17176509890E+02  0.54367089611E+02  0.40000012386E+02 0.  0.
        -12    1    3    3    0    0  0.94541834175E+01 -0.31166734923E+02  0.17176509890E+02  0.36820910389E+02  0.00000000000E+00 0.  1.
         11    1    4    4    0    0  0.77861502755E+01  0.28428298358E+01  0.29571063891E+01  0.88005849832E+01  0.51100000000E-03 0. -1.
        -11    1    4    4    0    0 -0.38640466381E+01  0.25928799296E+02 -0.81622932922E+01  0.27456447720E+02  0.51100000000E-03 0.  1.
         12    1    4    4    0    0 -0.13376287055E+02  0.23951057911E+01 -0.11971322987E+02  0.18110056907E+02  0.00000000000E+00 0. -1.
</event>
<event>
 8    1  0.2500956E-006  0.9118800E+02  0.7816164E-02  0.1184000E+00
        -11   -1    0    0    0    0  0.00000000000E+00  0.00000000000E+00  0.45593999997E+02  0.45594000000E+02  0.51100000000E-03 0. -1.
         11   -1    0    0    0    0 -0.00000000000E+00 -0.00000000000E+00 -0.45593999997E+02  0.45594000000E+02  0.51100000000E-03 0.  1.
         23    2    1    2    0    0  0.14432899320E-14  0.00000000000E+00  0.35527136788E-14  0.91188000000E+02  0.91188000000E+02 0.  0.
    9900012    2    3    3    0    0 -0.97866599162E+00 -0.24303551377E+02  0.27643426297E+02  0.54367089988E+02  0.40000013245E+02 0.  0.
        -12    1    3    3    0    0  0.97866599162E+00  0.24303551377E+02 -0.27643426297E+02  0.36820910012E+02  0.00000000000E+00 0.  1.
         11    1    4    4    0    0  0.10347289136E+02  0.42497662378E+01  0.85352744861E+01  0.14070458995E+02  0.51100000000E-03 0. -1.
        -11    1    4    4    0    0 -0.59552017219E+01 -0.40127618744E+01 -0.20330028752E+01  0.74632289500E+01  0.51100000000E-03 0.  1.
         12    1    4    4    0    0 -0.53707534053E+01 -0.24540555741E+02  0.21141154686E+02  0.32833402042E+02  0.00000000000E+00 0. -1.
</event>
<event>
 8    1  0.2500956E-006  0.9118800E+02  0.7816164E-02  0.1184000E+00
        -11   -1    0    0    0    0  0.00000000000E+00  0.00000000000E+00  0.45593999997E+02  0.45594000000E+02  0.51100000000E-03 0. -1.
         11   -1    0    0    0    0 -0.00000000000E+00 -0.00000000000E+00 -0.45593999997E+02  0.45594000000E+02  0.51100000000E-03 0.  1.
         23    2    1    2    0    0 -0.33306690739E-15  0.00000000000E+00  0.71054273576E-14  0.91188000000E+02  0.91188000000E+02 0.  0.
    9900012    2    3    3    0    0 -0.58514665448E+00  0.13660803980E+02  0.34188016076E+02  0.54367076530E+02  0.39999982565E+02 0.  0.
        -12    1    3    3    0    0  0.58514665448E+00 -0.13660803980E+02 -0.34188016076E+02  0.36820923470E+02  0.00000000000E+00 0.  1.
         11    1    4    4    0    0 -0.13910302580E+01  0.12936282425E+02  0.37508371457E+02  0.39700885353E+02  0.51100000000E-03 0. -1.
        -11    1    4    4    0    0  0.55356109037E+01  0.27913857729E+01  0.26775611029E+01  0.67530849492E+01  0.51100000000E-03 0.  1.
        -12    1    4    4    0    0 -0.47297273002E+01 -0.20668642172E+01 -0.59979164842E+01  0.79131062281E+01  0.00000000000E+00 0.  1.
</event>
<event>
 8    1  0.2500956E-006  0.9118800E+02  0.7816164E-02  0.1184000E+00
        -11   -1    0    0    0    0  0.00000000000E+00  0.00000000000E+00  0.45593999997E+02  0.45594000000E+02  0.51100000000E-03 0.  1.
         11   -1    0    0    0    0 -0.00000000000E+00 -0.00000000000E+00 -0.45593999997E+02  0.45594000000E+02  0.51100000000E-03 0. -1.
         23    2    1    2    0    0  0.00000000000E+00  0.00000000000E+00  0.00000000000E+00  0.91188000000E+02  0.91188000000E+02 0.  0.
    9900012    2    3    3    0    0  0.85878025147E+01 -0.35742711949E+02  0.21183761202E+01  0.54367091173E+02  0.40000015946E+02 0.  0.
        -12    1    3    3    0    0 -0.85878025147E+01  0.35742711949E+02 -0.21183761202E+01  0.36820908827E+02  0.00000000000E+00 0.  1.
         11    1    4    4    0    0  0.12438249621E+02 -0.51786067304E+01  0.45513127218E+01  0.14221197877E+02  0.51100000000E-03 0. -1.
        -11    1    4    4    0    0  0.38163463690E+01 -0.18908284558E+01  0.76865356839E+01  0.87876369371E+01  0.51100000000E-03 0.  1.
         12    1    4    4    0    0 -0.76667934756E+01 -0.28673276763E+02 -0.10119472285E+02  0.31358256358E+02  0.00000000000E+00 0. -1.
</event>
<event>
 8    1  0.2500956E-006  0.9118800E+02  0.7816164E-02  0.1184000E+00
        -11   -1    0    0    0    0  0.00000000000E+00  0.00000000000E+00  0.45593999997E+02  0.45594000000E+02  0.51100000000E-03 0.  1.
         11   -1    0    0    0    0 -0.00000000000E+00 -0.00000000000E+00 -0.45593999997E+02  0.45594000000E+02  0.51100000000E-03 0. -1.
         23    2    1    2    0    0 -0.35527136788E-14  0.35527136788E-14  0.00000000000E+00  0.91188000000E+02  0.91188000000E+02 0.  0.
    9900012    2    3    3    0    0  0.27355402714E+02 -0.24045874286E+02 -0.54091308038E+01  0.54367070845E+02  0.39999969605E+02 0.  0.
        -12    1    3    3    0    0 -0.27355402714E+02  0.24045874286E+02  0.54091308038E+01  0.36820929155E+02  0.00000000000E+00 0.  1.
         11    1    4    4    0    0  0.68644159452E+01 -0.65562830922E+01 -0.27200279335E+01  0.98743914483E+01  0.51100000000E-03 0. -1.
        -11    1    4    4    0    0  0.15468815865E+02 -0.13542444019E+01  0.13879191310E+02  0.20826670254E+02  0.51100000000E-03 0.  1.
         12    1    4    4    0    0  0.50221709033E+01 -0.16135346792E+02 -0.16568294181E+02  0.23666009142E+02  0.00000000000E+00 0. -1.
</event>
<event>
 8    1  0.2500956E-006  0.9118800E+02  0.7816164E-02  0.1184000E+00
        -11   -1    0    0    0    0  0.00000000000E+00  0.00000000000E+00  0.45593999997E+02  0.45594000000E+02  0.51100000000E-03 0.  1.
         11   -1    0    0    0    0 -0.00000000000E+00 -0.00000000000E+00 -0.45593999997E+02  0.45594000000E+02  0.51100000000E-03 0. -1.
         23    2    1    2    0    0 -0.35527136788E-14  0.66613381478E-15  0.14210854715E-13  0.91188000000E+02  0.91188000000E+02 0.  0.
    9900012    2    3    3    0    0 -0.16153319577E+02 -0.14439891739E+01  0.33056997616E+02  0.54367082989E+02  0.39999997291E+02 0.  0.
         12    1    3    3    0    0  0.16153319577E+02  0.14439891739E+01 -0.33056997616E+02  0.36820917011E+02  0.00000000000E+00 0. -1.
         11    1    4    4    0    0 -0.30033978635E+01  0.44293682455E+01  0.61803551003E+01  0.81753587816E+01  0.51100000000E-03 0. -1.
        -11    1    4    4    0    0 -0.10190421810E+02 -0.55313414134E+01  0.35353638860E+02  0.37206453948E+02  0.51100000000E-03 0.  1.
         12    1    4    4    0    0 -0.29594999037E+01 -0.34201600603E+00 -0.84769963438E+01  0.89852702598E+01  0.00000000000E+00 0. -1.
</event>
<event>
 8    1  0.2500956E-006  0.9118800E+02  0.7816164E-02  0.1184000E+00
        -11   -1    0    0    0    0  0.00000000000E+00  0.00000000000E+00  0.45593999997E+02  0.45594000000E+02  0.51100000000E-03 0. -1.
         11   -1    0    0    0    0 -0.00000000000E+00 -0.00000000000E+00 -0.45593999997E+02  0.45594000000E+02  0.51100000000E-03 0.  1.
         23    2    1    2    0    0 -0.35527136788E-14  0.88817841970E-15  0.00000000000E+00  0.91188000000E+02  0.91188000000E+02 0.  0.
    9900012    2    3    3    0    0  0.25535475896E+02  0.77542064000E+01  0.25369085099E+02  0.54367099347E+02  0.40000034581E+02 0.  0.
        -12    1    3    3    0    0 -0.25535475896E+02 -0.77542064000E+01 -0.25369085099E+02  0.36820900653E+02  0.00000000000E+00 0.  1.
         11    1    4    4    0    0  0.19788884807E+02 -0.17349066776E+01  0.47005274655E+01  0.20413349108E+02  0.51100000000E-03 0. -1.
        -11    1    4    4    0    0 -0.46120947818E+01  0.12566974482E+02  0.37908436569E+01  0.13912970991E+02  0.51100000000E-03 0.  1.
         12    1    4    4    0    0  0.10358685871E+02 -0.30778614045E+01  0.16877713976E+02  0.20040779248E+02  0.00000000000E+00 0. -1.
</event>
<event>
 8    1  0.2500956E-006  0.9118800E+02  0.7816164E-02  0.1184000E+00
        -11   -1    0    0    0    0  0.00000000000E+00  0.00000000000E+00  0.45593999997E+02  0.45594000000E+02  0.51100000000E-03 0. -1.
         11   -1    0    0    0    0 -0.00000000000E+00 -0.00000000000E+00 -0.45593999997E+02  0.45594000000E+02  0.51100000000E-03 0.  1.
         23    2    1    2    0    0  0.00000000000E+00 -0.35527136788E-14  0.00000000000E+00  0.91188000000E+02  0.91188000000E+02 0.  0.
    9900012    2    3    3    0    0  0.64625940056E+01  0.26265799379E+02  0.24982437733E+02  0.54367088369E+02  0.40000009554E+02 0.  0.
        -12    1    3    3    0    0 -0.64625940056E+01 -0.26265799379E+02 -0.24982437733E+02  0.36820911631E+02  0.00000000000E+00 0.  1.
         11    1    4    4    0    0  0.72148056424E+01  0.11551751838E+02  0.11610705760E+02  0.17897063432E+02  0.51100000000E-03 0. -1.
        -11    1    4    4    0    0 -0.56200832466E+01  0.13277668409E+02  0.22091802330E+02  0.26380476579E+02  0.51100000000E-03 0.  1.
        -12    1    4    4    0    0  0.48678716097E+01  0.14363791317E+01 -0.87200703577E+01  0.10089548358E+02  0.00000000000E+00 0.  1.
</event>
<event>
 8    1  0.2500956E-006  0.9118800E+02  0.7816164E-02  0.1184000E+00
        -11   -1    0    0    0    0  0.00000000000E+00  0.00000000000E+00  0.45593999997E+02  0.45594000000E+02  0.51100000000E-03 0. -1.
         11   -1    0    0    0    0 -0.00000000000E+00 -0.00000000000E+00 -0.45593999997E+02  0.45594000000E+02  0.51100000000E-03 0.  1.
         23    2    1    2    0    0  0.44408920985E-15  0.17763568394E-14  0.00000000000E+00  0.91188000000E+02  0.91188000000E+02 0.  0.
    9900012    2    3    3    0    0 -0.33091846568E+01  0.12434352408E+02  0.34499519262E+02  0.54367073175E+02  0.39999974917E+02 0.  0.
        -12    1    3    3    0    0  0.33091846568E+01 -0.12434352408E+02 -0.34499519262E+02  0.36820926825E+02  0.00000000000E+00 0.  1.
         11    1    4    4    0    0  0.42869040537E+01 -0.66985469336E+00  0.22078656561E+02  0.22500962812E+02  0.51100000000E-03 0. -1.
        -11    1    4    4    0    0 -0.11611523130E+02  0.56051575594E+01  0.17667309546E+02  0.21871878921E+02  0.51100000000E-03 0.  1.
         12    1    4    4    0    0  0.40154344197E+01  0.74990495422E+01 -0.52464468451E+01  0.99942314419E+01  0.00000000000E+00 0. -1.
</event>
<event>
 8    1  0.2500956E-006  0.9118800E+02  0.7816164E-02  0.1184000E+00
        -11   -1    0    0    0    0  0.00000000000E+00  0.00000000000E+00  0.45593999997E+02  0.45594000000E+02  0.51100000000E-03 0.  1.
         11   -1    0    0    0    0 -0.00000000000E+00 -0.00000000000E+00 -0.45593999997E+02  0.45594000000E+02  0.51100000000E-03 0. -1.
         23    2    1    2    0    0 -0.44408920985E-15  0.88817841970E-15 -0.14210854715E-13  0.91188000000E+02  0.91188000000E+02 0.  0.
    9900012    2    3    3    0    0 -0.18497376548E+01 -0.17165955018E+01  0.36734341385E+02  0.54367081129E+02  0.39999993050E+02 0.  0.
         12    1    3    3    0    0  0.18497376548E+01  0.17165955018E+01 -0.36734341385E+02  0.36820918871E+02  0.00000000000E+00 0. -1.
         11    1    4    4    0    0 -0.11955053660E+02  0.55905275906E+01  0.64531936676E+01  0.14690848019E+02  0.51100000000E-03 0. -1.
        -11    1    4    4    0    0 -0.36061390420E+01 -0.35260742394E+01  0.23285970068E+02  0.23825906921E+02  0.51100000000E-03 0.  1.
         12    1    4    4    0    0  0.13711455047E+02 -0.37810488529E+01  0.69951776493E+01  0.15850326189E+02  0.00000000000E+00 0. -1.
</event>
<event>
 8    1  0.2500956E-006  0.9118800E+02  0.7816164E-02  0.1184000E+00
        -11   -1    0    0    0    0  0.00000000000E+00  0.00000000000E+00  0.45593999997E+02  0.45594000000E+02  0.51100000000E-03 0.  1.
         11   -1    0    0    0    0 -0.00000000000E+00 -0.00000000000E+00 -0.45593999997E+02  0.45594000000E+02  0.51100000000E-03 0. -1.
         23    2    1    2    0    0 -0.71054273576E-14  0.00000000000E+00 -0.17763568394E-14  0.91188000000E+02  0.91188000000E+02 0.  0.
    9900012    2    3    3    0    0 -0.18640147467E+02  0.31056441906E+02 -0.66197650566E+01  0.54367096007E+02  0.40000026967E+02 0.  0.
         12    1    3    3    0    0  0.18640147467E+02 -0.31056441906E+02  0.66197650566E+01  0.36820903993E+02  0.00000000000E+00 0. -1.
         11    1    4    4    0    0 -0.57442918538E+01  0.33462836218E+01  0.68389963018E+01  0.95376293520E+01  0.51100000000E-03 0. -1.
        -11    1    4    4    0    0 -0.16179014021E+02  0.13933297954E+01 -0.49155886825E+01  0.16966581122E+02  0.51100000000E-03 0.  1.
         12    1    4    4    0    0  0.32831584079E+01  0.26316828489E+02 -0.85431726759E+01  0.27862885533E+02  0.00000000000E+00 0. -1.
</event>
<event>
 8    1  0.2500956E-006  0.9118800E+02  0.7816164E-02  0.1184000E+00
        -11   -1    0    0    0    0  0.00000000000E+00  0.00000000000E+00  0.45593999997E+02  0.45594000000E+02  0.51100000000E-03 0. -1.
         11   -1    0    0    0    0 -0.00000000000E+00 -0.00000000000E+00 -0.45593999997E+02  0.45594000000E+02  0.51100000000E-03 0.  1.
         23    2    1    2    0    0  0.00000000000E+00 -0.17763568394E-14  0.00000000000E+00  0.91188000000E+02  0.91188000000E+02 0.  0.
    9900012    2    3    3    0    0  0.80782233485E+01  0.15153742755E+02 -0.32571225574E+02  0.54367104474E+02  0.40000046270E+02 0.  0.
         12    1    3    3    0    0 -0.80782233485E+01 -0.15153742755E+02  0.32571225574E+02  0.36820895526E+02  0.00000000000E+00 0. -1.
         11    1    4    4    0    0 -0.23670937313E+01  0.64328000000E+01 -0.34452105332E+01  0.76716050766E+01  0.51100000000E-03 0. -1.
        -11    1    4    4    0    0  0.14636950703E+02  0.32029511440E+01 -0.34703696379E+02  0.37800076251E+02  0.51100000000E-03 0.  1.
         12    1    4    4    0    0 -0.41916336230E+01  0.55179916109E+01  0.55776813386E+01  0.88954231469E+01  0.00000000000E+00 0. -1.
</event>
<event>
 8    1  0.2500956E-006  0.9118800E+02  0.7816164E-02  0.1184000E+00
        -11   -1    0    0    0    0  0.00000000000E+00  0.00000000000E+00  0.45593999997E+02  0.45594000000E+02  0.51100000000E-03 0.  1.
         11   -1    0    0    0    0 -0.00000000000E+00 -0.00000000000E+00 -0.45593999997E+02  0.45594000000E+02  0.51100000000E-03 0. -1.
         23    2    1    2    0    0  0.17763568394E-14  0.00000000000E+00  0.66613381478E-15  0.91188000000E+02  0.91188000000E+02 0.  0.
    9900012    2    3    3    0    0  0.97060382452E+01 -0.35467899158E+02 -0.18935987675E+01  0.54367288907E+02  0.40000466719E+02 0.  0.
        -12    1    3    3    0    0 -0.97060382452E+01  0.35467899158E+02  0.18935987675E+01  0.36820711093E+02  0.00000000000E+00 0.  1.
         11    1    4    4    0    0  0.14940295902E+02 -0.35957436622E+02 -0.86681638129E+01  0.39890935740E+02  0.51100000000E-03 0. -1.
        -11    1    4    4    0    0 -0.60630828115E+01  0.70564044186E+00 -0.13955138468E+01  0.62614982848E+01  0.51100000000E-03 0.  1.
         12    1    4    4    0    0  0.82882515446E+00 -0.21610297742E+00  0.81700788922E+01  0.82148548824E+01  0.00000000000E+00 0. -1.
</event>
<event>
 8    1  0.2500956E-006  0.9118800E+02  0.7816164E-02  0.1184000E+00
        -11   -1    0    0    0    0  0.00000000000E+00  0.00000000000E+00  0.45593999997E+02  0.45594000000E+02  0.51100000000E-03 0. -1.
         11   -1    0    0    0    0 -0.00000000000E+00 -0.00000000000E+00 -0.45593999997E+02  0.45594000000E+02  0.51100000000E-03 0.  1.
         23    2    1    2    0    0  0.00000000000E+00  0.00000000000E+00  0.00000000000E+00  0.91188000000E+02  0.91188000000E+02 0.  0.
    9900012    2    3    3    0    0 -0.32956637001E+02  0.25529492301E+01 -0.16221044164E+02  0.54367085482E+02  0.40000002973E+02 0.  0.
         12    1    3    3    0    0  0.32956637001E+02 -0.25529492301E+01  0.16221044164E+02  0.36820914518E+02  0.00000000000E+00 0. -1.
         11    1    4    4    0    0  0.24641224605E+01 -0.13054942769E+01  0.65291070301E+00  0.28640019998E+01  0.51100000000E-03 0. -1.
        -11    1    4    4    0    0 -0.41029879605E+02 -0.61398751606E+00 -0.16768408031E+02  0.44328405219E+02  0.51100000000E-03 0.  1.
        -12    1    4    4    0    0  0.56091201436E+01  0.44724310230E+01 -0.10554683526E+00  0.71746782628E+01  0.00000000000E+00 0.  1.
</event>
<event>
 8    1  0.2500956E-006  0.9118800E+02  0.7816164E-02  0.1184000E+00
        -11   -1    0    0    0    0  0.00000000000E+00  0.00000000000E+00  0.45593999997E+02  0.45594000000E+02  0.51100000000E-03 0.  1.
         11   -1    0    0    0    0 -0.00000000000E+00 -0.00000000000E+00 -0.45593999997E+02  0.45594000000E+02  0.51100000000E-03 0. -1.
         23    2    1    2    0    0  0.35527136788E-14  0.17763568394E-14  0.00000000000E+00  0.91188000000E+02  0.91188000000E+02 0.  0.
    9900012    2    3    3    0    0 -0.31420055650E+02 -0.11798225780E+02 -0.15144700498E+02  0.54367082280E+02  0.39999995673E+02 0.  0.
         12    1    3    3    0    0  0.31420055650E+02  0.11798225780E+02  0.15144700498E+02  0.36820917720E+02  0.00000000000E+00 0. -1.
         11    1    4    4    0    0  0.26375481193E+01 -0.87344609266E+01 -0.57989644978E+01  0.10810895304E+02  0.51100000000E-03 0. -1.
        -11    1    4    4    0    0 -0.30354419793E+02 -0.55691323502E+01 -0.16594270895E+02  0.35039632744E+02  0.51100000000E-03 0.  1.
        -12    1    4    4    0    0 -0.37031839766E+01  0.25053674967E+01  0.72485348947E+01  0.85165542315E+01  0.00000000000E+00 0.  1.
</event>
<event>
 8    1  0.2500956E-006  0.9118800E+02  0.7816164E-02  0.1184000E+00
        -11   -1    0    0    0    0  0.00000000000E+00  0.00000000000E+00  0.45593999997E+02  0.45594000000E+02  0.51100000000E-03 0. -1.
         11   -1    0    0    0    0 -0.00000000000E+00 -0.00000000000E+00 -0.45593999997E+02  0.45594000000E+02  0.51100000000E-03 0.  1.
         23    2    1    2    0    0  0.00000000000E+00  0.00000000000E+00  0.00000000000E+00  0.91188000000E+02  0.91188000000E+02 0.  0.
    9900012    2    3    3    0    0 -0.20676232435E+02  0.23303805916E+02 -0.19626658035E+02  0.54367086601E+02  0.40000005525E+02 0.  0.
         12    1    3    3    0    0  0.20676232435E+02 -0.23303805916E+02  0.19626658035E+02  0.36820913399E+02  0.00000000000E+00 0. -1.
         11    1    4    4    0    0 -0.21729755655E+01  0.12915327435E+01 -0.22062350696E+02  0.22206692643E+02  0.51100000000E-03 0.  1.
        -11    1    4    4    0    0 -0.74427897137E+01  0.12282981966E+02  0.79690234428E+01  0.16424740473E+02  0.51100000000E-03 0. -1.
         12    1    4    4    0    0 -0.11060467156E+02  0.97292912070E+01 -0.55333307811E+01  0.15735653486E+02  0.00000000000E+00 0. -1.
</event>
<event>
 8    1  0.2500956E-006  0.9118800E+02  0.7816164E-02  0.1184000E+00
        -11   -1    0    0    0    0  0.00000000000E+00  0.00000000000E+00  0.45593999997E+02  0.45594000000E+02  0.51100000000E-03 0.  1.
         11   -1    0    0    0    0 -0.00000000000E+00 -0.00000000000E+00 -0.45593999997E+02  0.45594000000E+02  0.51100000000E-03 0. -1.
         23    2    1    2    0    0  0.35527136788E-14  0.00000000000E+00 -0.66613381478E-15  0.91188000000E+02  0.91188000000E+02 0.  0.
    9900012    2    3    3    0    0  0.30423536067E+02 -0.20710572907E+02 -0.11226578911E+01  0.54367085594E+02  0.40000003228E+02 0.  0.
        -12    1    3    3    0    0 -0.30423536067E+02  0.20710572907E+02  0.11226578911E+01  0.36820914406E+02  0.00000000000E+00 0.  1.
         11    1    4    4    0    0  0.21461477573E+02  0.14419584009E+01  0.32564484557E+01  0.21754970017E+02  0.51100000000E-03 0. -1.
        -11    1    4    4    0    0  0.81724613745E+01  0.11821647084E+01  0.18187491085E+01  0.84554412597E+01  0.51100000000E-03 0.  1.
        -12    1    4    4    0    0  0.78959711961E+00 -0.23334696017E+02 -0.61978554553E+01  0.24156674317E+02  0.00000000000E+00 0.  1.
</event>
<event>
 8    1  0.2500956E-006  0.9118800E+02  0.7816164E-02  0.1184000E+00
        -11   -1    0    0    0    0  0.00000000000E+00  0.00000000000E+00  0.45593999997E+02  0.45594000000E+02  0.51100000000E-03 0. -1.
         11   -1    0    0    0    0 -0.00000000000E+00 -0.00000000000E+00 -0.45593999997E+02  0.45594000000E+02  0.51100000000E-03 0.  1.
         23    2    1    2    0    0  0.00000000000E+00 -0.35527136788E-14  0.00000000000E+00  0.91188000000E+02  0.91188000000E+02 0.  0.
    9900012    2    3    3    0    0  0.26092146502E+02  0.25520594842E+02  0.48663358697E+01  0.54367053584E+02  0.39999930256E+02 0.  0.
        -12    1    3    3    0    0 -0.26092146502E+02 -0.25520594842E+02 -0.48663358697E+01  0.36820946416E+02  0.00000000000E+00 0.  1.
         11    1    4    4    0    0  0.63503268543E+01  0.25227548443E+02  0.24259130884E+01  0.26127397615E+02  0.51100000000E-03 0.  1.
        -11    1    4    4    0    0  0.19637303955E+02 -0.31670209506E+01 -0.45805921427E+01  0.20411652382E+02  0.51100000000E-03 0. -1.
         12    1    4    4    0    0  0.10451569224E+00  0.34600673498E+01  0.70210149239E+01  0.78280035869E+01  0.00000000000E+00 0. -1.
</event>
<event>
 8    1  0.2500956E-006  0.9118800E+02  0.7816164E-02  0.1184000E+00
        -11   -1    0    0    0    0  0.00000000000E+00  0.00000000000E+00  0.45593999997E+02  0.45594000000E+02  0.51100000000E-03 0. -1.
         11   -1    0    0    0    0 -0.00000000000E+00 -0.00000000000E+00 -0.45593999997E+02  0.45594000000E+02  0.51100000000E-03 0.  1.
         23    2    1    2    0    0  0.00000000000E+00  0.44408920985E-15  0.00000000000E+00  0.91188000000E+02  0.91188000000E+02 0.  0.
    9900012    2    3    3    0    0 -0.26129366201E+02 -0.21914162630E+01 -0.25850132455E+02  0.54367144073E+02  0.40000136542E+02 0.  0.
        -12    1    3    3    0    0  0.26129366201E+02  0.21914162630E+01  0.25850132455E+02  0.36820855927E+02  0.00000000000E+00 0.  1.
         11    1    4    4    0    0 -0.76626677423E+01  0.93704057067E+01  0.20754918877E+01  0.12281231489E+02  0.51100000000E-03 0. -1.
        -11    1    4    4    0    0 -0.11631933663E+02  0.33506831117E+01 -0.21084825168E+02  0.24312523741E+02  0.51100000000E-03 0.  1.
         12    1    4    4    0    0 -0.68347647957E+01 -0.14912505081E+02 -0.68407991745E+01  0.17773388843E+02  0.00000000000E+00 0. -1.
</event>
<event>
 8    1  0.2500956E-006  0.9118800E+02  0.7816164E-02  0.1184000E+00
        -11   -1    0    0    0    0  0.00000000000E+00  0.00000000000E+00  0.45593999997E+02  0.45594000000E+02  0.51100000000E-03 0.  1.
         11   -1    0    0    0    0 -0.00000000000E+00 -0.00000000000E+00 -0.45593999997E+02  0.45594000000E+02  0.51100000000E-03 0. -1.
         23    2    1    2    0    0  0.00000000000E+00  0.35527136788E-14  0.00000000000E+00  0.91188000000E+02  0.91188000000E+02 0.  0.
    9900012    2    3    3    0    0  0.19430859946E+02  0.15375550859E+02 -0.27236261322E+02  0.54367084568E+02  0.40000000890E+02 0.  0.
        -12    1    3    3    0    0 -0.19430859946E+02 -0.15375550859E+02  0.27236261322E+02  0.36820915432E+02  0.00000000000E+00 0.  1.
         11    1    4    4    0    0 -0.79148461073E+01  0.70355114416E+01 -0.11070566730E+02  0.15319943151E+02  0.51100000000E-03 0. -1.
        -11    1    4    4    0    0  0.21110689971E+01 -0.29134975434E+01  0.35885279068E+01  0.50815955216E+01  0.51100000000E-03 0.  1.
        -12    1    4    4    0    0  0.25234637056E+02  0.11253536961E+02 -0.19754222499E+02  0.33965545896E+02  0.00000000000E+00 0.  1.
</event>
<event>
 8    1  0.2500956E-006  0.9118800E+02  0.7816164E-02  0.1184000E+00
        -11   -1    0    0    0    0  0.00000000000E+00  0.00000000000E+00  0.45593999997E+02  0.45594000000E+02  0.51100000000E-03 0.  1.
         11   -1    0    0    0    0 -0.00000000000E+00 -0.00000000000E+00 -0.45593999997E+02  0.45594000000E+02  0.51100000000E-03 0. -1.
         23    2    1    2    0    0  0.00000000000E+00  0.00000000000E+00  0.35527136788E-14  0.91188000000E+02  0.91188000000E+02 0.  0.
    9900012    2    3    3    0    0 -0.21827639464E+02  0.25417433773E+02  0.15273777879E+02  0.54367081016E+02  0.39999992791E+02 0.  0.
         12    1    3    3    0    0  0.21827639464E+02 -0.25417433773E+02 -0.15273777879E+02  0.36820918984E+02  0.00000000000E+00 0. -1.
         11    1    4    4    0    0 -0.26325516367E+02  0.42401377340E+01 -0.47640480715E+00  0.26669055885E+02  0.51100000000E-03 0. -1.
        -11    1    4    4    0    0  0.40476836898E+01  0.43206710767E+01  0.39832371543E+01  0.71356933997E+01  0.51100000000E-03 0.  1.
         12    1    4    4    0    0  0.45019321371E+00  0.16856624962E+02  0.11766945532E+02  0.20562331730E+02  0.00000000000E+00 0. -1.
</event>
<event>
 8    1  0.2500956E-006  0.9118800E+02  0.7816164E-02  0.1184000E+00
        -11   -1    0    0    0    0  0.00000000000E+00  0.00000000000E+00  0.45593999997E+02  0.45594000000E+02  0.51100000000E-03 0. -1.
         11   -1    0    0    0    0 -0.00000000000E+00 -0.00000000000E+00 -0.45593999997E+02  0.45594000000E+02  0.51100000000E-03 0.  1.
         23    2    1    2    0    0  0.17763568394E-14  0.00000000000E+00  0.35527136788E-14  0.91188000000E+02  0.91188000000E+02 0.  0.
    9900012    2    3    3    0    0  0.13473017214E+02  0.23060571508E+02 -0.25346951027E+02  0.54367080979E+02  0.39999992708E+02 0.  0.
         12    1    3    3    0    0 -0.13473017214E+02 -0.23060571508E+02  0.25346951027E+02  0.36820919021E+02  0.00000000000E+00 0. -1.
         11    1    4    4    0    0 -0.11163919306E+01  0.10729376043E+02 -0.23301372916E+02  0.25677223784E+02  0.51100000000E-03 0.  1.
        -11    1    4    4    0    0  0.13217795317E+01 -0.12763420682E+01  0.72883199873E+01  0.75163660570E+01  0.51100000000E-03 0. -1.
        -12    1    4    4    0    0  0.13267629613E+02  0.13607537533E+02 -0.93338980987E+01  0.21173491138E+02  0.00000000000E+00 0.  1.
</event>
<event>
 8    1  0.2500956E-006  0.9118800E+02  0.7816164E-02  0.1184000E+00
        -11   -1    0    0    0    0  0.00000000000E+00  0.00000000000E+00  0.45593999997E+02  0.45594000000E+02  0.51100000000E-03 0. -1.
         11   -1    0    0    0    0 -0.00000000000E+00 -0.00000000000E+00 -0.45593999997E+02  0.45594000000E+02  0.51100000000E-03 0.  1.
         23    2    1    2    0    0  0.88817841970E-15  0.00000000000E+00 -0.71054273576E-14  0.91188000000E+02  0.91188000000E+02 0.  0.
    9900012    2    3    3    0    0 -0.67583482308E+01  0.46366363172E+01 -0.35897153749E+02  0.54367091341E+02  0.40000016331E+02 0.  0.
         12    1    3    3    0    0  0.67583482308E+01 -0.46366363172E+01  0.35897153749E+02  0.36820908659E+02  0.00000000000E+00 0. -1.
         11    1    4    4    0    0  0.49919355535E+01 -0.45947448639E+00 -0.36641275801E+02  0.36982612536E+02  0.51100000000E-03 0. -1.
        -11    1    4    4    0    0 -0.13565197020E+02  0.64238672235E+01 -0.20283708903E-01  0.15009365476E+02  0.51100000000E-03 0.  1.
         12    1    4    4    0    0  0.18149132357E+01 -0.13277564199E+01  0.76440576052E+00  0.23751133300E+01  0.00000000000E+00 0. -1.
</event>
<event>
 8    1  0.2500956E-006  0.9118800E+02  0.7816164E-02  0.1184000E+00
        -11   -1    0    0    0    0  0.00000000000E+00  0.00000000000E+00  0.45593999997E+02  0.45594000000E+02  0.51100000000E-03 0.  1.
         11   -1    0    0    0    0 -0.00000000000E+00 -0.00000000000E+00 -0.45593999997E+02  0.45594000000E+02  0.51100000000E-03 0. -1.
         23    2    1    2    0    0  0.35527136788E-14 -0.17763568394E-14  0.35527136788E-14  0.91188000000E+02  0.91188000000E+02 0.  0.
    9900012    2    3    3    0    0 -0.18140414359E+02  0.15890620390E+02 -0.27824349355E+02  0.54367070265E+02  0.39999968284E+02 0.  0.
        -12    1    3    3    0    0  0.18140414359E+02 -0.15890620390E+02  0.27824349355E+02  0.36820929735E+02  0.00000000000E+00 0.  1.
         11    1    4    4    0    0  0.54605103650E+01  0.10044756521E+02 -0.34005452121E+01  0.11928034834E+02  0.51100000000E-03 0. -1.
        -11    1    4    4    0    0  0.23207011637E+01 -0.58312441120E+01 -0.44703507219E+01  0.77053940602E+01  0.51100000000E-03 0.  1.
         12    1    4    4    0    0 -0.25921625887E+02  0.11677107982E+02 -0.19953453421E+02  0.34733641371E+02  0.00000000000E+00 0. -1.
</event>
<event>
 8    1  0.2500956E-006  0.9118800E+02  0.7816164E-02  0.1184000E+00
        -11   -1    0    0    0    0  0.00000000000E+00  0.00000000000E+00  0.45593999997E+02  0.45594000000E+02  0.51100000000E-03 0.  1.
         11   -1    0    0    0    0 -0.00000000000E+00 -0.00000000000E+00 -0.45593999997E+02  0.45594000000E+02  0.51100000000E-03 0. -1.
         23    2    1    2    0    0  0.00000000000E+00  0.00000000000E+00  0.00000000000E+00  0.91188000000E+02  0.91188000000E+02 0.  0.
    9900012    2    3    3    0    0  0.20882872211E+02  0.24650279860E+02  0.17664773334E+02  0.54367151749E+02  0.40000154043E+02 0.  0.
         12    1    3    3    0    0 -0.20882872211E+02 -0.24650279860E+02 -0.17664773334E+02  0.36820848251E+02  0.00000000000E+00 0. -1.
         11    1    4    4    0    0  0.90958529272E+01  0.11674655388E+02  0.12764928896E+02  0.19544194250E+02  0.51100000000E-03 0. -1.
        -11    1    4    4    0    0 -0.88912509136E+01  0.98241623537E+01  0.41785667739E+01  0.13893485139E+02  0.51100000000E-03 0.  1.
         12    1    4    4    0    0  0.20678270197E+02  0.31514621191E+01  0.72127766397E+00  0.20929472361E+02  0.00000000000E+00 0. -1.
</event>
<event>
 8    1  0.2500956E-006  0.9118800E+02  0.7816164E-02  0.1184000E+00
        -11   -1    0    0    0    0  0.00000000000E+00  0.00000000000E+00  0.45593999997E+02  0.45594000000E+02  0.51100000000E-03 0.  1.
         11   -1    0    0    0    0 -0.00000000000E+00 -0.00000000000E+00 -0.45593999997E+02  0.45594000000E+02  0.51100000000E-03 0. -1.
         23    2    1    2    0    0  0.00000000000E+00  0.00000000000E+00  0.35527136788E-14  0.91188000000E+02  0.91188000000E+02 0.  0.
    9900012    2    3    3    0    0 -0.16612369977E+01  0.26088442279E+02 -0.25930902402E+02  0.54367106090E+02  0.40000049954E+02 0.  0.
        -12    1    3    3    0    0  0.16612369977E+01 -0.26088442279E+02  0.25930902402E+02  0.36820893910E+02  0.00000000000E+00 0.  1.
         11    1    4    4    0    0 -0.34160522778E+01 -0.38272265634E+01 -0.74794062039E+01  0.90696523503E+01  0.51100000000E-03 0. -1.
        -11    1    4    4    0    0  0.48698291726E+01  0.28815638637E+02 -0.28645775233E+01  0.29364299257E+02  0.51100000000E-03 0.  1.
        -12    1    4    4    0    0 -0.31150138925E+01  0.11000302057E+01 -0.15586918675E+02  0.15933154483E+02  0.00000000000E+00 0.  1.
</event>
<event>
 8    1  0.2500956E-006  0.9118800E+02  0.7816164E-02  0.1184000E+00
        -11   -1    0    0    0    0  0.00000000000E+00  0.00000000000E+00  0.45593999997E+02  0.45594000000E+02  0.51100000000E-03 0.  1.
         11   -1    0    0    0    0 -0.00000000000E+00 -0.00000000000E+00 -0.45593999997E+02  0.45594000000E+02  0.51100000000E-03 0. -1.
         23    2    1    2    0    0  0.00000000000E+00  0.00000000000E+00  0.00000000000E+00  0.91188000000E+02  0.91188000000E+02 0.  0.
    9900012    2    3    3    0    0  0.16418575507E+02 -0.23684543910E+02 -0.22918441084E+02  0.54367052380E+02  0.39999927510E+02 0.  0.
        -12    1    3    3    0    0 -0.16418575507E+02  0.23684543910E+02  0.22918441084E+02  0.36820947620E+02  0.00000000000E+00 0.  1.
         11    1    4    4    0    0  0.49395162244E+01 -0.25353628326E+02 -0.22638951666E+02  0.34347160329E+02  0.51100000000E-03 0. -1.
        -11    1    4    4    0    0  0.14843385801E+02  0.86946255119E+00 -0.35210869812E+01  0.15280056314E+02  0.51100000000E-03 0.  1.
        -12    1    4    4    0    0 -0.33643265183E+01  0.79962186527E+00  0.32415975634E+01  0.47398357368E+01  0.00000000000E+00 0.  1.
</event>
<event>
 8    1  0.2500956E-006  0.9118800E+02  0.7816164E-02  0.1184000E+00
        -11   -1    0    0    0    0  0.00000000000E+00  0.00000000000E+00  0.45593999997E+02  0.45594000000E+02  0.51100000000E-03 0. -1.
         11   -1    0    0    0    0 -0.00000000000E+00 -0.00000000000E+00 -0.45593999997E+02  0.45594000000E+02  0.51100000000E-03 0.  1.
         23    2    1    2    0    0  0.17763568394E-14  0.00000000000E+00  0.00000000000E+00  0.91188000000E+02  0.91188000000E+02 0.  0.
    9900012    2    3    3    0    0 -0.15366761609E+02 -0.75430977255E+01 -0.32599796650E+02  0.54367049072E+02  0.39999919970E+02 0.  0.
         12    1    3    3    0    0  0.15366761609E+02  0.75430977255E+01  0.32599796650E+02  0.36820950928E+02  0.00000000000E+00 0. -1.
         11    1    4    4    0    0 -0.16155451144E+01  0.66732292519E+01  0.24719690703E+01  0.72974383184E+01  0.51100000000E-03 0. -1.
        -11    1    4    4    0    0  0.28023832232E+01 -0.13539800882E+02 -0.10186841998E+02  0.17174146552E+02  0.51100000000E-03 0.  1.
        -12    1    4    4    0    0 -0.16553599717E+02 -0.67652609548E+00 -0.24884923722E+02  0.29895464202E+02  0.00000000000E+00 0.  1.
</event>
<event>
 8    1  0.2500956E-006  0.9118800E+02  0.7816164E-02  0.1184000E+00
        -11   -1    0    0    0    0  0.00000000000E+00  0.00000000000E+00  0.45593999997E+02  0.45594000000E+02  0.51100000000E-03 0.  1.
         11   -1    0    0    0    0 -0.00000000000E+00 -0.00000000000E+00 -0.45593999997E+02  0.45594000000E+02  0.51100000000E-03 0. -1.
         23    2    1    2    0    0  0.35527136788E-14  0.35527136788E-14  0.17763568394E-14  0.91188000000E+02  0.91188000000E+02 0.  0.
    9900012    2    3    3    0    0 -0.18507105180E+02 -0.30237900090E+02  0.99466742846E+01  0.54367083753E+02  0.39999999031E+02 0.  0.
         12    1    3    3    0    0  0.18507105180E+02  0.30237900090E+02 -0.99466742846E+01  0.36820916247E+02  0.00000000000E+00 0. -1.
         11    1    4    4    0    0 -0.98222719510E+01 -0.86648910542E+00  0.87668448143E+01  0.13194142561E+02  0.51100000000E-03 0. -1.
        -11    1    4    4    0    0 -0.10919214970E+02 -0.40062394217E+01  0.88099851276E+01  0.14590923482E+02  0.51100000000E-03 0.  1.
         12    1    4    4    0    0  0.22343817410E+01 -0.25365171563E+02 -0.76301556572E+01  0.26582017710E+02  0.00000000000E+00 0. -1.
</event>
<event>
 8    1  0.2500956E-006  0.9118800E+02  0.7816164E-02  0.1184000E+00
        -11   -1    0    0    0    0  0.00000000000E+00  0.00000000000E+00  0.45593999997E+02  0.45594000000E+02  0.51100000000E-03 0. -1.
         11   -1    0    0    0    0 -0.00000000000E+00 -0.00000000000E+00 -0.45593999997E+02  0.45594000000E+02  0.51100000000E-03 0.  1.
         23    2    1    2    0    0  0.35527136788E-14  0.00000000000E+00  0.00000000000E+00  0.91188000000E+02  0.91188000000E+02 0.  0.
    9900012    2    3    3    0    0 -0.29185495569E+02 -0.67587750824E+01 -0.21408076397E+02  0.54367083020E+02  0.39999997361E+02 0.  0.
         12    1    3    3    0    0  0.29185495569E+02  0.67587750824E+01  0.21408076397E+02  0.36820916980E+02  0.00000000000E+00 0. -1.
         11    1    4    4    0    0  0.20346409232E+01  0.14865669819E+01 -0.10644032399E+02  0.10938238938E+02  0.51100000000E-03 0. -1.
        -11    1    4    4    0    0 -0.27330186923E+02 -0.69784746125E+00 -0.17611704260E+02  0.32520735470E+02  0.51100000000E-03 0.  1.
         12    1    4    4    0    0 -0.38899495691E+01 -0.75474946030E+01  0.68476602620E+01  0.10908108612E+02  0.00000000000E+00 0. -1.
</event>
<event>
 8    1  0.2500956E-006  0.9118800E+02  0.7816164E-02  0.1184000E+00
        -11   -1    0    0    0    0  0.00000000000E+00  0.00000000000E+00  0.45593999997E+02  0.45594000000E+02  0.51100000000E-03 0.  1.
         11   -1    0    0    0    0 -0.00000000000E+00 -0.00000000000E+00 -0.45593999997E+02  0.45594000000E+02  0.51100000000E-03 0. -1.
         23    2    1    2    0    0  0.00000000000E+00  0.00000000000E+00  0.17763568394E-14  0.91188000000E+02  0.91188000000E+02 0.  0.
    9900012    2    3    3    0    0  0.24149603046E+02  0.24514453718E+02  0.13100311506E+02  0.54367082984E+02  0.39999997278E+02 0.  0.
         12    1    3    3    0    0 -0.24149603046E+02 -0.24514453718E+02 -0.13100311506E+02  0.36820917016E+02  0.00000000000E+00 0. -1.
         11    1    4    4    0    0  0.10029275778E+02  0.11448154747E+01 -0.12107079900E+02  0.15763196347E+02  0.51100000000E-03 0. -1.
        -11    1    4    4    0    0  0.84638427380E+01  0.45996101341E+01  0.81526091704E+01  0.12619749753E+02  0.51100000000E-03 0.  1.
         12    1    4    4    0    0  0.56564845302E+01  0.18770028109E+02  0.17054782236E+02  0.25984136883E+02  0.00000000000E+00 0. -1.
</event>
<event>
 8    1  0.2500956E-006  0.9118800E+02  0.7816164E-02  0.1184000E+00
        -11   -1    0    0    0    0  0.00000000000E+00  0.00000000000E+00  0.45593999997E+02  0.45594000000E+02  0.51100000000E-03 0.  1.
         11   -1    0    0    0    0 -0.00000000000E+00 -0.00000000000E+00 -0.45593999997E+02  0.45594000000E+02  0.51100000000E-03 0. -1.
         23    2    1    2    0    0  0.00000000000E+00  0.35527136788E-14  0.00000000000E+00  0.91188000000E+02  0.91188000000E+02 0.  0.
    9900012    2    3    3    0    0  0.14518616765E+02 -0.10452607062E+02  0.32182790578E+02  0.54367092400E+02  0.40000018744E+02 0.  0.
         12    1    3    3    0    0 -0.14518616765E+02  0.10452607062E+02 -0.32182790578E+02  0.36820907600E+02  0.00000000000E+00 0. -1.
         11    1    4    4    0    0  0.11460738940E+01  0.58623097622E+01 -0.60466413693E+01  0.84995313535E+01  0.51100000000E-03 0. -1.
        -11    1    4    4    0    0  0.62777941394E+00 -0.71219168756E+01  0.22600691820E+02  0.23704579261E+02  0.51100000000E-03 0.  1.
         12    1    4    4    0    0  0.12744763457E+02 -0.91929999483E+01  0.15628740127E+02  0.22162981785E+02  0.00000000000E+00 0. -1.
</event>
<event>
 8    1  0.2500956E-006  0.9118800E+02  0.7816164E-02  0.1184000E+00
        -11   -1    0    0    0    0  0.00000000000E+00  0.00000000000E+00  0.45593999997E+02  0.45594000000E+02  0.51100000000E-03 0.  1.
         11   -1    0    0    0    0 -0.00000000000E+00 -0.00000000000E+00 -0.45593999997E+02  0.45594000000E+02  0.51100000000E-03 0. -1.
         23    2    1    2    0    0  0.00000000000E+00 -0.88817841970E-15 -0.88817841970E-15  0.91188000000E+02  0.91188000000E+02 0.  0.
    9900012    2    3    3    0    0 -0.36218929968E+02  0.21836986634E+01 -0.62609167348E+01  0.54367102316E+02  0.40000041349E+02 0.  0.
        -12    1    3    3    0    0  0.36218929968E+02 -0.21836986634E+01  0.62609167348E+01  0.36820897684E+02  0.00000000000E+00 0.  1.
         11    1    4    4    0    0 -0.22201336345E+02  0.39565278655E+01  0.39003970764E+01  0.22885946470E+02  0.51100000000E-03 0. -1.
        -11    1    4    4    0    0 -0.17640855769E+02  0.79599523218E+01 -0.56768040718E+01  0.20168954805E+02  0.51100000000E-03 0.  1.
        -12    1    4    4    0    0  0.36232621447E+01 -0.97327815240E+01 -0.44845097394E+01  0.11312201040E+02  0.00000000000E+00 0.  1.
</event>
<event>
 8    1  0.2500956E-006  0.9118800E+02  0.7816164E-02  0.1184000E+00
        -11   -1    0    0    0    0  0.00000000000E+00  0.00000000000E+00  0.45593999997E+02  0.45594000000E+02  0.51100000000E-03 0.  1.
         11   -1    0    0    0    0 -0.00000000000E+00 -0.00000000000E+00 -0.45593999997E+02  0.45594000000E+02  0.51100000000E-03 0. -1.
         23    2    1    2    0    0 -0.35527136788E-14  0.00000000000E+00  0.00000000000E+00  0.91188000000E+02  0.91188000000E+02 0.  0.
    9900012    2    3    3    0    0  0.29080630454E+02 -0.21972101493E+02  0.52272565191E+01  0.54367074939E+02  0.39999978938E+02 0.  0.
        -12    1    3    3    0    0 -0.29080630454E+02  0.21972101493E+02 -0.52272565191E+01  0.36820925061E+02  0.00000000000E+00 0.  1.
         11    1    4    4    0    0  0.81548059995E+00 -0.91913357302E+01 -0.10345076374E+02  0.13862404790E+02  0.51100000000E-03 0. -1.
        -11    1    4    4    0    0  0.42241270444E+01 -0.26132237587E+01  0.13424288951E+02  0.14313759876E+02  0.51100000000E-03 0.  1.
         12    1    4    4    0    0  0.24041022810E+02 -0.10167542004E+02  0.21480439423E+01  0.26190910273E+02  0.00000000000E+00 0. -1.
</event>
<event>
 8    1  0.2500956E-006  0.9118800E+02  0.7816164E-02  0.1184000E+00
        -11   -1    0    0    0    0  0.00000000000E+00  0.00000000000E+00  0.45593999997E+02  0.45594000000E+02  0.51100000000E-03 0. -1.
         11   -1    0    0    0    0 -0.00000000000E+00 -0.00000000000E+00 -0.45593999997E+02  0.45594000000E+02  0.51100000000E-03 0.  1.
         23    2    1    2    0    0 -0.35527136788E-14  0.17763568394E-14  0.35527136788E-14  0.91188000000E+02  0.91188000000E+02 0.  0.
    9900012    2    3    3    0    0 -0.29255942758E+02  0.14518905709E+02  0.17002019043E+02  0.54367116507E+02  0.40000073701E+02 0.  0.
        -12    1    3    3    0    0  0.29255942758E+02 -0.14518905709E+02 -0.17002019043E+02  0.36820883493E+02  0.00000000000E+00 0.  1.
         11    1    4    4    0    0 -0.22090435434E+02 -0.19738750744E+01  0.19919059766E+02  0.29810274448E+02  0.51100000000E-03 0. -1.
        -11    1    4    4    0    0 -0.11750104607E+02  0.66092380445E+01 -0.18956726890E+01  0.13613984024E+02  0.51100000000E-03 0.  1.
        -12    1    4    4    0    0  0.45845972822E+01  0.98835427389E+01 -0.10213680342E+01  0.10942858035E+02  0.00000000000E+00 0.  1.
</event>
<event>
 8    1  0.2500956E-006  0.9118800E+02  0.7816164E-02  0.1184000E+00
        -11   -1    0    0    0    0  0.00000000000E+00  0.00000000000E+00  0.45593999997E+02  0.45594000000E+02  0.51100000000E-03 0. -1.
         11   -1    0    0    0    0 -0.00000000000E+00 -0.00000000000E+00 -0.45593999997E+02  0.45594000000E+02  0.51100000000E-03 0.  1.
         23    2    1    2    0    0 -0.71054273576E-14 -0.44408920985E-15 -0.35527136788E-14  0.91188000000E+02  0.91188000000E+02 0.  0.
    9900012    2    3    3    0    0 -0.28633418413E+02 -0.32853201302E+01 -0.22915347918E+02  0.54367093594E+02  0.40000021465E+02 0.  0.
         12    1    3    3    0    0  0.28633418413E+02  0.32853201302E+01  0.22915347918E+02  0.36820906406E+02  0.00000000000E+00 0. -1.
         11    1    4    4    0    0 -0.21273206186E+02  0.28638562495E+01  0.46444252934E+01  0.21961822798E+02  0.51100000000E-03 0. -1.
        -11    1    4    4    0    0 -0.68734649288E+01  0.55513898961E+00 -0.23637116744E+02  0.24622469163E+02  0.51100000000E-03 0.  1.
         12    1    4    4    0    0 -0.48674729890E+00 -0.67043153692E+01 -0.39226564673E+01  0.77828016333E+01  0.00000000000E+00 0. -1.
</event>
<event>
 8    1  0.2500956E-006  0.9118800E+02  0.7816164E-02  0.1184000E+00
        -11   -1    0    0    0    0  0.00000000000E+00  0.00000000000E+00  0.45593999997E+02  0.45594000000E+02  0.51100000000E-03 0. -1.
         11   -1    0    0    0    0 -0.00000000000E+00 -0.00000000000E+00 -0.45593999997E+02  0.45594000000E+02  0.51100000000E-03 0.  1.
         23    2    1    2    0    0 -0.35527136788E-14  0.00000000000E+00  0.00000000000E+00  0.91188000000E+02  0.91188000000E+02 0.  0.
    9900012    2    3    3    0    0 -0.22544339007E+02 -0.20245605768E+02 -0.20920046357E+02  0.54367080487E+02  0.39999991587E+02 0.  0.
         12    1    3    3    0    0  0.22544339007E+02  0.20245605768E+02  0.20920046357E+02  0.36820919513E+02  0.00000000000E+00 0. -1.
         11    1    4    4    0    0  0.76778511807E+01 -0.47938950148E+01  0.30564459626E+01  0.95536741807E+01  0.51100000000E-03 0. -1.
        -11    1    4    4    0    0  0.31890402061E+00  0.24004449830E+01 -0.22034186971E+01  0.32739716106E+01  0.51100000000E-03 0.  1.
        -12    1    4    4    0    0 -0.30541094209E+02 -0.17852155736E+02 -0.21773073622E+02  0.41539434696E+02  0.00000000000E+00 0.  1.
</event>
<event>
 8    1  0.2500956E-006  0.9118800E+02  0.7816164E-02  0.1184000E+00
        -11   -1    0    0    0    0  0.00000000000E+00  0.00000000000E+00  0.45593999997E+02  0.45594000000E+02  0.51100000000E-03 0.  1.
         11   -1    0    0    0    0 -0.00000000000E+00 -0.00000000000E+00 -0.45593999997E+02  0.45594000000E+02  0.51100000000E-03 0. -1.
         23    2    1    2    0    0  0.35527136788E-14  0.35527136788E-14 -0.17763568394E-14  0.91188000000E+02  0.91188000000E+02 0.  0.
    9900012    2    3    3    0    0 -0.17842699772E+02 -0.29429022107E+02  0.13090140263E+02  0.54367067782E+02  0.39999962622E+02 0.  0.
         12    1    3    3    0    0  0.17842699772E+02  0.29429022107E+02 -0.13090140263E+02  0.36820932218E+02  0.00000000000E+00 0. -1.
         11    1    4    4    0    0 -0.49935870821E+01 -0.23350739536E+02  0.18316863810E+02  0.30094857516E+02  0.51100000000E-03 0. -1.
        -11    1    4    4    0    0 -0.98791369149E+01 -0.47901836930E+01  0.60529338106E+01  0.12537193225E+02  0.51100000000E-03 0.  1.
         12    1    4    4    0    0 -0.29699757749E+01 -0.12880988779E+01 -0.11279657358E+02  0.11735017040E+02  0.00000000000E+00 0. -1.
</event>
<event>
 8    1  0.2500956E-006  0.9118800E+02  0.7816164E-02  0.1184000E+00
        -11   -1    0    0    0    0  0.00000000000E+00  0.00000000000E+00  0.45593999997E+02  0.45594000000E+02  0.51100000000E-03 0.  1.
         11   -1    0    0    0    0 -0.00000000000E+00 -0.00000000000E+00 -0.45593999997E+02  0.45594000000E+02  0.51100000000E-03 0. -1.
         23    2    1    2    0    0  0.00000000000E+00  0.00000000000E+00  0.71054273576E-14  0.91188000000E+02  0.91188000000E+02 0.  0.
    9900012    2    3    3    0    0  0.88716232437E+01 -0.12438510950E+02  0.33501713097E+02  0.54366986515E+02  0.39999777358E+02 0.  0.
         12    1    3    3    0    0 -0.88716232437E+01  0.12438510950E+02 -0.33501713097E+02  0.36821013485E+02  0.00000000000E+00 0. -1.
         11    1    4    4    0    0 -0.46713872520E+01 -0.27256335337E+01 -0.45822918400E+00  0.54277906430E+01  0.51100000000E-03 0. -1.
        -11    1    4    4    0    0 -0.68582836948E+01 -0.53873815599E+01 -0.41680969874E+00  0.87311892601E+01  0.51100000000E-03 0.  1.
        -12    1    4    4    0    0  0.20401294191E+02 -0.43254958561E+01  0.34376751980E+02  0.40208006612E+02  0.00000000000E+00 0.  1.
</event>
<event>
 8    1  0.2500956E-006  0.9118800E+02  0.7816164E-02  0.1184000E+00
        -11   -1    0    0    0    0  0.00000000000E+00  0.00000000000E+00  0.45593999997E+02  0.45594000000E+02  0.51100000000E-03 0.  1.
         11   -1    0    0    0    0 -0.00000000000E+00 -0.00000000000E+00 -0.45593999997E+02  0.45594000000E+02  0.51100000000E-03 0. -1.
         23    2    1    2    0    0 -0.35527136788E-14  0.88817841970E-15 -0.35527136788E-14  0.91188000000E+02  0.91188000000E+02 0.  0.
    9900012    2    3    3    0    0  0.23453783122E+02  0.45838550193E+01  0.28012312041E+02  0.54367064441E+02  0.39999955007E+02 0.  0.
         12    1    3    3    0    0 -0.23453783122E+02 -0.45838550193E+01 -0.28012312041E+02  0.36820935559E+02  0.00000000000E+00 0. -1.
         11    1    4    4    0    0 -0.23500986512E+00 -0.59382161973E-01 -0.48206080747E+01  0.48266984937E+01  0.51100000000E-03 0. -1.
        -11    1    4    4    0    0  0.23547581123E+02 -0.33403769323E+01  0.10829327619E+02  0.26132757829E+02  0.51100000000E-03 0.  1.
         12    1    4    4    0    0  0.14121186379E+00  0.79836141136E+01  0.22003592496E+02  0.23407608118E+02  0.00000000000E+00 0. -1.
</event>
<event>
 8    1  0.2500956E-006  0.9118800E+02  0.7816164E-02  0.1184000E+00
        -11   -1    0    0    0    0  0.00000000000E+00  0.00000000000E+00  0.45593999997E+02  0.45594000000E+02  0.51100000000E-03 0.  1.
         11   -1    0    0    0    0 -0.00000000000E+00 -0.00000000000E+00 -0.45593999997E+02  0.45594000000E+02  0.51100000000E-03 0. -1.
         23    2    1    2    0    0 -0.35527136788E-14  0.88817841970E-15  0.00000000000E+00  0.91188000000E+02  0.91188000000E+02 0.  0.
    9900012    2    3    3    0    0 -0.20016360513E+02 -0.55165796013E+01 -0.30408758580E+02  0.54367082887E+02  0.39999997058E+02 0.  0.
        -12    1    3    3    0    0  0.20016360513E+02  0.55165796013E+01  0.30408758580E+02  0.36820917113E+02  0.00000000000E+00 0.  1.
         11    1    4    4    0    0  0.26318697441E+01 -0.11776053545E+02 -0.24168208953E+02  0.27013043140E+02  0.51100000000E-03 0. -1.
        -11    1    4    4    0    0 -0.68080801650E+01  0.43849427696E+01  0.33260775439E+01  0.87544543357E+01  0.51100000000E-03 0.  1.
         12    1    4    4    0    0 -0.15840150092E+02  0.18745311740E+01 -0.95666271702E+01  0.18599585411E+02  0.00000000000E+00 0. -1.
</event>
<event>
 8    1  0.2500956E-006  0.9118800E+02  0.7816164E-02  0.1184000E+00
        -11   -1    0    0    0    0  0.00000000000E+00  0.00000000000E+00  0.45593999997E+02  0.45594000000E+02  0.51100000000E-03 0.  1.
         11   -1    0    0    0    0 -0.00000000000E+00 -0.00000000000E+00 -0.45593999997E+02  0.45594000000E+02  0.51100000000E-03 0. -1.
         23    2    1    2    0    0  0.00000000000E+00  0.00000000000E+00 -0.17763568394E-14  0.91188000000E+02  0.91188000000E+02 0.  0.
    9900012    2    3    3    0    0 -0.27567604974E+02 -0.23438551474E+02  0.68147017313E+01  0.54367099700E+02  0.40000035386E+02 0.  0.
        -12    1    3    3    0    0  0.27567604974E+02  0.23438551474E+02 -0.68147017313E+01  0.36820900300E+02  0.00000000000E+00 0.  1.
         11    1    4    4    0    0 -0.23650722147E+02 -0.18368969193E+02 -0.73563021595E+01  0.30836518432E+02  0.51100000000E-03 0. -1.
        -11    1    4    4    0    0 -0.99859864696E+01 -0.41326574506E+01  0.13588231971E+02  0.17361993887E+02  0.51100000000E-03 0.  1.
         12    1    4    4    0    0  0.60691036430E+01 -0.93692483056E+00  0.58277192021E+00  0.61685873811E+01  0.00000000000E+00 0. -1.
</event>
<event>
 8    1  0.2500956E-006  0.9118800E+02  0.7816164E-02  0.1184000E+00
        -11   -1    0    0    0    0  0.00000000000E+00  0.00000000000E+00  0.45593999997E+02  0.45594000000E+02  0.51100000000E-03 0.  1.
         11   -1    0    0    0    0 -0.00000000000E+00 -0.00000000000E+00 -0.45593999997E+02  0.45594000000E+02  0.51100000000E-03 0. -1.
         23    2    1    2    0    0 -0.13322676296E-14  0.00000000000E+00  0.00000000000E+00  0.91188000000E+02  0.91188000000E+02 0.  0.
    9900012    2    3    3    0    0 -0.39051013671E+01 -0.32736614495E+02  0.16396521538E+02  0.54367059438E+02  0.39999943602E+02 0.  0.
         12    1    3    3    0    0  0.39051013671E+01  0.32736614495E+02 -0.16396521538E+02  0.36820940562E+02  0.00000000000E+00 0. -1.
         11    1    4    4    0    0 -0.50034660267E+01  0.33574894337E+01 -0.73605027422E+00  0.60703523658E+01  0.51100000000E-03 0. -1.
        -11    1    4    4    0    0  0.11439460502E+02 -0.16541528266E+02  0.16751948310E+02  0.26174628678E+02  0.51100000000E-03 0.  1.
         12    1    4    4    0    0 -0.10341095843E+02 -0.19552575663E+02  0.38062350196E+00  0.22122078395E+02  0.00000000000E+00 0. -1.
</event>
<event>
 8    1  0.2500956E-006  0.9118800E+02  0.7816164E-02  0.1184000E+00
        -11   -1    0    0    0    0  0.00000000000E+00  0.00000000000E+00  0.45593999997E+02  0.45594000000E+02  0.51100000000E-03 0.  1.
         11   -1    0    0    0    0 -0.00000000000E+00 -0.00000000000E+00 -0.45593999997E+02  0.45594000000E+02  0.51100000000E-03 0. -1.
         23    2    1    2    0    0  0.00000000000E+00 -0.88817841970E-15 -0.71054273576E-14  0.91188000000E+02  0.91188000000E+02 0.  0.
    9900012    2    3    3    0    0 -0.11793037990E+02 -0.56034567040E+01  0.34428267952E+02  0.54367080590E+02  0.39999991820E+02 0.  0.
         12    1    3    3    0    0  0.11793037990E+02  0.56034567040E+01 -0.34428267952E+02  0.36820919410E+02  0.00000000000E+00 0. -1.
         11    1    4    4    0    0 -0.98835514368E+01 -0.13587172484E+02  0.16981570391E+02  0.23888691431E+02  0.51100000000E-03 0. -1.
        -11    1    4    4    0    0  0.43003973863E-01 -0.64094631603E+01  0.14222148942E+02  0.15599762438E+02  0.51100000000E-03 0.  1.
         12    1    4    4    0    0 -0.19524905270E+01  0.14393178940E+02  0.32245486194E+01  0.14878626720E+02  0.00000000000E+00 0. -1.
</event>
<event>
 8    1  0.2500956E-006  0.9118800E+02  0.7816164E-02  0.1184000E+00
        -11   -1    0    0    0    0  0.00000000000E+00  0.00000000000E+00  0.45593999997E+02  0.45594000000E+02  0.51100000000E-03 0.  1.
         11   -1    0    0    0    0 -0.00000000000E+00 -0.00000000000E+00 -0.45593999997E+02  0.45594000000E+02  0.51100000000E-03 0. -1.
         23    2    1    2    0    0  0.35527136788E-14  0.00000000000E+00  0.22204460493E-15  0.91188000000E+02  0.91188000000E+02 0.  0.
    9900012    2    3    3    0    0 -0.31350611896E+02 -0.19261672137E+02  0.13808911059E+01  0.54367085562E+02  0.40000003156E+02 0.  0.
         12    1    3    3    0    0  0.31350611896E+02  0.19261672137E+02 -0.13808911059E+01  0.36820914438E+02  0.00000000000E+00 0. -1.
         11    1    4    4    0    0 -0.19106726405E+02 -0.88671216663E+01 -0.70001482365E+01  0.22196732106E+02  0.51100000000E-03 0. -1.
        -11    1    4    4    0    0 -0.19228672439E+02 -0.39457052767E+01  0.20325682633E+00  0.19630378180E+02  0.51100000000E-03 0.  1.
         12    1    4    4    0    0  0.69847869479E+01 -0.64488451944E+01  0.81777825161E+01  0.12539975276E+02  0.00000000000E+00 0. -1.
</event>
<event>
 8    1  0.2500956E-006  0.9118800E+02  0.7816164E-02  0.1184000E+00
        -11   -1    0    0    0    0  0.00000000000E+00  0.00000000000E+00  0.45593999997E+02  0.45594000000E+02  0.51100000000E-03 0.  1.
         11   -1    0    0    0    0 -0.00000000000E+00 -0.00000000000E+00 -0.45593999997E+02  0.45594000000E+02  0.51100000000E-03 0. -1.
         23    2    1    2    0    0 -0.17763568394E-14  0.00000000000E+00  0.00000000000E+00  0.91188000000E+02  0.91188000000E+02 0.  0.
    9900012    2    3    3    0    0  0.12702646527E+02 -0.86066648403E+01  0.33471548494E+02  0.54367130007E+02  0.40000104477E+02 0.  0.
         12    1    3    3    0    0 -0.12702646527E+02  0.86066648403E+01 -0.33471548494E+02  0.36820869993E+02  0.00000000000E+00 0. -1.
         11    1    4    4    0    0  0.39902795580E+01 -0.15041695606E+01 -0.78036323489E+01  0.88927799430E+01  0.51100000000E-03 0. -1.
        -11    1    4    4    0    0  0.63506650235E+01  0.26349900590E+00  0.42413584584E+01  0.76413022320E+01  0.51100000000E-03 0.  1.
        -12    1    4    4    0    0  0.23617019453E+01 -0.73659942857E+01  0.37033822384E+02  0.37833047832E+02  0.00000000000E+00 0.  1.
</event>
<event>
 8    1  0.2500956E-006  0.9118800E+02  0.7816164E-02  0.1184000E+00
        -11   -1    0    0    0    0  0.00000000000E+00  0.00000000000E+00  0.45593999997E+02  0.45594000000E+02  0.51100000000E-03 0. -1.
         11   -1    0    0    0    0 -0.00000000000E+00 -0.00000000000E+00 -0.45593999997E+02  0.45594000000E+02  0.51100000000E-03 0.  1.
         23    2    1    2    0    0  0.00000000000E+00  0.35527136788E-14 -0.35527136788E-14  0.91188000000E+02  0.91188000000E+02 0.  0.
    9900012    2    3    3    0    0 -0.15664577369E+02  0.17391748376E+02 -0.28424077524E+02  0.54367080962E+02  0.39999992670E+02 0.  0.
         12    1    3    3    0    0  0.15664577369E+02 -0.17391748376E+02  0.28424077524E+02  0.36820919038E+02  0.00000000000E+00 0. -1.
         11    1    4    4    0    0  0.19689442737E+01  0.96148832180E+01  0.47430112780E+01  0.10900407199E+02  0.51100000000E-03 0. -1.
        -11    1    4    4    0    0 -0.69996488745E+00  0.35134619385E+01 -0.22965121827E+02  0.23242873885E+02  0.51100000000E-03 0.  1.
         12    1    4    4    0    0 -0.16933556755E+02  0.42634032196E+01 -0.10201966974E+02  0.20223799879E+02  0.00000000000E+00 0. -1.
</event>
<event>
 8    1  0.2500956E-006  0.9118800E+02  0.7816164E-02  0.1184000E+00
        -11   -1    0    0    0    0  0.00000000000E+00  0.00000000000E+00  0.45593999997E+02  0.45594000000E+02  0.51100000000E-03 0.  1.
         11   -1    0    0    0    0 -0.00000000000E+00 -0.00000000000E+00 -0.45593999997E+02  0.45594000000E+02  0.51100000000E-03 0. -1.
         23    2    1    2    0    0  0.17763568394E-14  0.35527136788E-14  0.00000000000E+00  0.91188000000E+02  0.91188000000E+02 0.  0.
    9900012    2    3    3    0    0 -0.10983597124E+02 -0.19905654817E+02 -0.28963853757E+02  0.54367091212E+02  0.40000016037E+02 0.  0.
        -12    1    3    3    0    0  0.10983597124E+02  0.19905654817E+02  0.28963853757E+02  0.36820908788E+02  0.00000000000E+00 0.  1.
         11    1    4    4    0    0 -0.73590054643E+01 -0.10259409273E+02  0.98139011139E+00  0.12663868558E+02  0.51100000000E-03 0. -1.
        -11    1    4    4    0    0 -0.13762629245E+02 -0.11741290775E+02 -0.14879918887E+02  0.23423916393E+02  0.51100000000E-03 0.  1.
         12    1    4    4    0    0  0.10138037585E+02  0.20950452317E+01 -0.15065324981E+02  0.18279306261E+02  0.00000000000E+00 0. -1.
</event>
<event>
 8    1  0.2500956E-006  0.9118800E+02  0.7816164E-02  0.1184000E+00
        -11   -1    0    0    0    0  0.00000000000E+00  0.00000000000E+00  0.45593999997E+02  0.45594000000E+02  0.51100000000E-03 0. -1.
         11   -1    0    0    0    0 -0.00000000000E+00 -0.00000000000E+00 -0.45593999997E+02  0.45594000000E+02  0.51100000000E-03 0.  1.
         23    2    1    2    0    0 -0.44408920985E-15  0.71054273576E-14  0.17763568394E-14  0.91188000000E+02  0.91188000000E+02 0.  0.
    9900012    2    3    3    0    0  0.23936401303E+01  0.33139526429E+02  0.15868782954E+02  0.54367136384E+02  0.40000119015E+02 0.  0.
        -12    1    3    3    0    0 -0.23936401303E+01 -0.33139526429E+02 -0.15868782954E+02  0.36820863616E+02  0.00000000000E+00 0.  1.
         11    1    4    4    0    0  0.85231712142E+01  0.23791946243E+02  0.14072578053E+02  0.28926434396E+02  0.51100000000E-03 0. -1.
        -11    1    4    4    0    0 -0.13390001366E+02 -0.12840385606E+00  0.16146112864E+00  0.13391590424E+02  0.51100000000E-03 0.  1.
        -12    1    4    4    0    0  0.72604702819E+01  0.94759840415E+01  0.16347437726E+01  0.12049111564E+02  0.00000000000E+00 0.  1.
</event>
<event>
 8    1  0.2500956E-006  0.9118800E+02  0.7816164E-02  0.1184000E+00
        -11   -1    0    0    0    0  0.00000000000E+00  0.00000000000E+00  0.45593999997E+02  0.45594000000E+02  0.51100000000E-03 0.  1.
         11   -1    0    0    0    0 -0.00000000000E+00 -0.00000000000E+00 -0.45593999997E+02  0.45594000000E+02  0.51100000000E-03 0. -1.
         23    2    1    2    0    0  0.13322676296E-14  0.71054273576E-14  0.00000000000E+00  0.91188000000E+02  0.91188000000E+02 0.  0.
    9900012    2    3    3    0    0  0.10093965661E+01  0.27642142991E+02 -0.24303775518E+02  0.54367075853E+02  0.39999981023E+02 0.  0.
        -12    1    3    3    0    0 -0.10093965661E+01 -0.27642142991E+02  0.24303775518E+02  0.36820924147E+02  0.00000000000E+00 0.  1.
         11    1    4    4    0    0  0.11920234150E+01  0.83704982283E+01  0.54897329932E+01  0.10080839698E+02  0.51100000000E-03 0. -1.
        -11    1    4    4    0    0  0.10128273619E+02  0.13657916715E+01 -0.17436134716E+02  0.20210544463E+02  0.51100000000E-03 0.  1.
        -12    1    4    4    0    0 -0.10310900468E+02  0.17905853091E+02 -0.12357373796E+02  0.24075691693E+02  0.00000000000E+00 0.  1.
</event>
<event>
 8    1  0.2500956E-006  0.9118800E+02  0.7816164E-02  0.1184000E+00
        -11   -1    0    0    0    0  0.00000000000E+00  0.00000000000E+00  0.45593999997E+02  0.45594000000E+02  0.51100000000E-03 0.  1.
         11   -1    0    0    0    0 -0.00000000000E+00 -0.00000000000E+00 -0.45593999997E+02  0.45594000000E+02  0.51100000000E-03 0. -1.
         23    2    1    2    0    0  0.00000000000E+00  0.16653345369E-15  0.00000000000E+00  0.91188000000E+02  0.91188000000E+02 0.  0.
    9900012    2    3    3    0    0  0.30966062364E+02 -0.43687120169E+00  0.19917121043E+02  0.54367087662E+02  0.40000007943E+02 0.  0.
         12    1    3    3    0    0 -0.30966062364E+02  0.43687120169E+00 -0.19917121043E+02  0.36820912338E+02  0.00000000000E+00 0. -1.
         11    1    4    4    0    0  0.96747428683E+01 -0.38837378916E+01 -0.27290319894E+00  0.10428736548E+02  0.51100000000E-03 0. -1.
        -11    1    4    4    0    0  0.27096361187E+02 -0.59718036464E+01  0.16465610211E+02  0.32264400633E+02  0.51100000000E-03 0.  1.
        -12    1    4    4    0    0 -0.58050416912E+01  0.94186703363E+01  0.37244140311E+01  0.11673950480E+02  0.00000000000E+00 0.  1.
</event>
<event>
 8    1  0.2500956E-006  0.9118800E+02  0.7816164E-02  0.1184000E+00
        -11   -1    0    0    0    0  0.00000000000E+00  0.00000000000E+00  0.45593999997E+02  0.45594000000E+02  0.51100000000E-03 0. -1.
         11   -1    0    0    0    0 -0.00000000000E+00 -0.00000000000E+00 -0.45593999997E+02  0.45594000000E+02  0.51100000000E-03 0.  1.
         23    2    1    2    0    0  0.88817841970E-15  0.00000000000E+00  0.00000000000E+00  0.91188000000E+02  0.91188000000E+02 0.  0.
    9900012    2    3    3    0    0  0.60750184290E+01  0.34454204037E+02  0.11479747924E+02  0.54367046222E+02  0.39999913472E+02 0.  0.
        -12    1    3    3    0    0 -0.60750184290E+01 -0.34454204037E+02 -0.11479747924E+02  0.36820953778E+02  0.00000000000E+00 0.  1.
         11    1    4    4    0    0 -0.90403093322E+00  0.26628275660E+02 -0.17070111702E+01  0.26698243836E+02  0.51100000000E-03 0. -1.
        -11    1    4    4    0    0 -0.14553252470E+01 -0.43469399773E+01 -0.31932357569E+01  0.55866460064E+01  0.51100000000E-03 0.  1.
         12    1    4    4    0    0  0.84343746092E+01  0.12172868355E+02  0.16379994851E+02  0.22082156379E+02  0.00000000000E+00 0. -1.
</event>
<event>
 8    1  0.2500956E-006  0.9118800E+02  0.7816164E-02  0.1184000E+00
        -11   -1    0    0    0    0  0.00000000000E+00  0.00000000000E+00  0.45593999997E+02  0.45594000000E+02  0.51100000000E-03 0.  1.
         11   -1    0    0    0    0 -0.00000000000E+00 -0.00000000000E+00 -0.45593999997E+02  0.45594000000E+02  0.51100000000E-03 0. -1.
         23    2    1    2    0    0  0.35527136788E-14  0.00000000000E+00  0.00000000000E+00  0.91188000000E+02  0.91188000000E+02 0.  0.
    9900012    2    3    3    0    0 -0.22629171861E+02 -0.27603315161E+02  0.90419252818E+01  0.54367097787E+02  0.40000031025E+02 0.  0.
         12    1    3    3    0    0  0.22629171861E+02  0.27603315161E+02 -0.90419252818E+01  0.36820902213E+02  0.00000000000E+00 0. -1.
         11    1    4    4    0    0 -0.28663994724E+01 -0.18831926693E+02 -0.92305859416E+01  0.21167461492E+02  0.51100000000E-03 0. -1.
        -11    1    4    4    0    0  0.14228510344E+01  0.87202977160E+00 -0.18061787385E+01  0.24591101816E+01  0.51100000000E-03 0.  1.
        -12    1    4    4    0    0 -0.21185623423E+02 -0.96434182397E+01  0.20078689962E+02  0.30740526114E+02  0.00000000000E+00 0.  1.
</event>
<event>
 8    1  0.2500956E-006  0.9118800E+02  0.7816164E-02  0.1184000E+00
        -11   -1    0    0    0    0  0.00000000000E+00  0.00000000000E+00  0.45593999997E+02  0.45594000000E+02  0.51100000000E-03 0.  1.
         11   -1    0    0    0    0 -0.00000000000E+00 -0.00000000000E+00 -0.45593999997E+02  0.45594000000E+02  0.51100000000E-03 0. -1.
         23    2    1    2    0    0  0.00000000000E+00 -0.35527136788E-14  0.00000000000E+00  0.91188000000E+02  0.91188000000E+02 0.  0.
    9900012    2    3    3    0    0 -0.10675793816E+02  0.30034835793E+02  0.18431380084E+02  0.54367086018E+02  0.40000004195E+02 0.  0.
         12    1    3    3    0    0  0.10675793816E+02 -0.30034835793E+02 -0.18431380084E+02  0.36820913982E+02  0.00000000000E+00 0. -1.
         11    1    4    4    0    0  0.94415439259E+00  0.16088459996E+02  0.24178710442E+01  0.16296504939E+02  0.51100000000E-03 0. -1.
        -11    1    4    4    0    0 -0.62792928559E+01  0.17424988217E+02 -0.23145370196E+01  0.18665926578E+02  0.51100000000E-03 0.  1.
        -12    1    4    4    0    0 -0.53406553525E+01 -0.34786124207E+01  0.18328046059E+02  0.19404654501E+02  0.00000000000E+00 0.  1.
</event>
<event>
 8    1  0.2500956E-006  0.9118800E+02  0.7816164E-02  0.1184000E+00
        -11   -1    0    0    0    0  0.00000000000E+00  0.00000000000E+00  0.45593999997E+02  0.45594000000E+02  0.51100000000E-03 0.  1.
         11   -1    0    0    0    0 -0.00000000000E+00 -0.00000000000E+00 -0.45593999997E+02  0.45594000000E+02  0.51100000000E-03 0. -1.
         23    2    1    2    0    0 -0.88817841970E-15 -0.35527136788E-14  0.00000000000E+00  0.91188000000E+02  0.91188000000E+02 0.  0.
    9900012    2    3    3    0    0 -0.70084463376E+01 -0.16294551474E+02 -0.32266809390E+02  0.54367113047E+02  0.40000065813E+02 0.  0.
        -12    1    3    3    0    0  0.70084463376E+01  0.16294551474E+02  0.32266809390E+02  0.36820886953E+02  0.00000000000E+00 0.  1.
         11    1    4    4    0    0 -0.15086155256E+02 -0.66248452339E+01 -0.67782440518E+01  0.17816431951E+02  0.51100000000E-03 0. -1.
        -11    1    4    4    0    0 -0.44803458961E+01  0.46654798351E+01 -0.31731009574E+01  0.72047742080E+01  0.51100000000E-03 0.  1.
         12    1    4    4    0    0  0.12558054815E+02 -0.14335186075E+02 -0.22315464381E+02  0.29345906888E+02  0.00000000000E+00 0. -1.
</event>
<event>
 8    1  0.2500956E-006  0.9118800E+02  0.7816164E-02  0.1184000E+00
        -11   -1    0    0    0    0  0.00000000000E+00  0.00000000000E+00  0.45593999997E+02  0.45594000000E+02  0.51100000000E-03 0.  1.
         11   -1    0    0    0    0 -0.00000000000E+00 -0.00000000000E+00 -0.45593999997E+02  0.45594000000E+02  0.51100000000E-03 0. -1.
         23    2    1    2    0    0  0.35527136788E-14 -0.35527136788E-14 -0.35527136788E-14  0.91188000000E+02  0.91188000000E+02 0.  0.
    9900012    2    3    3    0    0 -0.16452776487E+02  0.23189633347E+02  0.23395020211E+02  0.54367083124E+02  0.39999997597E+02 0.  0.
         12    1    3    3    0    0  0.16452776487E+02 -0.23189633347E+02 -0.23395020211E+02  0.36820916876E+02  0.00000000000E+00 0. -1.
         11    1    4    4    0    0 -0.21976608199E+01  0.58412182476E+01  0.18272968611E+02  0.19309348146E+02  0.51100000000E-03 0. -1.
        -11    1    4    4    0    0 -0.78775698503E+01  0.96754203630E+01  0.16004853559E+02  0.20293476874E+02  0.51100000000E-03 0.  1.
         12    1    4    4    0    0 -0.63775458171E+01  0.76729947362E+01 -0.10882801959E+02  0.14764258103E+02  0.00000000000E+00 0. -1.
</event>
<event>
 8    1  0.2500956E-006  0.9118800E+02  0.7816164E-02  0.1184000E+00
        -11   -1    0    0    0    0  0.00000000000E+00  0.00000000000E+00  0.45593999997E+02  0.45594000000E+02  0.51100000000E-03 0.  1.
         11   -1    0    0    0    0 -0.00000000000E+00 -0.00000000000E+00 -0.45593999997E+02  0.45594000000E+02  0.51100000000E-03 0. -1.
         23    2    1    2    0    0  0.00000000000E+00  0.26645352591E-14  0.35527136788E-14  0.91188000000E+02  0.91188000000E+02 0.  0.
    9900012    2    3    3    0    0 -0.19698616525E+02 -0.43563513302E+01 -0.30802018057E+02  0.54367114536E+02  0.40000069209E+02 0.  0.
        -12    1    3    3    0    0  0.19698616525E+02  0.43563513302E+01  0.30802018057E+02  0.36820885464E+02  0.00000000000E+00 0.  1.
         11    1    4    4    0    0 -0.84957493224E+01  0.33282280508E+01  0.19306018999E+01  0.93264185229E+01  0.51100000000E-03 0. -1.
        -11    1    4    4    0    0 -0.68830833596E+00  0.81740214137E+01 -0.13111712810E+01  0.83070791994E+01  0.51100000000E-03 0.  1.
         12    1    4    4    0    0 -0.10514558867E+02 -0.15858600795E+02 -0.31421448676E+02  0.36733616814E+02  0.00000000000E+00 0. -1.
</event>
<event>
 8    1  0.2500956E-006  0.9118800E+02  0.7816164E-02  0.1184000E+00
        -11   -1    0    0    0    0  0.00000000000E+00  0.00000000000E+00  0.45593999997E+02  0.45594000000E+02  0.51100000000E-03 0. -1.
         11   -1    0    0    0    0 -0.00000000000E+00 -0.00000000000E+00 -0.45593999997E+02  0.45594000000E+02  0.51100000000E-03 0.  1.
         23    2    1    2    0    0  0.00000000000E+00  0.00000000000E+00  0.00000000000E+00  0.91188000000E+02  0.91188000000E+02 0.  0.
    9900012    2    3    3    0    0  0.29709678355E+02  0.72325948806E+01 -0.20513483884E+02  0.54367103246E+02  0.40000043470E+02 0.  0.
         12    1    3    3    0    0 -0.29709678355E+02 -0.72325948806E+01  0.20513483884E+02  0.36820896754E+02  0.00000000000E+00 0. -1.
         11    1    4    4    0    0  0.10611321816E+02  0.65016914281E+01 -0.12440271115E+02  0.17596377121E+02  0.51100000000E-03 0. -1.
        -11    1    4    4    0    0  0.25357580469E+02  0.39091511162E+01 -0.12429160536E+02  0.28509163116E+02  0.51100000000E-03 0.  1.
         12    1    4    4    0    0 -0.62592239294E+01 -0.31782476637E+01  0.43559477668E+01  0.82615630094E+01  0.00000000000E+00 0. -1.
</event>
<event>
 8    1  0.2500956E-006  0.9118800E+02  0.7816164E-02  0.1184000E+00
        -11   -1    0    0    0    0  0.00000000000E+00  0.00000000000E+00  0.45593999997E+02  0.45594000000E+02  0.51100000000E-03 0. -1.
         11   -1    0    0    0    0 -0.00000000000E+00 -0.00000000000E+00 -0.45593999997E+02  0.45594000000E+02  0.51100000000E-03 0.  1.
         23    2    1    2    0    0  0.00000000000E+00 -0.35527136788E-14  0.00000000000E+00  0.91188000000E+02  0.91188000000E+02 0.  0.
    9900012    2    3    3    0    0 -0.12647116464E+02 -0.31769946012E+02 -0.13656796892E+02  0.54366985269E+02  0.39999774518E+02 0.  0.
         12    1    3    3    0    0  0.12647116464E+02  0.31769946012E+02  0.13656796892E+02  0.36821014731E+02  0.00000000000E+00 0. -1.
         11    1    4    4    0    0 -0.21481903953E+02 -0.15158233721E+02 -0.13283522522E+02  0.29456683755E+02  0.51100000000E-03 0. -1.
        -11    1    4    4    0    0 -0.12696571582E+01 -0.18018890606E+01 -0.57785631774E+01  0.61847090588E+01  0.51100000000E-03 0.  1.
         12    1    4    4    0    0  0.10104444647E+02 -0.14809823230E+02  0.54052888073E+01  0.18725592456E+02  0.00000000000E+00 0. -1.
</event>
<event>
 8    1  0.2500956E-006  0.9118800E+02  0.7816164E-02  0.1184000E+00
        -11   -1    0    0    0    0  0.00000000000E+00  0.00000000000E+00  0.45593999997E+02  0.45594000000E+02  0.51100000000E-03 0.  1.
         11   -1    0    0    0    0 -0.00000000000E+00 -0.00000000000E+00 -0.45593999997E+02  0.45594000000E+02  0.51100000000E-03 0. -1.
         23    2    1    2    0    0 -0.88817841970E-15  0.17763568394E-14 -0.71054273576E-14  0.91188000000E+02  0.91188000000E+02 0.  0.
    9900012    2    3    3    0    0 -0.77282273335E+01 -0.13721790115E+02 -0.33283123872E+02  0.54367090772E+02  0.40000015033E+02 0.  0.
        -12    1    3    3    0    0  0.77282273335E+01  0.13721790115E+02  0.33283123872E+02  0.36820909228E+02  0.00000000000E+00 0.  1.
         11    1    4    4    0    0 -0.10903320366E+02 -0.59108547160E+01 -0.70921655333E+01  0.14287036455E+02  0.51100000000E-03 0. -1.
        -11    1    4    4    0    0  0.70136302235E+01 -0.16388529334E+02 -0.78630050357E+01  0.19483371143E+02  0.51100000000E-03 0.  1.
        -12    1    4    4    0    0 -0.38385371915E+01  0.85775939350E+01 -0.18327953303E+02  0.20596683174E+02  0.00000000000E+00 0.  1.
</event>
<event>
 8    1  0.2500956E-006  0.9118800E+02  0.7816164E-02  0.1184000E+00
        -11   -1    0    0    0    0  0.00000000000E+00  0.00000000000E+00  0.45593999997E+02  0.45594000000E+02  0.51100000000E-03 0.  1.
         11   -1    0    0    0    0 -0.00000000000E+00 -0.00000000000E+00 -0.45593999997E+02  0.45594000000E+02  0.51100000000E-03 0. -1.
         23    2    1    2    0    0  0.17763568394E-14  0.00000000000E+00  0.00000000000E+00  0.91188000000E+02  0.91188000000E+02 0.  0.
    9900012    2    3    3    0    0 -0.14142150413E+02 -0.25409426539E+02  0.22586399547E+02  0.54367016582E+02  0.39999845902E+02 0.  0.
         12    1    3    3    0    0  0.14142150413E+02  0.25409426539E+02 -0.22586399547E+02  0.36820983418E+02  0.00000000000E+00 0. -1.
         11    1    4    4    0    0 -0.11376972364E+02 -0.31156036634E+02  0.10268828179E+02  0.34721505603E+02  0.51100000000E-03 0.  1.
        -11    1    4    4    0    0 -0.54227109638E+01  0.45768337361E+01  0.10945073382E+00  0.70968430283E+01  0.51100000000E-03 0. -1.
        -12    1    4    4    0    0  0.26575329154E+01  0.11697763580E+01  0.12208120634E+02  0.12548667951E+02  0.00000000000E+00 0.  1.
</event>
<event>
 8    1  0.2500956E-006  0.9118800E+02  0.7816164E-02  0.1184000E+00
        -11   -1    0    0    0    0  0.00000000000E+00  0.00000000000E+00  0.45593999997E+02  0.45594000000E+02  0.51100000000E-03 0. -1.
         11   -1    0    0    0    0 -0.00000000000E+00 -0.00000000000E+00 -0.45593999997E+02  0.45594000000E+02  0.51100000000E-03 0.  1.
         23    2    1    2    0    0  0.44408920985E-15  0.35527136788E-14  0.00000000000E+00  0.91188000000E+02  0.91188000000E+02 0.  0.
    9900012    2    3    3    0    0  0.25515868435E+01 -0.14165940981E+02 -0.33890932526E+02  0.54367084927E+02  0.40000001709E+02 0.  0.
         12    1    3    3    0    0 -0.25515868435E+01  0.14165940981E+02  0.33890932526E+02  0.36820915073E+02  0.00000000000E+00 0. -1.
         11    1    4    4    0    0  0.61831224456E+01 -0.20024791400E+01 -0.17108933677E+00  0.65015534840E+01  0.51100000000E-03 0. -1.
        -11    1    4    4    0    0 -0.74562368376E+01  0.82395379569E+01 -0.44239032583E+01  0.11960617619E+02  0.51100000000E-03 0.  1.
        -12    1    4    4    0    0  0.38247012355E+01 -0.20402999798E+02 -0.29295939931E+02  0.35904913824E+02  0.00000000000E+00 0.  1.
</event>
<event>
 8    1  0.2500956E-006  0.9118800E+02  0.7816164E-02  0.1184000E+00
        -11   -1    0    0    0    0  0.00000000000E+00  0.00000000000E+00  0.45593999997E+02  0.45594000000E+02  0.51100000000E-03 0. -1.
         11   -1    0    0    0    0 -0.00000000000E+00 -0.00000000000E+00 -0.45593999997E+02  0.45594000000E+02  0.51100000000E-03 0.  1.
         23    2    1    2    0    0 -0.22204460493E-15  0.00000000000E+00  0.35527136788E-14  0.91188000000E+02  0.91188000000E+02 0.  0.
    9900012    2    3    3    0    0  0.66893554608E+00 -0.25632044810E+02  0.26425978491E+02  0.54367061186E+02  0.39999947586E+02 0.  0.
        -12    1    3    3    0    0 -0.66893554608E+00  0.25632044810E+02 -0.26425978491E+02  0.36820938814E+02  0.00000000000E+00 0.  1.
         11    1    4    4    0    0 -0.19006409938E+01 -0.46777849514E+01  0.32328509417E+01  0.59954510849E+01  0.51100000000E-03 0. -1.
        -11    1    4    4    0    0 -0.95177114158E+01 -0.32800509778E+01  0.24933225876E+02  0.26888869776E+02  0.51100000000E-03 0.  1.
         12    1    4    4    0    0  0.12087287956E+02 -0.17674208881E+02 -0.17400983265E+01  0.21482740325E+02  0.00000000000E+00 0. -1.
</event>
<event>
 8    1  0.2500956E-006  0.9118800E+02  0.7816164E-02  0.1184000E+00
        -11   -1    0    0    0    0  0.00000000000E+00  0.00000000000E+00  0.45593999997E+02  0.45594000000E+02  0.51100000000E-03 0. -1.
         11   -1    0    0    0    0 -0.00000000000E+00 -0.00000000000E+00 -0.45593999997E+02  0.45594000000E+02  0.51100000000E-03 0.  1.
         23    2    1    2    0    0 -0.35527136788E-14  0.00000000000E+00  0.00000000000E+00  0.91188000000E+02  0.91188000000E+02 0.  0.
    9900012    2    3    3    0    0  0.15784133618E+02 -0.26562078278E+02  0.20027437797E+02  0.54367066535E+02  0.39999959779E+02 0.  0.
        -12    1    3    3    0    0 -0.15784133618E+02  0.26562078278E+02 -0.20027437797E+02  0.36820933465E+02  0.00000000000E+00 0.  1.
         11    1    4    4    0    0  0.11676461240E+02  0.58396877465E+00  0.63340194289E+00  0.11708200755E+02  0.51100000000E-03 0.  1.
        -11    1    4    4    0    0  0.93070352277E+01  0.14993454617E+00  0.10595188812E+01  0.93683491406E+01  0.51100000000E-03 0. -1.
         12    1    4    4    0    0 -0.51993628497E+01 -0.27295981599E+02  0.18334516973E+02  0.33290516639E+02  0.00000000000E+00 0. -1.
</event>
<event>
 8    1  0.2500956E-006  0.9118800E+02  0.7816164E-02  0.1184000E+00
        -11   -1    0    0    0    0  0.00000000000E+00  0.00000000000E+00  0.45593999997E+02  0.45594000000E+02  0.51100000000E-03 0.  1.
         11   -1    0    0    0    0 -0.00000000000E+00 -0.00000000000E+00 -0.45593999997E+02  0.45594000000E+02  0.51100000000E-03 0. -1.
         23    2    1    2    0    0  0.00000000000E+00  0.35527136788E-14  0.00000000000E+00  0.91188000000E+02  0.91188000000E+02 0.  0.
    9900012    2    3    3    0    0  0.30789503809E+02 -0.19162486661E+02  0.63712758436E+01  0.54366978888E+02  0.39999759971E+02 0.  0.
         12    1    3    3    0    0 -0.30789503809E+02  0.19162486661E+02 -0.63712758436E+01  0.36821021112E+02  0.00000000000E+00 0. -1.
         11    1    4    4    0    0  0.31075054469E+01 -0.68338480814E+01 -0.61691803337E+01  0.97168336383E+01  0.51100000000E-03 0. -1.
        -11    1    4    4    0    0 -0.38481530497E+01 -0.49271129022E+01 -0.48286261274E+01  0.78993894691E+01  0.51100000000E-03 0.  1.
        -12    1    4    4    0    0  0.31530151411E+02 -0.74015256775E+01  0.17369082305E+02  0.36750755781E+02  0.00000000000E+00 0.  1.
</event>
<event>
 8    1  0.2500956E-006  0.9118800E+02  0.7816164E-02  0.1184000E+00
        -11   -1    0    0    0    0  0.00000000000E+00  0.00000000000E+00  0.45593999997E+02  0.45594000000E+02  0.51100000000E-03 0.  1.
         11   -1    0    0    0    0 -0.00000000000E+00 -0.00000000000E+00 -0.45593999997E+02  0.45594000000E+02  0.51100000000E-03 0. -1.
         23    2    1    2    0    0  0.00000000000E+00  0.35527136788E-14  0.10658141036E-13  0.91188000000E+02  0.91188000000E+02 0.  0.
    9900012    2    3    3    0    0 -0.19432685751E+02  0.16024416128E+02  0.26858314312E+02  0.54367078836E+02  0.39999987821E+02 0.  0.
         12    1    3    3    0    0  0.19432685751E+02 -0.16024416128E+02 -0.26858314312E+02  0.36820921164E+02  0.00000000000E+00 0. -1.
         11    1    4    4    0    0  0.10386453276E+01  0.95623502565E+01 -0.66239343408E+01  0.11678777032E+02  0.51100000000E-03 0. -1.
        -11    1    4    4    0    0 -0.11821948542E+02 -0.42422094976E+01  0.13655086728E+02  0.18553064506E+02  0.51100000000E-03 0.  1.
         12    1    4    4    0    0 -0.86493825366E+01  0.10704275369E+02  0.19827161924E+02  0.24135237298E+02  0.00000000000E+00 0. -1.
</event>
<event>
 8    1  0.2500956E-006  0.9118800E+02  0.7816164E-02  0.1184000E+00
        -11   -1    0    0    0    0  0.00000000000E+00  0.00000000000E+00  0.45593999997E+02  0.45594000000E+02  0.51100000000E-03 0.  1.
         11   -1    0    0    0    0 -0.00000000000E+00 -0.00000000000E+00 -0.45593999997E+02  0.45594000000E+02  0.51100000000E-03 0. -1.
         23    2    1    2    0    0  0.71054273576E-14  0.00000000000E+00 -0.88817841970E-15  0.91188000000E+02  0.91188000000E+02 0.  0.
    9900012    2    3    3    0    0  0.35293555284E+02  0.10266725583E+02  0.21771298634E+01  0.54367073977E+02  0.39999976744E+02 0.  0.
         12    1    3    3    0    0 -0.35293555284E+02 -0.10266725583E+02 -0.21771298634E+01  0.36820926023E+02  0.00000000000E+00 0. -1.
         11    1    4    4    0    0 -0.73348806519E+00  0.29798857559E+01 -0.26896654656E+00  0.30805952549E+01  0.51100000000E-03 0. -1.
        -11    1    4    4    0    0  0.38704356767E+02  0.30414833868E+01  0.11879899630E+02  0.40600614151E+02  0.51100000000E-03 0.  1.
        -12    1    4    4    0    0 -0.26773134175E+01  0.42453564402E+01 -0.94338032199E+01  0.10685864571E+02  0.00000000000E+00 0.  1.
</event>
<event>
 8    1  0.2500956E-006  0.9118800E+02  0.7816164E-02  0.1184000E+00
        -11   -1    0    0    0    0  0.00000000000E+00  0.00000000000E+00  0.45593999997E+02  0.45594000000E+02  0.51100000000E-03 0. -1.
         11   -1    0    0    0    0 -0.00000000000E+00 -0.00000000000E+00 -0.45593999997E+02  0.45594000000E+02  0.51100000000E-03 0.  1.
         23    2    1    2    0    0  0.00000000000E+00  0.00000000000E+00  0.71054273576E-14  0.91188000000E+02  0.91188000000E+02 0.  0.
    9900012    2    3    3    0    0 -0.15010267808E+01 -0.14614514476E+02 -0.33763040260E+02  0.54367082000E+02  0.39999995036E+02 0.  0.
         12    1    3    3    0    0  0.15010267808E+01  0.14614514476E+02  0.33763040260E+02  0.36820918000E+02  0.00000000000E+00 0. -1.
         11    1    4    4    0    0  0.58179668843E+01 -0.13267417187E+02 -0.19366217340E+01  0.14615868140E+02  0.51100000000E-03 0. -1.
        -11    1    4    4    0    0 -0.79871168954E+01 -0.51751695925E+01 -0.33994346968E+02  0.35301445333E+02  0.51100000000E-03 0.  1.
         12    1    4    4    0    0  0.66812323030E+00  0.38280723036E+01  0.21679284418E+01  0.44497685267E+01  0.00000000000E+00 0. -1.
</event>
<event>
 8    1  0.2500956E-006  0.9118800E+02  0.7816164E-02  0.1184000E+00
        -11   -1    0    0    0    0  0.00000000000E+00  0.00000000000E+00  0.45593999997E+02  0.45594000000E+02  0.51100000000E-03 0.  1.
         11   -1    0    0    0    0 -0.00000000000E+00 -0.00000000000E+00 -0.45593999997E+02  0.45594000000E+02  0.51100000000E-03 0. -1.
         23    2    1    2    0    0  0.35527136788E-14  0.00000000000E+00  0.17763568394E-14  0.91188000000E+02  0.91188000000E+02 0.  0.
    9900012    2    3    3    0    0  0.31047681112E+02 -0.19580777288E+02  0.29008774168E+01  0.54367076174E+02  0.39999981754E+02 0.  0.
         12    1    3    3    0    0 -0.31047681112E+02  0.19580777288E+02 -0.29008774168E+01  0.36820923826E+02  0.00000000000E+00 0. -1.
         11    1    4    4    0    0  0.55582271303E+01 -0.87209550640E+00 -0.12280032647E+02  0.13507540171E+02  0.51100000000E-03 0. -1.
        -11    1    4    4    0    0  0.57859089929E+01 -0.16671240118E+02  0.10395651787E+02  0.20481127075E+02  0.51100000000E-03 0.  1.
        -12    1    4    4    0    0  0.19703544988E+02 -0.20374416638E+01  0.47852582766E+01  0.20378408927E+02  0.00000000000E+00 0.  1.
</event>
<event>
 8    1  0.2500956E-006  0.9118800E+02  0.7816164E-02  0.1184000E+00
        -11   -1    0    0    0    0  0.00000000000E+00  0.00000000000E+00  0.45593999997E+02  0.45594000000E+02  0.51100000000E-03 0. -1.
         11   -1    0    0    0    0 -0.00000000000E+00 -0.00000000000E+00 -0.45593999997E+02  0.45594000000E+02  0.51100000000E-03 0.  1.
         23    2    1    2    0    0  0.00000000000E+00  0.00000000000E+00  0.35527136788E-14  0.91188000000E+02  0.91188000000E+02 0.  0.
    9900012    2    3    3    0    0  0.32517434499E+02 -0.73284855339E+01 -0.15642564761E+02  0.54367080961E+02  0.39999992666E+02 0.  0.
         12    1    3    3    0    0 -0.32517434499E+02  0.73284855339E+01  0.15642564761E+02  0.36820919039E+02  0.00000000000E+00 0. -1.
         11    1    4    4    0    0  0.93319736521E+01 -0.17341518374E+02 -0.96198308387E+01  0.21917005666E+02  0.51100000000E-03 0. -1.
        -11    1    4    4    0    0  0.25429412471E+02  0.80471554900E+01 -0.90828432636E+01  0.28176404527E+02  0.51100000000E-03 0.  1.
        -12    1    4    4    0    0 -0.22439516237E+01  0.19658773496E+01  0.30601093416E+01  0.42736707671E+01  0.00000000000E+00 0.  1.
</event>
<event>
 8    1  0.2500956E-006  0.9118800E+02  0.7816164E-02  0.1184000E+00
        -11   -1    0    0    0    0  0.00000000000E+00  0.00000000000E+00  0.45593999997E+02  0.45594000000E+02  0.51100000000E-03 0.  1.
         11   -1    0    0    0    0 -0.00000000000E+00 -0.00000000000E+00 -0.45593999997E+02  0.45594000000E+02  0.51100000000E-03 0. -1.
         23    2    1    2    0    0  0.00000000000E+00  0.00000000000E+00 -0.17763568394E-14  0.91188000000E+02  0.91188000000E+02 0.  0.
    9900012    2    3    3    0    0  0.17826405965E+02 -0.30966965193E+02  0.88908458898E+01  0.54367070849E+02  0.39999969615E+02 0.  0.
         12    1    3    3    0    0 -0.17826405965E+02  0.30966965193E+02 -0.88908458898E+01  0.36820929151E+02  0.00000000000E+00 0. -1.
         11    1    4    4    0    0 -0.82895073015E+00 -0.89512004883E+00 -0.10598004278E+02  0.10667993914E+02  0.51100000000E-03 0. -1.
        -11    1    4    4    0    0  0.13523861344E+02 -0.90342729336E+01  0.13749602899E+02  0.21297053628E+02  0.51100000000E-03 0.  1.
         12    1    4    4    0    0  0.51314953513E+01 -0.21037572210E+02  0.57392472693E+01  0.22402023307E+02  0.00000000000E+00 0. -1.
</event>
<event>
 8    1  0.2500956E-006  0.9118800E+02  0.7816164E-02  0.1184000E+00
        -11   -1    0    0    0    0  0.00000000000E+00  0.00000000000E+00  0.45593999997E+02  0.45594000000E+02  0.51100000000E-03 0. -1.
         11   -1    0    0    0    0 -0.00000000000E+00 -0.00000000000E+00 -0.45593999997E+02  0.45594000000E+02  0.51100000000E-03 0.  1.
         23    2    1    2    0    0  0.35527136788E-14  0.35527136788E-14  0.11102230246E-15  0.91188000000E+02  0.91188000000E+02 0.  0.
    9900012    2    3    3    0    0  0.29460446190E+02 -0.22080565052E+02 -0.56042011090E+00  0.54367037038E+02  0.39999892536E+02 0.  0.
        -12    1    3    3    0    0 -0.29460446190E+02  0.22080565052E+02  0.56042011090E+00  0.36820962962E+02  0.00000000000E+00 0.  1.
         11    1    4    4    0    0  0.10899227395E+02  0.72793617694E+01  0.44491266363E+00  0.13114122659E+02  0.51100000000E-03 0. -1.
        -11    1    4    4    0    0  0.37858270728E+00  0.33684109425E+01  0.15471674564E+01  0.37260226171E+01  0.51100000000E-03 0.  1.
         12    1    4    4    0    0  0.18182636087E+02 -0.32728337764E+02 -0.25525002309E+01  0.37526891762E+02  0.00000000000E+00 0. -1.
</event>
<event>
 8    1  0.2500956E-006  0.9118800E+02  0.7816164E-02  0.1184000E+00
        -11   -1    0    0    0    0  0.00000000000E+00  0.00000000000E+00  0.45593999997E+02  0.45594000000E+02  0.51100000000E-03 0. -1.
         11   -1    0    0    0    0 -0.00000000000E+00 -0.00000000000E+00 -0.45593999997E+02  0.45594000000E+02  0.51100000000E-03 0.  1.
         23    2    1    2    0    0 -0.12212453271E-14  0.00000000000E+00 -0.35527136788E-14  0.91188000000E+02  0.91188000000E+02 0.  0.
    9900012    2    3    3    0    0 -0.89523640570E+00  0.20016113506E+02  0.30892325781E+02  0.54367054327E+02  0.39999931949E+02 0.  0.
        -12    1    3    3    0    0  0.89523640570E+00 -0.20016113506E+02 -0.30892325781E+02  0.36820945673E+02  0.00000000000E+00 0.  1.
         11    1    4    4    0    0  0.78383329940E+01  0.17375871433E+02  0.14868709620E+02  0.24175171110E+02  0.51100000000E-03 0. -1.
        -11    1    4    4    0    0 -0.11880276562E+02  0.69695929922E+01  0.51241832368E+00  0.13783278654E+02  0.51100000000E-03 0.  1.
         12    1    4    4    0    0  0.31467071620E+01 -0.43293509190E+01  0.15511197837E+02  0.16408604562E+02  0.00000000000E+00 0. -1.
</event>
<event>
 8    1  0.2500956E-006  0.9118800E+02  0.7816164E-02  0.1184000E+00
        -11   -1    0    0    0    0  0.00000000000E+00  0.00000000000E+00  0.45593999997E+02  0.45594000000E+02  0.51100000000E-03 0.  1.
         11   -1    0    0    0    0 -0.00000000000E+00 -0.00000000000E+00 -0.45593999997E+02  0.45594000000E+02  0.51100000000E-03 0. -1.
         23    2    1    2    0    0  0.00000000000E+00 -0.44408920985E-15  0.71054273576E-14  0.91188000000E+02  0.91188000000E+02 0.  0.
    9900012    2    3    3    0    0  0.66535234934E+01  0.13999168393E+01  0.36187720872E+02  0.54367078177E+02  0.39999986319E+02 0.  0.
         12    1    3    3    0    0 -0.66535234934E+01 -0.13999168393E+01 -0.36187720872E+02  0.36820921823E+02  0.00000000000E+00 0. -1.
         11    1    4    4    0    0 -0.13681933853E+02  0.67141904338E+01  0.13185890871E+02  0.20152999416E+02  0.51100000000E-03 0. -1.
        -11    1    4    4    0    0 -0.47264085249E+00  0.27030000036E+01  0.43478012957E+01  0.51413008823E+01  0.51100000000E-03 0.  1.
         12    1    4    4    0    0  0.20808098199E+02 -0.80172735982E+01  0.18654028705E+02  0.29072777878E+02  0.00000000000E+00 0. -1.
</event>
<event>
 8    1  0.2500956E-006  0.9118800E+02  0.7816164E-02  0.1184000E+00
        -11   -1    0    0    0    0  0.00000000000E+00  0.00000000000E+00  0.45593999997E+02  0.45594000000E+02  0.51100000000E-03 0.  1.
         11   -1    0    0    0    0 -0.00000000000E+00 -0.00000000000E+00 -0.45593999997E+02  0.45594000000E+02  0.51100000000E-03 0. -1.
         23    2    1    2    0    0 -0.71054273576E-14  0.00000000000E+00 -0.35527136788E-14  0.91188000000E+02  0.91188000000E+02 0.  0.
    9900012    2    3    3    0    0  0.18450284689E+02 -0.67510237540E+01  0.31141463189E+02  0.54367081266E+02  0.39999993363E+02 0.  0.
         12    1    3    3    0    0 -0.18450284689E+02  0.67510237540E+01 -0.31141463189E+02  0.36820918734E+02  0.00000000000E+00 0. -1.
         11    1    4    4    0    0 -0.60312959929E+01 -0.91478136434E+01  0.24836532669E+01  0.11235103899E+02  0.51100000000E-03 0. -1.
        -11    1    4    4    0    0  0.17554858669E+02 -0.30870744336E+01  0.59907381718E+01  0.18804043064E+02  0.51100000000E-03 0.  1.
         12    1    4    4    0    0  0.69267220135E+01  0.54838643230E+01  0.22667071750E+02  0.24327934304E+02  0.00000000000E+00 0. -1.
</event>
<event>
 8    1  0.2500956E-006  0.9118800E+02  0.7816164E-02  0.1184000E+00
        -11   -1    0    0    0    0  0.00000000000E+00  0.00000000000E+00  0.45593999997E+02  0.45594000000E+02  0.51100000000E-03 0. -1.
         11   -1    0    0    0    0 -0.00000000000E+00 -0.00000000000E+00 -0.45593999997E+02  0.45594000000E+02  0.51100000000E-03 0.  1.
         23    2    1    2    0    0 -0.35527136788E-14  0.00000000000E+00  0.00000000000E+00  0.91188000000E+02  0.91188000000E+02 0.  0.
    9900012    2    3    3    0    0  0.21322645437E+02 -0.18730019636E+02  0.23458713670E+02  0.54367080795E+02  0.39999992289E+02 0.  0.
         12    1    3    3    0    0 -0.21322645437E+02  0.18730019636E+02 -0.23458713670E+02  0.36820919205E+02  0.00000000000E+00 0. -1.
         11    1    4    4    0    0 -0.81071596270E+00 -0.14749153789E+02 -0.41849987468E+01  0.15352817743E+02  0.51100000000E-03 0. -1.
        -11    1    4    4    0    0  0.75585704942E+01  0.54600366538E+01  0.14484127619E+02  0.17225967065E+02  0.51100000000E-03 0.  1.
        -12    1    4    4    0    0  0.14574790906E+02 -0.94409025009E+01  0.13159584798E+02  0.21788295988E+02  0.00000000000E+00 0.  1.
</event>
<event>
 8    1  0.2500956E-006  0.9118800E+02  0.7816164E-02  0.1184000E+00
        -11   -1    0    0    0    0  0.00000000000E+00  0.00000000000E+00  0.45593999997E+02  0.45594000000E+02  0.51100000000E-03 0.  1.
         11   -1    0    0    0    0 -0.00000000000E+00 -0.00000000000E+00 -0.45593999997E+02  0.45594000000E+02  0.51100000000E-03 0. -1.
         23    2    1    2    0    0  0.00000000000E+00 -0.17763568394E-14  0.00000000000E+00  0.91188000000E+02  0.91188000000E+02 0.  0.
    9900012    2    3    3    0    0 -0.26686301149E+02 -0.15672544177E+02 -0.19949756344E+02  0.54367080834E+02  0.39999992378E+02 0.  0.
        -12    1    3    3    0    0  0.26686301149E+02  0.15672544177E+02  0.19949756344E+02  0.36820919166E+02  0.00000000000E+00 0.  1.
         11    1    4    4    0    0 -0.25019345469E+02 -0.40669669862E+01 -0.21878724198E+02  0.33484122222E+02  0.51100000000E-03 0. -1.
        -11    1    4    4    0    0 -0.62443660859E+01 -0.11563824260E+02  0.62817606045E+01  0.14566216251E+02  0.51100000000E-03 0.  1.
         12    1    4    4    0    0  0.45774104056E+01 -0.41752930608E-01 -0.43527927511E+01  0.63167423616E+01  0.00000000000E+00 0. -1.
</event>
<event>
 8    1  0.2500956E-006  0.9118800E+02  0.7816164E-02  0.1184000E+00
        -11   -1    0    0    0    0  0.00000000000E+00  0.00000000000E+00  0.45593999997E+02  0.45594000000E+02  0.51100000000E-03 0. -1.
         11   -1    0    0    0    0 -0.00000000000E+00 -0.00000000000E+00 -0.45593999997E+02  0.45594000000E+02  0.51100000000E-03 0.  1.
         23    2    1    2    0    0  0.17763568394E-14 -0.44408920985E-15  0.71054273576E-14  0.91188000000E+02  0.91188000000E+02 0.  0.
    9900012    2    3    3    0    0 -0.93832879365E+01  0.15715989051E+01 -0.35570639432E+02  0.54366995054E+02  0.39999796824E+02 0.  0.
         12    1    3    3    0    0  0.93832879365E+01 -0.15715989051E+01  0.35570639432E+02  0.36821004946E+02  0.00000000000E+00 0. -1.
         11    1    4    4    0    0  0.42441518297E+00 -0.65499338767E+01 -0.19725981716E+02  0.20789326997E+02  0.51100000000E-03 0. -1.
        -11    1    4    4    0    0 -0.10279797959E+02 -0.82147211881E+01 -0.84590314091E+01  0.15643244642E+02  0.51100000000E-03 0.  1.
         12    1    4    4    0    0  0.47209483990E+00  0.16336253970E+02 -0.73856263068E+01  0.17934423416E+02  0.00000000000E+00 0. -1.
</event>
<event>
 8    1  0.2500956E-006  0.9118800E+02  0.7816164E-02  0.1184000E+00
        -11   -1    0    0    0    0  0.00000000000E+00  0.00000000000E+00  0.45593999997E+02  0.45594000000E+02  0.51100000000E-03 0. -1.
         11   -1    0    0    0    0 -0.00000000000E+00 -0.00000000000E+00 -0.45593999997E+02  0.45594000000E+02  0.51100000000E-03 0.  1.
         23    2    1    2    0    0  0.00000000000E+00  0.35527136788E-14  0.00000000000E+00  0.91188000000E+02  0.91188000000E+02 0.  0.
    9900012    2    3    3    0    0  0.11561999174E+02  0.97096873374E+01 -0.33583078818E+02  0.54367067964E+02  0.39999963037E+02 0.  0.
         12    1    3    3    0    0 -0.11561999174E+02 -0.97096873374E+01  0.33583078818E+02  0.36820932036E+02  0.00000000000E+00 0. -1.
         11    1    4    4    0    0  0.59643865263E+01  0.19475606103E+02 -0.30134254299E+02  0.36372330447E+02  0.51100000000E-03 0. -1.
        -11    1    4    4    0    0  0.46214553338E+01  0.10470584788E+01 -0.51578347501E+01  0.70041016862E+01  0.51100000000E-03 0.  1.
         12    1    4    4    0    0  0.97615731411E+00 -0.10812977245E+02  0.17090102309E+01  0.10990635831E+02  0.00000000000E+00 0. -1.
</event>
<event>
 8    1  0.2500956E-006  0.9118800E+02  0.7816164E-02  0.1184000E+00
        -11   -1    0    0    0    0  0.00000000000E+00  0.00000000000E+00  0.45593999997E+02  0.45594000000E+02  0.51100000000E-03 0.  1.
         11   -1    0    0    0    0 -0.00000000000E+00 -0.00000000000E+00 -0.45593999997E+02  0.45594000000E+02  0.51100000000E-03 0. -1.
         23    2    1    2    0    0  0.22204460493E-15  0.17763568394E-14 -0.71054273576E-14  0.91188000000E+02  0.91188000000E+02 0.  0.
    9900012    2    3    3    0    0 -0.15003742169E+01  0.15495407272E+02 -0.33367969826E+02  0.54367079593E+02  0.39999989548E+02 0.  0.
        -12    1    3    3    0    0  0.15003742169E+01 -0.15495407272E+02  0.33367969826E+02  0.36820920407E+02  0.00000000000E+00 0.  1.
         11    1    4    4    0    0  0.74411612745E+00  0.24928829548E+02 -0.29390034562E+02  0.38545744036E+02  0.51100000000E-03 0. -1.
        -11    1    4    4    0    0  0.17152484186E+01  0.23285916577E+01 -0.98068843215E+00  0.30538772582E+01  0.51100000000E-03 0.  1.
        -12    1    4    4    0    0 -0.39597387630E+01 -0.11762013933E+02 -0.29972468313E+01  0.12767458299E+02  0.00000000000E+00 0.  1.
</event>
<event>
 8    1  0.2500956E-006  0.9118800E+02  0.7816164E-02  0.1184000E+00
        -11   -1    0    0    0    0  0.00000000000E+00  0.00000000000E+00  0.45593999997E+02  0.45594000000E+02  0.51100000000E-03 0. -1.
         11   -1    0    0    0    0 -0.00000000000E+00 -0.00000000000E+00 -0.45593999997E+02  0.45594000000E+02  0.51100000000E-03 0.  1.
         23    2    1    2    0    0  0.71054273576E-14  0.88817841970E-15  0.00000000000E+00  0.91188000000E+02  0.91188000000E+02 0.  0.
    9900012    2    3    3    0    0  0.33263040684E+02  0.60891280853E+01 -0.14569578973E+02  0.54367082197E+02  0.39999995485E+02 0.  0.
         12    1    3    3    0    0 -0.33263040684E+02 -0.60891280853E+01  0.14569578973E+02  0.36820917803E+02  0.00000000000E+00 0. -1.
         11    1    4    4    0    0  0.11817512367E+02  0.40919558326E+01  0.54061515586E+01  0.13624396354E+02  0.51100000000E-03 0. -1.
        -11    1    4    4    0    0  0.22357486763E+02 -0.82597393896E+01 -0.84524446076E+01  0.25288818265E+02  0.51100000000E-03 0.  1.
        -12    1    4    4    0    0 -0.91195844573E+00  0.10256911642E+02 -0.11523285924E+02  0.15453867578E+02  0.00000000000E+00 0.  1.
</event>
<event>
 8    1  0.2500956E-006  0.9118800E+02  0.7816164E-02  0.1184000E+00
        -11   -1    0    0    0    0  0.00000000000E+00  0.00000000000E+00  0.45593999997E+02  0.45594000000E+02  0.51100000000E-03 0. -1.
         11   -1    0    0    0    0 -0.00000000000E+00 -0.00000000000E+00 -0.45593999997E+02  0.45594000000E+02  0.51100000000E-03 0.  1.
         23    2    1    2    0    0 -0.71054273576E-14  0.00000000000E+00  0.00000000000E+00  0.91188000000E+02  0.91188000000E+02 0.  0.
    9900012    2    3    3    0    0  0.36686419858E+02  0.21717306194E+01 -0.22772316928E+01  0.54366870196E+02  0.39999512182E+02 0.  0.
        -12    1    3    3    0    0 -0.36686419858E+02 -0.21717306194E+01  0.22772316928E+01  0.36821129804E+02  0.00000000000E+00 0.  1.
         11    1    4    4    0    0  0.32036611642E+02 -0.11618610407E+02  0.26902921078E+01  0.34184415531E+02  0.51100000000E-03 0. -1.
        -11    1    4    4    0    0  0.90941076273E+01  0.78854987607E+01 -0.19228277243E+01  0.12189386816E+02  0.51100000000E-03 0.  1.
         12    1    4    4    0    0 -0.44442994113E+01  0.59048422655E+01 -0.30446960763E+01  0.79930678487E+01  0.00000000000E+00 0. -1.
</event>
<event>
 8    1  0.2500956E-006  0.9118800E+02  0.7816164E-02  0.1184000E+00
        -11   -1    0    0    0    0  0.00000000000E+00  0.00000000000E+00  0.45593999997E+02  0.45594000000E+02  0.51100000000E-03 0. -1.
         11   -1    0    0    0    0 -0.00000000000E+00 -0.00000000000E+00 -0.45593999997E+02  0.45594000000E+02  0.51100000000E-03 0.  1.
         23    2    1    2    0    0  0.00000000000E+00  0.35527136788E-14 -0.35527136788E-14  0.91188000000E+02  0.91188000000E+02 0.  0.
    9900012    2    3    3    0    0  0.12553006461E+02 -0.21699035354E+02  0.26969500522E+02  0.54367081151E+02  0.39999993099E+02 0.  0.
         12    1    3    3    0    0 -0.12553006461E+02  0.21699035354E+02 -0.26969500522E+02  0.36820918849E+02  0.00000000000E+00 0. -1.
         11    1    4    4    0    0  0.13888571245E+01 -0.60898643349E+00  0.62629301369E+01  0.64439182761E+01  0.51100000000E-03 0. -1.
        -11    1    4    4    0    0  0.16594679489E+02 -0.65942027123E+01  0.26019091839E+02  0.31557250152E+02  0.51100000000E-03 0.  1.
         12    1    4    4    0    0 -0.54305301527E+01 -0.14495846208E+02 -0.53125214543E+01  0.16365912722E+02  0.00000000000E+00 0. -1.
</event>
<event>
 8    1  0.2500956E-006  0.9118800E+02  0.7816164E-02  0.1184000E+00
        -11   -1    0    0    0    0  0.00000000000E+00  0.00000000000E+00  0.45593999997E+02  0.45594000000E+02  0.51100000000E-03 0.  1.
         11   -1    0    0    0    0 -0.00000000000E+00 -0.00000000000E+00 -0.45593999997E+02  0.45594000000E+02  0.51100000000E-03 0. -1.
         23    2    1    2    0    0  0.00000000000E+00  0.17763568394E-14  0.00000000000E+00  0.91188000000E+02  0.91188000000E+02 0.  0.
    9900012    2    3    3    0    0  0.50191391814E+01  0.14707399936E+02  0.33380833014E+02  0.54367090401E+02  0.40000014186E+02 0.  0.
         12    1    3    3    0    0 -0.50191391814E+01 -0.14707399936E+02 -0.33380833014E+02  0.36820909599E+02  0.00000000000E+00 0. -1.
         11    1    4    4    0    0 -0.68607605706E+01  0.53583893476E+01  0.32591153587E+01  0.92953862314E+01  0.51100000000E-03 0. -1.
        -11    1    4    4    0    0  0.10325258325E+02  0.19629098512E+02  0.25195443524E+02  0.33566692457E+02  0.51100000000E-03 0.  1.
        -12    1    4    4    0    0  0.15546414274E+01 -0.10280087924E+02  0.49262741318E+01  0.11505011713E+02  0.00000000000E+00 0.  1.
</event>
<event>
 8    1  0.2500956E-006  0.9118800E+02  0.7816164E-02  0.1184000E+00
        -11   -1    0    0    0    0  0.00000000000E+00  0.00000000000E+00  0.45593999997E+02  0.45594000000E+02  0.51100000000E-03 0. -1.
         11   -1    0    0    0    0 -0.00000000000E+00 -0.00000000000E+00 -0.45593999997E+02  0.45594000000E+02  0.51100000000E-03 0.  1.
         23    2    1    2    0    0  0.00000000000E+00  0.00000000000E+00 -0.35527136788E-14  0.91188000000E+02  0.91188000000E+02 0.  0.
    9900012    2    3    3    0    0 -0.55845507081E+01 -0.31698027087E+02  0.17883730133E+02  0.54367082966E+02  0.39999997237E+02 0.  0.
        -12    1    3    3    0    0  0.55845507081E+01  0.31698027087E+02 -0.17883730133E+02  0.36820917034E+02  0.00000000000E+00 0.  1.
         11    1    4    4    0    0  0.60144935200E+00 -0.92748267670E+01  0.12555786495E+02  0.15621521297E+02  0.51100000000E-03 0. -1.
        -11    1    4    4    0    0 -0.11299278737E+02 -0.23036458354E+02 -0.59572254071E+01  0.26340855117E+02  0.51100000000E-03 0.  1.
        -12    1    4    4    0    0  0.51132786768E+01  0.61325803489E+00  0.11285169045E+02  0.12404706551E+02  0.00000000000E+00 0.  1.
</event>
<event>
 8    1  0.2500956E-006  0.9118800E+02  0.7816164E-02  0.1184000E+00
        -11   -1    0    0    0    0  0.00000000000E+00  0.00000000000E+00  0.45593999997E+02  0.45594000000E+02  0.51100000000E-03 0.  1.
         11   -1    0    0    0    0 -0.00000000000E+00 -0.00000000000E+00 -0.45593999997E+02  0.45594000000E+02  0.51100000000E-03 0. -1.
         23    2    1    2    0    0  0.17763568394E-14  0.00000000000E+00  0.00000000000E+00  0.91188000000E+02  0.91188000000E+02 0.  0.
    9900012    2    3    3    0    0  0.83606234309E+01  0.27332128968E+02 -0.23212797556E+02  0.54367091966E+02  0.40000017755E+02 0.  0.
        -12    1    3    3    0    0 -0.83606234309E+01 -0.27332128968E+02  0.23212797556E+02  0.36820908034E+02  0.00000000000E+00 0.  1.
         11    1    4    4    0    0  0.11786522725E+02  0.15964006137E+02  0.32853250535E+01  0.20113800508E+02  0.51100000000E-03 0. -1.
        -11    1    4    4    0    0 -0.24383823450E+01 -0.38372761019E+01 -0.11693618611E+01  0.46944439250E+01  0.51100000000E-03 0.  1.
        -12    1    4    4    0    0 -0.98751694933E+00  0.15205398932E+02 -0.25328760749E+02  0.29558847533E+02  0.00000000000E+00 0.  1.
</event>
<event>
 8    1  0.2500956E-006  0.9118800E+02  0.7816164E-02  0.1184000E+00
        -11   -1    0    0    0    0  0.00000000000E+00  0.00000000000E+00  0.45593999997E+02  0.45594000000E+02  0.51100000000E-03 0. -1.
         11   -1    0    0    0    0 -0.00000000000E+00 -0.00000000000E+00 -0.45593999997E+02  0.45594000000E+02  0.51100000000E-03 0.  1.
         23    2    1    2    0    0  0.00000000000E+00  0.00000000000E+00  0.35527136788E-14  0.91188000000E+02  0.91188000000E+02 0.  0.
    9900012    2    3    3    0    0  0.65989360689E+01  0.26899199408E+02 -0.24262477203E+02  0.54367072716E+02  0.39999973870E+02 0.  0.
         12    1    3    3    0    0 -0.65989360689E+01 -0.26899199408E+02  0.24262477203E+02  0.36820927284E+02  0.00000000000E+00 0. -1.
         11    1    4    4    0    0  0.62785627039E+01 -0.20329993055E+01 -0.29598810347E+01  0.72328647025E+01  0.51100000000E-03 0. -1.
        -11    1    4    4    0    0  0.70722406460E+01 -0.16526933953E+01 -0.12738034648E+02  0.14663066193E+02  0.51100000000E-03 0.  1.
        -12    1    4    4    0    0 -0.67518672811E+01  0.30584892109E+02 -0.85645615200E+01  0.32471141821E+02  0.00000000000E+00 0.  1.
</event>
<event>
 8    1  0.2500956E-006  0.9118800E+02  0.7816164E-02  0.1184000E+00
        -11   -1    0    0    0    0  0.00000000000E+00  0.00000000000E+00  0.45593999997E+02  0.45594000000E+02  0.51100000000E-03 0.  1.
         11   -1    0    0    0    0 -0.00000000000E+00 -0.00000000000E+00 -0.45593999997E+02  0.45594000000E+02  0.51100000000E-03 0. -1.
         23    2    1    2    0    0  0.00000000000E+00 -0.17763568394E-14  0.35527136788E-14  0.91188000000E+02  0.91188000000E+02 0.  0.
    9900012    2    3    3    0    0  0.24107833881E+02 -0.10032574010E+02  0.25960347630E+02  0.54367084139E+02  0.39999999913E+02 0.  0.
         12    1    3    3    0    0 -0.24107833881E+02  0.10032574010E+02 -0.25960347630E+02  0.36820915861E+02  0.00000000000E+00 0. -1.
         11    1    4    4    0    0  0.17342954825E+02  0.10709711282E+02  0.11557571452E+02  0.23431889722E+02  0.51100000000E-03 0. -1.
        -11    1    4    4    0    0  0.52613028326E+01  0.10082596301E+01  0.13514531759E+01  0.55248819830E+01  0.51100000000E-03 0.  1.
        -12    1    4    4    0    0  0.15035762234E+01 -0.21750544923E+02  0.13051323003E+02  0.25410312434E+02  0.00000000000E+00 0.  1.
</event>
<event>
 8    1  0.2500956E-006  0.9118800E+02  0.7816164E-02  0.1184000E+00
        -11   -1    0    0    0    0  0.00000000000E+00  0.00000000000E+00  0.45593999997E+02  0.45594000000E+02  0.51100000000E-03 0.  1.
         11   -1    0    0    0    0 -0.00000000000E+00 -0.00000000000E+00 -0.45593999997E+02  0.45594000000E+02  0.51100000000E-03 0. -1.
         23    2    1    2    0    0  0.00000000000E+00  0.00000000000E+00  0.00000000000E+00  0.91188000000E+02  0.91188000000E+02 0.  0.
    9900012    2    3    3    0    0  0.65758931924E+00 -0.93009061399E+01 -0.35620785950E+02  0.54367086508E+02  0.40000005311E+02 0.  0.
        -12    1    3    3    0    0 -0.65758931924E+00  0.93009061399E+01  0.35620785950E+02  0.36820913492E+02  0.00000000000E+00 0.  1.
         11    1    4    4    0    0 -0.16903040560E+01  0.69548509862E+01 -0.17946257932E+02  0.19320850242E+02  0.51100000000E-03 0. -1.
        -11    1    4    4    0    0  0.34486430873E+01  0.34992323542E+01  0.35260230256E+01  0.60473634628E+01  0.51100000000E-03 0.  1.
         12    1    4    4    0    0 -0.11007497120E+01 -0.19754989480E+02 -0.21200551044E+02  0.28998872803E+02  0.00000000000E+00 0. -1.
</event>
<event>
 8    1  0.2500956E-006  0.9118800E+02  0.7816164E-02  0.1184000E+00
        -11   -1    0    0    0    0  0.00000000000E+00  0.00000000000E+00  0.45593999997E+02  0.45594000000E+02  0.51100000000E-03 0.  1.
         11   -1    0    0    0    0 -0.00000000000E+00 -0.00000000000E+00 -0.45593999997E+02  0.45594000000E+02  0.51100000000E-03 0. -1.
         23    2    1    2    0    0  0.17763568394E-14  0.00000000000E+00 -0.35527136788E-14  0.91188000000E+02  0.91188000000E+02 0.  0.
    9900012    2    3    3    0    0  0.15449606038E+02  0.11214936833E+02 -0.31485158113E+02  0.54367077737E+02  0.39999985317E+02 0.  0.
        -12    1    3    3    0    0 -0.15449606038E+02 -0.11214936833E+02  0.31485158113E+02  0.36820922263E+02  0.00000000000E+00 0.  1.
         11    1    4    4    0    0  0.24075319762E+02  0.85543564199E+01 -0.29783212930E+02  0.39240767170E+02  0.51100000000E-03 0. -1.
        -11    1    4    4    0    0 -0.18433080280E+01  0.86169498461E+00  0.50153834377E+01  0.54124277382E+01  0.51100000000E-03 0.  1.
         12    1    4    4    0    0 -0.67824056963E+01  0.17988854282E+01 -0.67173286205E+01  0.97138828286E+01  0.00000000000E+00 0. -1.
</event>
<event>
 8    1  0.2500956E-006  0.9118800E+02  0.7816164E-02  0.1184000E+00
        -11   -1    0    0    0    0  0.00000000000E+00  0.00000000000E+00  0.45593999997E+02  0.45594000000E+02  0.51100000000E-03 0. -1.
         11   -1    0    0    0    0 -0.00000000000E+00 -0.00000000000E+00 -0.45593999997E+02  0.45594000000E+02  0.51100000000E-03 0.  1.
         23    2    1    2    0    0  0.17763568394E-14  0.00000000000E+00  0.17763568394E-14  0.91188000000E+02  0.91188000000E+02 0.  0.
    9900012    2    3    3    0    0 -0.98285467420E+01  0.35114503268E+02 -0.51137931232E+01  0.54367088130E+02  0.40000009010E+02 0.  0.
         12    1    3    3    0    0  0.98285467420E+01 -0.35114503268E+02  0.51137931232E+01  0.36820911870E+02  0.00000000000E+00 0. -1.
         11    1    4    4    0    0 -0.34902624908E-01  0.35919625282E+01  0.68556079032E+01  0.77396881708E+01  0.51100000000E-03 0. -1.
        -11    1    4    4    0    0 -0.14657000036E+02  0.65586890815E+01 -0.13738625037E+02  0.21132767700E+02  0.51100000000E-03 0.  1.
         12    1    4    4    0    0  0.48633559188E+01  0.24963851658E+02  0.17692240103E+01  0.25494632259E+02  0.00000000000E+00 0. -1.
</event>
<event>
 8    1  0.2500956E-006  0.9118800E+02  0.7816164E-02  0.1184000E+00
        -11   -1    0    0    0    0  0.00000000000E+00  0.00000000000E+00  0.45593999997E+02  0.45594000000E+02  0.51100000000E-03 0.  1.
         11   -1    0    0    0    0 -0.00000000000E+00 -0.00000000000E+00 -0.45593999997E+02  0.45594000000E+02  0.51100000000E-03 0. -1.
         23    2    1    2    0    0  0.00000000000E+00 -0.44408920985E-15  0.35527136788E-14  0.91188000000E+02  0.91188000000E+02 0.  0.
    9900012    2    3    3    0    0 -0.21591787148E+02  0.20754702305E+01  0.29753410647E+02  0.54367105197E+02  0.40000047919E+02 0.  0.
         12    1    3    3    0    0  0.21591787148E+02 -0.20754702305E+01 -0.29753410647E+02  0.36820894803E+02  0.00000000000E+00 0. -1.
         11    1    4    4    0    0 -0.16203868027E+02 -0.33775810593E+00 -0.17432952916E+01  0.16300874158E+02  0.51100000000E-03 0. -1.
        -11    1    4    4    0    0 -0.12422763656E+02 -0.18284071000E+01  0.23262910384E+02  0.26435414299E+02  0.51100000000E-03 0.  1.
         12    1    4    4    0    0  0.70348445351E+01  0.42416354364E+01  0.82337955545E+01  0.11630816740E+02  0.00000000000E+00 0. -1.
</event>
<event>
 8    1  0.2500956E-006  0.9118800E+02  0.7816164E-02  0.1184000E+00
        -11   -1    0    0    0    0  0.00000000000E+00  0.00000000000E+00  0.45593999997E+02  0.45594000000E+02  0.51100000000E-03 0.  1.
         11   -1    0    0    0    0 -0.00000000000E+00 -0.00000000000E+00 -0.45593999997E+02  0.45594000000E+02  0.51100000000E-03 0. -1.
         23    2    1    2    0    0  0.00000000000E+00  0.00000000000E+00  0.17763568394E-14  0.91188000000E+02  0.91188000000E+02 0.  0.
    9900012    2    3    3    0    0  0.18225009002E+02 -0.29497776695E+02  0.12389981470E+02  0.54367062697E+02  0.39999951029E+02 0.  0.
         12    1    3    3    0    0 -0.18225009002E+02  0.29497776695E+02 -0.12389981470E+02  0.36820937303E+02  0.00000000000E+00 0. -1.
         11    1    4    4    0    0 -0.78988498881E+01 -0.12373714869E+02  0.16014328600E+01  0.14767032088E+02  0.51100000000E-03 0. -1.
        -11    1    4    4    0    0 -0.62916522685E+00 -0.52971979685E+01  0.87889513868E+01  0.10281139136E+02  0.51100000000E-03 0.  1.
         12    1    4    4    0    0  0.26753024117E+02 -0.11826863857E+02  0.19995972233E+01  0.29318891472E+02  0.00000000000E+00 0. -1.
</event>
<event>
 8    1  0.2500956E-006  0.9118800E+02  0.7816164E-02  0.1184000E+00
        -11   -1    0    0    0    0  0.00000000000E+00  0.00000000000E+00  0.45593999997E+02  0.45594000000E+02  0.51100000000E-03 0.  1.
         11   -1    0    0    0    0 -0.00000000000E+00 -0.00000000000E+00 -0.45593999997E+02  0.45594000000E+02  0.51100000000E-03 0. -1.
         23    2    1    2    0    0  0.00000000000E+00  0.00000000000E+00 -0.17763568394E-14  0.91188000000E+02  0.91188000000E+02 0.  0.
    9900012    2    3    3    0    0 -0.10971856628E+02 -0.33707370607E+02 -0.99613864273E+01  0.54366841807E+02  0.39999447464E+02 0.  0.
        -12    1    3    3    0    0  0.10971856628E+02  0.33707370607E+02  0.99613864273E+01  0.36821158193E+02  0.00000000000E+00 0.  1.
         11    1    4    4    0    0 -0.10800633255E+02 -0.16843830366E+02  0.10042138763E+01  0.20034389082E+02  0.51100000000E-03 0. -1.
        -11    1    4    4    0    0 -0.40110395603E+00 -0.14281404991E+02 -0.20199564883E+02  0.24741500250E+02  0.51100000000E-03 0.  1.
         12    1    4    4    0    0  0.22988058297E+00 -0.25821352506E+01  0.92339645796E+01  0.95909524758E+01  0.00000000000E+00 0. -1.
</event>
<event>
 8    1  0.2500956E-006  0.9118800E+02  0.7816164E-02  0.1184000E+00
        -11   -1    0    0    0    0  0.00000000000E+00  0.00000000000E+00  0.45593999997E+02  0.45594000000E+02  0.51100000000E-03 0. -1.
         11   -1    0    0    0    0 -0.00000000000E+00 -0.00000000000E+00 -0.45593999997E+02  0.45594000000E+02  0.51100000000E-03 0.  1.
         23    2    1    2    0    0 -0.17763568394E-14  0.00000000000E+00  0.00000000000E+00  0.91188000000E+02  0.91188000000E+02 0.  0.
    9900012    2    3    3    0    0 -0.89722269771E+01  0.32829120301E+02  0.14054490337E+02  0.54367072591E+02  0.39999973585E+02 0.  0.
        -12    1    3    3    0    0  0.89722269771E+01 -0.32829120301E+02 -0.14054490337E+02  0.36820927409E+02  0.00000000000E+00 0.  1.
         11    1    4    4    0    0  0.29386836835E+01  0.21474609645E+02  0.65604370622E+01  0.22645839704E+02  0.51100000000E-03 0. -1.
        -11    1    4    4    0    0  0.26896276285E+01  0.60705245938E+01  0.13522588096E+02  0.15064718872E+02  0.51100000000E-03 0.  1.
        -12    1    4    4    0    0 -0.14600538289E+02  0.52839860617E+01 -0.60285348211E+01  0.16656514015E+02  0.00000000000E+00 0.  1.
</event>
<event>
 8    1  0.2500956E-006  0.9118800E+02  0.7816164E-02  0.1184000E+00
        -11   -1    0    0    0    0  0.00000000000E+00  0.00000000000E+00  0.45593999997E+02  0.45594000000E+02  0.51100000000E-03 0.  1.
         11   -1    0    0    0    0 -0.00000000000E+00 -0.00000000000E+00 -0.45593999997E+02  0.45594000000E+02  0.51100000000E-03 0. -1.
         23    2    1    2    0    0  0.17763568394E-14  0.00000000000E+00  0.17763568394E-14  0.91188000000E+02  0.91188000000E+02 0.  0.
    9900012    2    3    3    0    0 -0.99731520901E+01  0.33285213124E+02  0.12182375672E+02  0.54367089469E+02  0.40000012062E+02 0.  0.
         12    1    3    3    0    0  0.99731520901E+01 -0.33285213124E+02 -0.12182375672E+02  0.36820910531E+02  0.00000000000E+00 0. -1.
         11    1    4    4    0    0  0.50394882850E+01  0.29063672617E+01  0.12123089607E+02  0.13446661843E+02  0.51100000000E-03 0. -1.
        -11    1    4    4    0    0 -0.51193415978E+01  0.28997649833E+02  0.48482857423E+01  0.29842540595E+02  0.51100000000E-03 0.  1.
        -12    1    4    4    0    0 -0.98932987773E+01  0.13811960294E+01 -0.47889996775E+01  0.11077887031E+02  0.00000000000E+00 0.  1.
</event>
<event>
 8    1  0.2500956E-006  0.9118800E+02  0.7816164E-02  0.1184000E+00
        -11   -1    0    0    0    0  0.00000000000E+00  0.00000000000E+00  0.45593999997E+02  0.45594000000E+02  0.51100000000E-03 0. -1.
         11   -1    0    0    0    0 -0.00000000000E+00 -0.00000000000E+00 -0.45593999997E+02  0.45594000000E+02  0.51100000000E-03 0.  1.
         23    2    1    2    0    0  0.44408920985E-15  0.35527136788E-14  0.00000000000E+00  0.91188000000E+02  0.91188000000E+02 0.  0.
    9900012    2    3    3    0    0  0.31218024849E+01 -0.17093952012E+02  0.32462751458E+02  0.54367094547E+02  0.40000023638E+02 0.  0.
        -12    1    3    3    0    0 -0.31218024849E+01  0.17093952012E+02 -0.32462751458E+02  0.36820905453E+02  0.00000000000E+00 0.  1.
         11    1    4    4    0    0 -0.20076388420E+01 -0.15389913675E+02 -0.35703989543E+01  0.15925696393E+02  0.51100000000E-03 0.  1.
        -11    1    4    4    0    0 -0.29644110131E+01  0.28222340638E+01  0.12159971620E+02  0.12830340908E+02  0.51100000000E-03 0. -1.
        -12    1    4    4    0    0  0.80938523400E+01 -0.45262724014E+01  0.23873178793E+02  0.25611057246E+02  0.00000000000E+00 0.  1.
</event>
<event>
 8    1  0.2500956E-006  0.9118800E+02  0.7816164E-02  0.1184000E+00
        -11   -1    0    0    0    0  0.00000000000E+00  0.00000000000E+00  0.45593999997E+02  0.45594000000E+02  0.51100000000E-03 0.  1.
         11   -1    0    0    0    0 -0.00000000000E+00 -0.00000000000E+00 -0.45593999997E+02  0.45594000000E+02  0.51100000000E-03 0. -1.
         23    2    1    2    0    0 -0.35527136788E-14  0.00000000000E+00  0.00000000000E+00  0.91188000000E+02  0.91188000000E+02 0.  0.
    9900012    2    3    3    0    0 -0.15440691414E+02 -0.61177562895E+01  0.32862420119E+02  0.54367074571E+02  0.39999978100E+02 0.  0.
         12    1    3    3    0    0  0.15440691414E+02  0.61177562895E+01 -0.32862420119E+02  0.36820925429E+02  0.00000000000E+00 0. -1.
         11    1    4    4    0    0 -0.48480139403E+01 -0.45453660300E+01  0.78522040596E+01  0.10286918896E+02  0.51100000000E-03 0. -1.
        -11    1    4    4    0    0 -0.22290343600E+02 -0.12220288077E+01  0.23273355681E+02  0.32249059787E+02  0.51100000000E-03 0.  1.
         12    1    4    4    0    0  0.11697666127E+02 -0.35036145188E+00  0.17368603781E+01  0.11831095889E+02  0.00000000000E+00 0. -1.
</event>
<event>
 8    1  0.2500956E-006  0.9118800E+02  0.7816164E-02  0.1184000E+00
        -11   -1    0    0    0    0  0.00000000000E+00  0.00000000000E+00  0.45593999997E+02  0.45594000000E+02  0.51100000000E-03 0.  1.
         11   -1    0    0    0    0 -0.00000000000E+00 -0.00000000000E+00 -0.45593999997E+02  0.45594000000E+02  0.51100000000E-03 0. -1.
         23    2    1    2    0    0  0.00000000000E+00 -0.17763568394E-14  0.00000000000E+00  0.91188000000E+02  0.91188000000E+02 0.  0.
    9900012    2    3    3    0    0 -0.31593706965E+02 -0.13433414251E+02  0.13310207300E+02  0.54367074474E+02  0.39999977878E+02 0.  0.
        -12    1    3    3    0    0  0.31593706965E+02  0.13433414251E+02 -0.13310207300E+02  0.36820925526E+02  0.00000000000E+00 0.  1.
         11    1    4    4    0    0 -0.31773237596E+02 -0.20100916903E+02 -0.12172820170E+01  0.37617379806E+02  0.51100000000E-03 0. -1.
        -11    1    4    4    0    0  0.21065685027E+01  0.55390614207E+01  0.11954669408E+02  0.13342898980E+02  0.51100000000E-03 0.  1.
         12    1    4    4    0    0 -0.19270378717E+01  0.11284412320E+01  0.25728199093E+01  0.34067956878E+01  0.00000000000E+00 0. -1.
</event>
<event>
 8    1  0.2500956E-006  0.9118800E+02  0.7816164E-02  0.1184000E+00
        -11   -1    0    0    0    0  0.00000000000E+00  0.00000000000E+00  0.45593999997E+02  0.45594000000E+02  0.51100000000E-03 0.  1.
         11   -1    0    0    0    0 -0.00000000000E+00 -0.00000000000E+00 -0.45593999997E+02  0.45594000000E+02  0.51100000000E-03 0. -1.
         23    2    1    2    0    0  0.00000000000E+00  0.00000000000E+00 -0.13322676296E-14  0.91188000000E+02  0.91188000000E+02 0.  0.
    9900012    2    3    3    0    0 -0.31347459782E+02  0.19016088739E+02 -0.33921200395E+01  0.54367063780E+02  0.39999953500E+02 0.  0.
        -12    1    3    3    0    0  0.31347459782E+02 -0.19016088739E+02  0.33921200395E+01  0.36820936220E+02  0.00000000000E+00 0.  1.
         11    1    4    4    0    0 -0.11908162893E+02  0.40961026745E+01 -0.17932934626E+01  0.12719996160E+02  0.51100000000E-03 0. -1.
        -11    1    4    4    0    0 -0.20284265317E+02  0.87870237134E+01  0.13101331824E+02  0.25696460865E+02  0.51100000000E-03 0.  1.
        -12    1    4    4    0    0  0.84496842815E+00  0.61329623511E+01 -0.14700158401E+02  0.15950606755E+02  0.00000000000E+00 0.  1.
</event>
<event>
 8    1  0.2500956E-006  0.9118800E+02  0.7816164E-02  0.1184000E+00
        -11   -1    0    0    0    0  0.00000000000E+00  0.00000000000E+00  0.45593999997E+02  0.45594000000E+02  0.51100000000E-03 0. -1.
         11   -1    0    0    0    0 -0.00000000000E+00 -0.00000000000E+00 -0.45593999997E+02  0.45594000000E+02  0.51100000000E-03 0.  1.
         23    2    1    2    0    0  0.00000000000E+00  0.00000000000E+00  0.35527136788E-14  0.91188000000E+02  0.91188000000E+02 0.  0.
    9900012    2    3    3    0    0  0.14989504156E+02  0.10421487906E+02 -0.31976355055E+02  0.54367083015E+02  0.39999997350E+02 0.  0.
         12    1    3    3    0    0 -0.14989504156E+02 -0.10421487906E+02  0.31976355055E+02  0.36820916985E+02  0.00000000000E+00 0. -1.
         11    1    4    4    0    0 -0.12038242445E+01  0.17366222724E+02 -0.46678190343E+01  0.18022858245E+02  0.51100000000E-03 0. -1.
        -11    1    4    4    0    0  0.18497471918E+01 -0.92687304501E+01 -0.10807313150E+02  0.14357191460E+02  0.51100000000E-03 0.  1.
        -12    1    4    4    0    0  0.14343581208E+02  0.23239956322E+01 -0.16501222871E+02  0.21987033311E+02  0.00000000000E+00 0.  1.
</event>
<event>
 8    1  0.2500956E-006  0.9118800E+02  0.7816164E-02  0.1184000E+00
        -11   -1    0    0    0    0  0.00000000000E+00  0.00000000000E+00  0.45593999997E+02  0.45594000000E+02  0.51100000000E-03 0.  1.
         11   -1    0    0    0    0 -0.00000000000E+00 -0.00000000000E+00 -0.45593999997E+02  0.45594000000E+02  0.51100000000E-03 0. -1.
         23    2    1    2    0    0  0.00000000000E+00  0.00000000000E+00  0.00000000000E+00  0.91188000000E+02  0.91188000000E+02 0.  0.
    9900012    2    3    3    0    0  0.24892792786E+02  0.14463400373E+02  0.22955166300E+02  0.54367071944E+02  0.39999972111E+02 0.  0.
        -12    1    3    3    0    0 -0.24892792786E+02 -0.14463400373E+02 -0.22955166300E+02  0.36820928056E+02  0.00000000000E+00 0.  1.
         11    1    4    4    0    0  0.73738704080E+01  0.11816083566E+02  0.17570260413E+02  0.22421147314E+02  0.51100000000E-03 0. -1.
        -11    1    4    4    0    0  0.41819850591E+01  0.12457839977E+02  0.76960979763E+01  0.15228811518E+02  0.51100000000E-03 0.  1.
         12    1    4    4    0    0  0.13336937319E+02 -0.98105231700E+01 -0.23111920895E+01  0.16717113112E+02  0.00000000000E+00 0. -1.
</event>
<event>
 8    1  0.2500956E-006  0.9118800E+02  0.7816164E-02  0.1184000E+00
        -11   -1    0    0    0    0  0.00000000000E+00  0.00000000000E+00  0.45593999997E+02  0.45594000000E+02  0.51100000000E-03 0. -1.
         11   -1    0    0    0    0 -0.00000000000E+00 -0.00000000000E+00 -0.45593999997E+02  0.45594000000E+02  0.51100000000E-03 0.  1.
         23    2    1    2    0    0 -0.35527136788E-14  0.00000000000E+00 -0.17763568394E-14  0.91188000000E+02  0.91188000000E+02 0.  0.
    9900012    2    3    3    0    0  0.26658924804E+02 -0.20345900334E+02 -0.15202797281E+02  0.54367095920E+02  0.40000026769E+02 0.  0.
         12    1    3    3    0    0 -0.26658924804E+02  0.20345900334E+02  0.15202797281E+02  0.36820904080E+02  0.00000000000E+00 0. -1.
         11    1    4    4    0    0  0.55915572516E+01  0.90595070735E+00 -0.44849369857E+01  0.72250203604E+01  0.51100000000E-03 0. -1.
        -11    1    4    4    0    0  0.17088516387E+02 -0.15971632242E+02 -0.23245582845E+02  0.32976772899E+02  0.51100000000E-03 0.  1.
         12    1    4    4    0    0  0.39788511659E+01 -0.52802187987E+01  0.12527722550E+02  0.14165302660E+02  0.00000000000E+00 0. -1.
</event>
<event>
 8    1  0.2500956E-006  0.9118800E+02  0.7816164E-02  0.1184000E+00
        -11   -1    0    0    0    0  0.00000000000E+00  0.00000000000E+00  0.45593999997E+02  0.45594000000E+02  0.51100000000E-03 0. -1.
         11   -1    0    0    0    0 -0.00000000000E+00 -0.00000000000E+00 -0.45593999997E+02  0.45594000000E+02  0.51100000000E-03 0.  1.
         23    2    1    2    0    0  0.00000000000E+00  0.00000000000E+00  0.17763568394E-14  0.91188000000E+02  0.91188000000E+02 0.  0.
    9900012    2    3    3    0    0  0.34004627240E+02  0.10630881339E+02  0.92977841817E+01  0.54367094220E+02  0.40000022892E+02 0.  0.
        -12    1    3    3    0    0 -0.34004627240E+02 -0.10630881339E+02 -0.92977841817E+01  0.36820905780E+02  0.00000000000E+00 0.  1.
         11    1    4    4    0    0  0.39812112158E+01  0.28747772672E+00 -0.71113093999E+01  0.81549621600E+01  0.51100000000E-03 0. -1.
        -11    1    4    4    0    0 -0.39058094883E+01  0.29345583001E+01 -0.36575705869E+01  0.61028520410E+01  0.51100000000E-03 0.  1.
         12    1    4    4    0    0  0.33929225513E+02  0.74088453123E+01  0.20066664168E+02  0.40109280019E+02  0.00000000000E+00 0. -1.
</event>
<event>
 8    1  0.2500956E-006  0.9118800E+02  0.7816164E-02  0.1184000E+00
        -11   -1    0    0    0    0  0.00000000000E+00  0.00000000000E+00  0.45593999997E+02  0.45594000000E+02  0.51100000000E-03 0.  1.
         11   -1    0    0    0    0 -0.00000000000E+00 -0.00000000000E+00 -0.45593999997E+02  0.45594000000E+02  0.51100000000E-03 0. -1.
         23    2    1    2    0    0  0.00000000000E+00  0.00000000000E+00 -0.88817841970E-15  0.91188000000E+02  0.91188000000E+02 0.  0.
    9900012    2    3    3    0    0 -0.19326996312E+02  0.31016812102E+02  0.44948449371E+01  0.54367094926E+02  0.40000024504E+02 0.  0.
        -12    1    3    3    0    0  0.19326996312E+02 -0.31016812102E+02 -0.44948449371E+01  0.36820905074E+02  0.00000000000E+00 0.  1.
         11    1    4    4    0    0 -0.16473373004E+01  0.94341533566E+01  0.12412322066E+02  0.15677458629E+02  0.51100000000E-03 0. -1.
        -11    1    4    4    0    0  0.45208740642E+01  0.10518516625E+00  0.35410660121E+01  0.57435629175E+01  0.51100000000E-03 0.  1.
         12    1    4    4    0    0 -0.22200533076E+02  0.21477473579E+02 -0.11458543141E+02  0.32946073380E+02  0.00000000000E+00 0. -1.
</event>
<event>
 8    1  0.2500956E-006  0.9118800E+02  0.7816164E-02  0.1184000E+00
        -11   -1    0    0    0    0  0.00000000000E+00  0.00000000000E+00  0.45593999997E+02  0.45594000000E+02  0.51100000000E-03 0. -1.
         11   -1    0    0    0    0 -0.00000000000E+00 -0.00000000000E+00 -0.45593999997E+02  0.45594000000E+02  0.51100000000E-03 0.  1.
         23    2    1    2    0    0 -0.35527136788E-14 -0.17763568394E-14  0.00000000000E+00  0.91188000000E+02  0.91188000000E+02 0.  0.
    9900012    2    3    3    0    0  0.30408037640E+02  0.92318340123E+01 -0.18598476502E+02  0.54367097776E+02  0.40000031001E+02 0.  0.
         12    1    3    3    0    0 -0.30408037640E+02 -0.92318340123E+01  0.18598476502E+02  0.36820902224E+02  0.00000000000E+00 0. -1.
         11    1    4    4    0    0 -0.55307214443E+01 -0.35229450192E+01 -0.53274454646E+01  0.84487689483E+01  0.51100000000E-03 0. -1.
        -11    1    4    4    0    0  0.12414784619E+02 -0.45949960800E+00 -0.14267912974E+02  0.18918545344E+02  0.51100000000E-03 0.  1.
         12    1    4    4    0    0  0.23523974465E+02  0.13214278639E+02  0.99688193621E+00  0.26999783484E+02  0.00000000000E+00 0. -1.
</event>
<event>
 8    1  0.2500956E-006  0.9118800E+02  0.7816164E-02  0.1184000E+00
        -11   -1    0    0    0    0  0.00000000000E+00  0.00000000000E+00  0.45593999997E+02  0.45594000000E+02  0.51100000000E-03 0. -1.
         11   -1    0    0    0    0 -0.00000000000E+00 -0.00000000000E+00 -0.45593999997E+02  0.45594000000E+02  0.51100000000E-03 0.  1.
         23    2    1    2    0    0  0.35527136788E-14  0.00000000000E+00  0.17763568394E-14  0.91188000000E+02  0.91188000000E+02 0.  0.
    9900012    2    3    3    0    0 -0.12034952970E+02  0.33277765293E+02 -0.10174957607E+02  0.54367088575E+02  0.40000010025E+02 0.  0.
         12    1    3    3    0    0  0.12034952970E+02 -0.33277765293E+02  0.10174957607E+02  0.36820911425E+02  0.00000000000E+00 0. -1.
         11    1    4    4    0    0  0.65098633293E+01 -0.71712434155E+00 -0.32548483352E+01  0.73134551228E+01  0.51100000000E-03 0. -1.
        -11    1    4    4    0    0  0.10908053079E+01  0.29123466275E+01 -0.96971898612E+01  0.10183668816E+02  0.51100000000E-03 0.  1.
         12    1    4    4    0    0 -0.19635621607E+02  0.31082543007E+02  0.27770805895E+01  0.36869964636E+02  0.00000000000E+00 0. -1.
</event>
<event>
 8    1  0.2500956E-006  0.9118800E+02  0.7816164E-02  0.1184000E+00
        -11   -1    0    0    0    0  0.00000000000E+00  0.00000000000E+00  0.45593999997E+02  0.45594000000E+02  0.51100000000E-03 0. -1.
         11   -1    0    0    0    0 -0.00000000000E+00 -0.00000000000E+00 -0.45593999997E+02  0.45594000000E+02  0.51100000000E-03 0.  1.
         23    2    1    2    0    0  0.00000000000E+00  0.00000000000E+00 -0.71054273576E-14  0.91188000000E+02  0.91188000000E+02 0.  0.
    9900012    2    3    3    0    0  0.11383722272E+02  0.17797483652E+02  0.30156937580E+02  0.54367076040E+02  0.39999981447E+02 0.  0.
        -12    1    3    3    0    0 -0.11383722272E+02 -0.17797483652E+02 -0.30156937580E+02  0.36820923960E+02  0.00000000000E+00 0.  1.
         11    1    4    4    0    0 -0.81172744145E+00  0.35085150325E+01 -0.28794756602E+01  0.46108523628E+01  0.51100000000E-03 0. -1.
        -11    1    4    4    0    0 -0.16923445439E+01 -0.94167345616E+01  0.10649143185E+02  0.14315836360E+02  0.51100000000E-03 0.  1.
         12    1    4    4    0    0  0.13887794257E+02  0.23705703181E+02  0.22387270056E+02  0.35440387317E+02  0.00000000000E+00 0. -1.
</event>
<event>
 8    1  0.2500956E-006  0.9118800E+02  0.7816164E-02  0.1184000E+00
        -11   -1    0    0    0    0  0.00000000000E+00  0.00000000000E+00  0.45593999997E+02  0.45594000000E+02  0.51100000000E-03 0.  1.
         11   -1    0    0    0    0 -0.00000000000E+00 -0.00000000000E+00 -0.45593999997E+02  0.45594000000E+02  0.51100000000E-03 0. -1.
         23    2    1    2    0    0  0.00000000000E+00 -0.44408920985E-15  0.00000000000E+00  0.91188000000E+02  0.91188000000E+02 0.  0.
    9900012    2    3    3    0    0 -0.30893994141E+02 -0.24877612382E+01 -0.19878569506E+02  0.54367009307E+02  0.39999829317E+02 0.  0.
        -12    1    3    3    0    0  0.30893994141E+02  0.24877612382E+01  0.19878569506E+02  0.36820990693E+02  0.00000000000E+00 0.  1.
         11    1    4    4    0    0 -0.13243763177E+02  0.37199528415E+00 -0.31023122376E+01  0.13607350406E+02  0.51100000000E-03 0. -1.
        -11    1    4    4    0    0 -0.11525109811E+02  0.78616462477E+01  0.57353502000E+01  0.15084027315E+02  0.51100000000E-03 0.  1.
        -12    1    4    4    0    0 -0.61251211535E+01 -0.10721402770E+02 -0.22511607469E+02  0.25675631586E+02  0.00000000000E+00 0.  1.
</event>
<event>
 8    1  0.2500956E-006  0.9118800E+02  0.7816164E-02  0.1184000E+00
        -11   -1    0    0    0    0  0.00000000000E+00  0.00000000000E+00  0.45593999997E+02  0.45594000000E+02  0.51100000000E-03 0. -1.
         11   -1    0    0    0    0 -0.00000000000E+00 -0.00000000000E+00 -0.45593999997E+02  0.45594000000E+02  0.51100000000E-03 0.  1.
         23    2    1    2    0    0  0.13322676296E-14 -0.17763568394E-14  0.71054273576E-14  0.91188000000E+02  0.91188000000E+02 0.  0.
    9900012    2    3    3    0    0 -0.15998024864E+01 -0.10559452096E+02  0.35238243065E+02  0.54366876023E+02  0.39999525468E+02 0.  0.
        -12    1    3    3    0    0  0.15998024864E+01  0.10559452096E+02 -0.35238243065E+02  0.36821123977E+02  0.00000000000E+00 0.  1.
         11    1    4    4    0    0  0.12804255255E+02 -0.13774936944E+02  0.25977660770E+02  0.32070807595E+02  0.51100000000E-03 0. -1.
        -11    1    4    4    0    0 -0.12329648453E+02 -0.13204457641E+01  0.11423038641E+02  0.16859704032E+02  0.51100000000E-03 0.  1.
        -12    1    4    4    0    0 -0.20744092883E+01  0.45359306113E+01 -0.21624563456E+01  0.54363643966E+01  0.00000000000E+00 0.  1.
</event>
<event>
 8    1  0.2500956E-006  0.9118800E+02  0.7816164E-02  0.1184000E+00
        -11   -1    0    0    0    0  0.00000000000E+00  0.00000000000E+00  0.45593999997E+02  0.45594000000E+02  0.51100000000E-03 0.  1.
         11   -1    0    0    0    0 -0.00000000000E+00 -0.00000000000E+00 -0.45593999997E+02  0.45594000000E+02  0.51100000000E-03 0. -1.
         23    2    1    2    0    0  0.00000000000E+00 -0.17763568394E-14 -0.35527136788E-14  0.91188000000E+02  0.91188000000E+02 0.  0.
    9900012    2    3    3    0    0  0.27909450307E+02 -0.15942806877E+02  0.17962867487E+02  0.54367148355E+02  0.40000146304E+02 0.  0.
         12    1    3    3    0    0 -0.27909450307E+02  0.15942806877E+02 -0.17962867487E+02  0.36820851645E+02  0.00000000000E+00 0. -1.
         11    1    4    4    0    0  0.11198115055E+02 -0.37164520888E+01 -0.66297918384E+01  0.13533807188E+02  0.51100000000E-03 0. -1.
        -11    1    4    4    0    0 -0.59215225820E+01  0.17734425163E+00  0.12942595999E+01  0.60639087102E+01  0.51100000000E-03 0.  1.
        -12    1    4    4    0    0  0.22632857833E+02 -0.12403699040E+02  0.23298399725E+02  0.34769432456E+02  0.00000000000E+00 0.  1.
</event>
<event>
 8    1  0.2500956E-006  0.9118800E+02  0.7816164E-02  0.1184000E+00
        -11   -1    0    0    0    0  0.00000000000E+00  0.00000000000E+00  0.45593999997E+02  0.45594000000E+02  0.51100000000E-03 0. -1.
         11   -1    0    0    0    0 -0.00000000000E+00 -0.00000000000E+00 -0.45593999997E+02  0.45594000000E+02  0.51100000000E-03 0.  1.
         23    2    1    2    0    0  0.00000000000E+00 -0.17763568394E-14  0.00000000000E+00  0.91188000000E+02  0.91188000000E+02 0.  0.
    9900012    2    3    3    0    0  0.34940553964E+02 -0.94297052653E+01  0.67837307457E+01  0.54367073131E+02  0.39999974816E+02 0.  0.
        -12    1    3    3    0    0 -0.34940553964E+02  0.94297052653E+01 -0.67837307457E+01  0.36820926869E+02  0.00000000000E+00 0.  1.
         11    1    4    4    0    0  0.11878353138E+02  0.12754438367E+02  0.72515619715E+01  0.18877397136E+02  0.51100000000E-03 0. -1.
        -11    1    4    4    0    0  0.16915053267E+02 -0.12340627757E+02 -0.71167803637E+01  0.22114671227E+02  0.51100000000E-03 0.  1.
         12    1    4    4    0    0  0.61471475589E+01 -0.98435158754E+01  0.66489491380E+01  0.13375004768E+02  0.00000000000E+00 0. -1.
</event>
<event>
 8    1  0.2500956E-006  0.9118800E+02  0.7816164E-02  0.1184000E+00
        -11   -1    0    0    0    0  0.00000000000E+00  0.00000000000E+00  0.45593999997E+02  0.45594000000E+02  0.51100000000E-03 0. -1.
         11   -1    0    0    0    0 -0.00000000000E+00 -0.00000000000E+00 -0.45593999997E+02  0.45594000000E+02  0.51100000000E-03 0.  1.
         23    2    1    2    0    0 -0.35527136788E-14  0.00000000000E+00  0.00000000000E+00  0.91188000000E+02  0.91188000000E+02 0.  0.
    9900012    2    3    3    0    0  0.25022483549E+02  0.10353535938E+02 -0.24949175919E+02  0.54367058018E+02  0.39999940364E+02 0.  0.
         12    1    3    3    0    0 -0.25022483549E+02 -0.10353535938E+02  0.24949175919E+02  0.36820941982E+02  0.00000000000E+00 0. -1.
         11    1    4    4    0    0 -0.44699598852E+01 -0.35557089180E+01  0.22318896690E+01  0.61322866078E+01  0.51100000000E-03 0. -1.
        -11    1    4    4    0    0  0.17582219718E+02 -0.27152727058E+01 -0.59575843960E+01  0.18761662191E+02  0.51100000000E-03 0.  1.
        -12    1    4    4    0    0  0.11910223716E+02  0.16624517561E+02 -0.21223481192E+02  0.29473109219E+02  0.00000000000E+00 0.  1.
</event>
<event>
 8    1  0.2500956E-006  0.9118800E+02  0.7816164E-02  0.1184000E+00
        -11   -1    0    0    0    0  0.00000000000E+00  0.00000000000E+00  0.45593999997E+02  0.45594000000E+02  0.51100000000E-03 0.  1.
         11   -1    0    0    0    0 -0.00000000000E+00 -0.00000000000E+00 -0.45593999997E+02  0.45594000000E+02  0.51100000000E-03 0. -1.
         23    2    1    2    0    0 -0.71054273576E-14 -0.17763568394E-14  0.35527136788E-14  0.91188000000E+02  0.91188000000E+02 0.  0.
    9900012    2    3    3    0    0  0.27683452325E+02  0.13436939477E+02 -0.20220144561E+02  0.54367093965E+02  0.40000022312E+02 0.  0.
        -12    1    3    3    0    0 -0.27683452325E+02 -0.13436939477E+02  0.20220144561E+02  0.36820906035E+02  0.00000000000E+00 0.  1.
         11    1    4    4    0    0  0.19046299045E+02  0.84040892974E+01 -0.23525982102E+02  0.31414360703E+02  0.51100000000E-03 0. -1.
        -11    1    4    4    0    0 -0.44715484788E+01  0.57610075943E+00 -0.50590324584E+01  0.67764627616E+01  0.51100000000E-03 0.  1.
        -12    1    4    4    0    0  0.13108701759E+02  0.44567494206E+01  0.83648699995E+01  0.16176270501E+02  0.00000000000E+00 0.  1.
</event>
<event>
 8    1  0.2500956E-006  0.9118800E+02  0.7816164E-02  0.1184000E+00
        -11   -1    0    0    0    0  0.00000000000E+00  0.00000000000E+00  0.45593999997E+02  0.45594000000E+02  0.51100000000E-03 0.  1.
         11   -1    0    0    0    0 -0.00000000000E+00 -0.00000000000E+00 -0.45593999997E+02  0.45594000000E+02  0.51100000000E-03 0. -1.
         23    2    1    2    0    0  0.00000000000E+00  0.00000000000E+00  0.35527136788E-14  0.91188000000E+02  0.91188000000E+02 0.  0.
    9900012    2    3    3    0    0  0.69991362052E+01  0.16877305297E+02  0.31967880390E+02  0.54367126595E+02  0.40000096698E+02 0.  0.
         12    1    3    3    0    0 -0.69991362052E+01 -0.16877305297E+02 -0.31967880390E+02  0.36820873405E+02  0.00000000000E+00 0. -1.
         11    1    4    4    0    0 -0.57678018048E+01  0.24174032363E+02  0.78399738992E+01  0.26059865106E+02  0.51100000000E-03 0. -1.
        -11    1    4    4    0    0  0.95920543799E+01 -0.48748490968E+01  0.18599981387E+02  0.21487926117E+02  0.51100000000E-03 0.  1.
         12    1    4    4    0    0  0.31748836301E+01 -0.24218779692E+01  0.55279251032E+01  0.68193353715E+01  0.00000000000E+00 0. -1.
</event>
<event>
 8    1  0.2500956E-006  0.9118800E+02  0.7816164E-02  0.1184000E+00
        -11   -1    0    0    0    0  0.00000000000E+00  0.00000000000E+00  0.45593999997E+02  0.45594000000E+02  0.51100000000E-03 0. -1.
         11   -1    0    0    0    0 -0.00000000000E+00 -0.00000000000E+00 -0.45593999997E+02  0.45594000000E+02  0.51100000000E-03 0.  1.
         23    2    1    2    0    0  0.00000000000E+00  0.00000000000E+00  0.00000000000E+00  0.91188000000E+02  0.91188000000E+02 0.  0.
    9900012    2    3    3    0    0 -0.14700903170E+02 -0.29299947795E+02  0.16768320091E+02  0.54367081306E+02  0.39999993454E+02 0.  0.
        -12    1    3    3    0    0  0.14700903170E+02  0.29299947795E+02 -0.16768320091E+02  0.36820918694E+02  0.00000000000E+00 0.  1.
         11    1    4    4    0    0 -0.50323957768E+01 -0.71665415508E+01  0.40407311370E+01  0.96442642766E+01  0.51100000000E-03 0. -1.
        -11    1    4    4    0    0 -0.11834761514E+02 -0.30981531752E+02  0.68010040383E+01  0.33855140614E+02  0.51100000000E-03 0.  1.
        -12    1    4    4    0    0  0.21662541203E+01  0.88481255082E+01  0.59265849153E+01  0.10867676416E+02  0.00000000000E+00 0.  1.
</event>
<event>
 8    1  0.2500956E-006  0.9118800E+02  0.7816164E-02  0.1184000E+00
        -11   -1    0    0    0    0  0.00000000000E+00  0.00000000000E+00  0.45593999997E+02  0.45594000000E+02  0.51100000000E-03 0.  1.
         11   -1    0    0    0    0 -0.00000000000E+00 -0.00000000000E+00 -0.45593999997E+02  0.45594000000E+02  0.51100000000E-03 0. -1.
         23    2    1    2    0    0 -0.22204460493E-15  0.00000000000E+00  0.00000000000E+00  0.91188000000E+02  0.91188000000E+02 0.  0.
    9900012    2    3    3    0    0  0.96161722886E+00 -0.90739752655E+01 -0.35672366388E+02  0.54367089384E+02  0.40000011870E+02 0.  0.
        -12    1    3    3    0    0 -0.96161722886E+00  0.90739752655E+01  0.35672366388E+02  0.36820910616E+02  0.00000000000E+00 0.  1.
         11    1    4    4    0    0  0.83019015822E+01 -0.76780129563E-01 -0.24833985320E+02  0.26185001284E+02  0.51100000000E-03 0. -1.
        -11    1    4    4    0    0 -0.30132404219E+00 -0.65384381190E+01 -0.17185863450E+02  0.18390102555E+02  0.51100000000E-03 0.  1.
        -12    1    4    4    0    0 -0.70389603112E+01 -0.24587570169E+01  0.63474823821E+01  0.97919855454E+01  0.00000000000E+00 0.  1.
</event>
<event>
 8    1  0.2500956E-006  0.9118800E+02  0.7816164E-02  0.1184000E+00
        -11   -1    0    0    0    0  0.00000000000E+00  0.00000000000E+00  0.45593999997E+02  0.45594000000E+02  0.51100000000E-03 0. -1.
         11   -1    0    0    0    0 -0.00000000000E+00 -0.00000000000E+00 -0.45593999997E+02  0.45594000000E+02  0.51100000000E-03 0.  1.
         23    2    1    2    0    0 -0.88817841970E-15  0.17763568394E-14  0.71054273576E-14  0.91188000000E+02  0.91188000000E+02 0.  0.
    9900012    2    3    3    0    0  0.69203068570E+01 -0.14830603327E+02  0.32983957982E+02  0.54367096613E+02  0.40000028349E+02 0.  0.
        -12    1    3    3    0    0 -0.69203068570E+01  0.14830603327E+02 -0.32983957982E+02  0.36820903387E+02  0.00000000000E+00 0.  1.
         11    1    4    4    0    0  0.90577446438E+01 -0.21578873145E+02  0.30578912786E+02  0.38506628153E+02  0.51100000000E-03 0. -1.
        -11    1    4    4    0    0 -0.30720769287E+01  0.93439912739E+01  0.58521176015E+01  0.11445309531E+02  0.51100000000E-03 0.  1.
        -12    1    4    4    0    0  0.93463914192E+00 -0.25957214554E+01 -0.34470724056E+01  0.44151589291E+01  0.00000000000E+00 0.  1.
</event>
<event>
 8    1  0.2500956E-006  0.9118800E+02  0.7816164E-02  0.1184000E+00
        -11   -1    0    0    0    0  0.00000000000E+00  0.00000000000E+00  0.45593999997E+02  0.45594000000E+02  0.51100000000E-03 0. -1.
         11   -1    0    0    0    0 -0.00000000000E+00 -0.00000000000E+00 -0.45593999997E+02  0.45594000000E+02  0.51100000000E-03 0.  1.
         23    2    1    2    0    0 -0.35527136788E-14 -0.71054273576E-14 -0.88817841970E-15  0.91188000000E+02  0.91188000000E+02 0.  0.
    9900012    2    3    3    0    0  0.22471333091E+02 -0.28093727280E+02 -0.78460901534E+01  0.54367089446E+02  0.40000012010E+02 0.  0.
         12    1    3    3    0    0 -0.22471333091E+02  0.28093727280E+02  0.78460901534E+01  0.36820910554E+02  0.00000000000E+00 0. -1.
         11    1    4    4    0    0  0.16211427865E+01 -0.11977025737E+02 -0.88228057633E+01  0.14963928336E+02  0.51100000000E-03 0.  1.
        -11    1    4    4    0    0  0.12357696798E+02  0.62654241691E+01 -0.49989410858E+01  0.14729481403E+02  0.51100000000E-03 0. -1.
        -12    1    4    4    0    0  0.84924935065E+01 -0.22382125712E+02  0.59756566957E+01  0.24673679707E+02  0.00000000000E+00 0.  1.
</event>
<event>
 8    1  0.2500956E-006  0.9118800E+02  0.7816164E-02  0.1184000E+00
        -11   -1    0    0    0    0  0.00000000000E+00  0.00000000000E+00  0.45593999997E+02  0.45594000000E+02  0.51100000000E-03 0.  1.
         11   -1    0    0    0    0 -0.00000000000E+00 -0.00000000000E+00 -0.45593999997E+02  0.45594000000E+02  0.51100000000E-03 0. -1.
         23    2    1    2    0    0  0.35527136788E-14  0.00000000000E+00  0.00000000000E+00  0.91188000000E+02  0.91188000000E+02 0.  0.
    9900012    2    3    3    0    0  0.15150784909E+02 -0.31863513970E+02  0.10533465437E+02  0.54367031789E+02  0.39999880569E+02 0.  0.
         12    1    3    3    0    0 -0.15150784909E+02  0.31863513970E+02 -0.10533465437E+02  0.36820968211E+02  0.00000000000E+00 0. -1.
         11    1    4    4    0    0  0.18587629113E+02 -0.59840713630E+01  0.14606581978E+02  0.24385678245E+02  0.51100000000E-03 0. -1.
        -11    1    4    4    0    0 -0.36027460302E+01 -0.12210329397E+00  0.97306871144E+00  0.37338386616E+01  0.51100000000E-03 0.  1.
        -12    1    4    4    0    0  0.16590182651E+00 -0.25757339313E+02 -0.50461852525E+01  0.26247514883E+02  0.00000000000E+00 0.  1.
</event>
<event>
 8    1  0.2500956E-006  0.9118800E+02  0.7816164E-02  0.1184000E+00
        -11   -1    0    0    0    0  0.00000000000E+00  0.00000000000E+00  0.45593999997E+02  0.45594000000E+02  0.51100000000E-03 0.  1.
         11   -1    0    0    0    0 -0.00000000000E+00 -0.00000000000E+00 -0.45593999997E+02  0.45594000000E+02  0.51100000000E-03 0. -1.
         23    2    1    2    0    0  0.00000000000E+00  0.00000000000E+00  0.00000000000E+00  0.91188000000E+02  0.91188000000E+02 0.  0.
    9900012    2    3    3    0    0  0.13299105122E+02  0.10034191555E+02 -0.32836399933E+02  0.54367077174E+02  0.39999984033E+02 0.  0.
        -12    1    3    3    0    0 -0.13299105122E+02 -0.10034191555E+02  0.32836399933E+02  0.36820922826E+02  0.00000000000E+00 0.  1.
         11    1    4    4    0    0  0.96340691173E+01  0.16973014619E+02 -0.22782319853E+02  0.29998876831E+02  0.51100000000E-03 0. -1.
        -11    1    4    4    0    0  0.45039141833E+01 -0.10751754131E+02 -0.14399537893E+02  0.18526525623E+02  0.51100000000E-03 0.  1.
        -12    1    4    4    0    0 -0.83887817855E+00  0.38129310671E+01  0.43454578131E+01  0.58416747194E+01  0.00000000000E+00 0.  1.
</event>
<event>
 8    1  0.2500956E-006  0.9118800E+02  0.7816164E-02  0.1184000E+00
        -11   -1    0    0    0    0  0.00000000000E+00  0.00000000000E+00  0.45593999997E+02  0.45594000000E+02  0.51100000000E-03 0.  1.
         11   -1    0    0    0    0 -0.00000000000E+00 -0.00000000000E+00 -0.45593999997E+02  0.45594000000E+02  0.51100000000E-03 0. -1.
         23    2    1    2    0    0  0.35527136788E-14  0.00000000000E+00  0.00000000000E+00  0.91188000000E+02  0.91188000000E+02 0.  0.
    9900012    2    3    3    0    0  0.22054919509E+02  0.25387991928E+02  0.14993665350E+02  0.54367087337E+02  0.40000007203E+02 0.  0.
         12    1    3    3    0    0 -0.22054919509E+02 -0.25387991928E+02 -0.14993665350E+02  0.36820912663E+02  0.00000000000E+00 0. -1.
         11    1    4    4    0    0  0.48498736871E+01 -0.23723595466E+01 -0.34029815013E+01  0.63819783734E+01  0.51100000000E-03 0. -1.
        -11    1    4    4    0    0  0.68764816536E+01 -0.26413739374E+01  0.13673175924E+02  0.15531213614E+02  0.51100000000E-03 0.  1.
         12    1    4    4    0    0  0.10328564168E+02  0.30401725412E+02  0.47234709275E+01  0.32453895350E+02  0.00000000000E+00 0. -1.
</event>
<event>
 8    1  0.2500956E-006  0.9118800E+02  0.7816164E-02  0.1184000E+00
        -11   -1    0    0    0    0  0.00000000000E+00  0.00000000000E+00  0.45593999997E+02  0.45594000000E+02  0.51100000000E-03 0.  1.
         11   -1    0    0    0    0 -0.00000000000E+00 -0.00000000000E+00 -0.45593999997E+02  0.45594000000E+02  0.51100000000E-03 0. -1.
         23    2    1    2    0    0  0.35527136788E-14  0.00000000000E+00  0.17763568394E-14  0.91188000000E+02  0.91188000000E+02 0.  0.
    9900012    2    3    3    0    0 -0.19849842526E+02 -0.29341705002E+02 -0.10041317516E+02  0.54367082599E+02  0.39999996402E+02 0.  0.
        -12    1    3    3    0    0  0.19849842526E+02  0.29341705002E+02  0.10041317516E+02  0.36820917401E+02  0.00000000000E+00 0.  1.
         11    1    4    4    0    0 -0.22270051228E+02 -0.17590906598E+02 -0.12121942129E+02  0.30859952331E+02  0.51100000000E-03 0. -1.
        -11    1    4    4    0    0  0.10649394365E+02 -0.23219253193E+01  0.10344300935E+01  0.10948560791E+02  0.51100000000E-03 0.  1.
        -12    1    4    4    0    0 -0.82291856632E+01 -0.94288730846E+01  0.10461945196E+01  0.12558569477E+02  0.00000000000E+00 0.  1.
</event>
<event>
 8    1  0.2500956E-006  0.9118800E+02  0.7816164E-02  0.1184000E+00
        -11   -1    0    0    0    0  0.00000000000E+00  0.00000000000E+00  0.45593999997E+02  0.45594000000E+02  0.51100000000E-03 0.  1.
         11   -1    0    0    0    0 -0.00000000000E+00 -0.00000000000E+00 -0.45593999997E+02  0.45594000000E+02  0.51100000000E-03 0. -1.
         23    2    1    2    0    0  0.00000000000E+00  0.88817841970E-15  0.00000000000E+00  0.91188000000E+02  0.91188000000E+02 0.  0.
    9900012    2    3    3    0    0 -0.34974178252E+02  0.78912451891E+01  0.83854158863E+01  0.54367080747E+02  0.39999992180E+02 0.  0.
         12    1    3    3    0    0  0.34974178252E+02 -0.78912451891E+01 -0.83854158863E+01  0.36820919253E+02  0.00000000000E+00 0. -1.
         11    1    4    4    0    0 -0.63790652592E+01  0.58526158697E+01  0.99949360848E+01  0.13222871613E+02  0.51100000000E-03 0. -1.
        -11    1    4    4    0    0 -0.13373537160E+02  0.15609227608E+02  0.10351931684E+01  0.20580843224E+02  0.51100000000E-03 0.  1.
         12    1    4    4    0    0 -0.15221575833E+02 -0.13570598288E+02 -0.26447133669E+01  0.20563365910E+02  0.00000000000E+00 0. -1.
</event>
<event>
 8    1  0.2500956E-006  0.9118800E+02  0.7816164E-02  0.1184000E+00
        -11   -1    0    0    0    0  0.00000000000E+00  0.00000000000E+00  0.45593999997E+02  0.45594000000E+02  0.51100000000E-03 0. -1.
         11   -1    0    0    0    0 -0.00000000000E+00 -0.00000000000E+00 -0.45593999997E+02  0.45594000000E+02  0.51100000000E-03 0.  1.
         23    2    1    2    0    0 -0.17763568394E-14  0.00000000000E+00  0.00000000000E+00  0.91188000000E+02  0.91188000000E+02 0.  0.
    9900012    2    3    3    0    0 -0.13828433298E+02 -0.17676362059E+02 -0.29190752994E+02  0.54367090132E+02  0.40000013575E+02 0.  0.
         12    1    3    3    0    0  0.13828433298E+02  0.17676362059E+02  0.29190752994E+02  0.36820909868E+02  0.00000000000E+00 0. -1.
         11    1    4    4    0    0  0.71580093553E+00  0.10856270033E+01  0.21311414908E+01  0.24965418651E+01  0.51100000000E-03 0. -1.
        -11    1    4    4    0    0  0.62397250164E+01 -0.18433505031E+02 -0.21107775459E+02  0.28710041120E+02  0.51100000000E-03 0.  1.
        -12    1    4    4    0    0 -0.20783959250E+02 -0.32848403168E+00 -0.10214119025E+02  0.23160507147E+02  0.00000000000E+00 0.  1.
</event>
<event>
 8    1  0.2500956E-006  0.9118800E+02  0.7816164E-02  0.1184000E+00
        -11   -1    0    0    0    0  0.00000000000E+00  0.00000000000E+00  0.45593999997E+02  0.45594000000E+02  0.51100000000E-03 0.  1.
         11   -1    0    0    0    0 -0.00000000000E+00 -0.00000000000E+00 -0.45593999997E+02  0.45594000000E+02  0.51100000000E-03 0. -1.
         23    2    1    2    0    0  0.35527136788E-14  0.00000000000E+00  0.00000000000E+00  0.91188000000E+02  0.91188000000E+02 0.  0.
    9900012    2    3    3    0    0  0.31308356678E+02  0.19187482172E+02  0.27215562896E+01  0.54367088297E+02  0.40000009391E+02 0.  0.
        -12    1    3    3    0    0 -0.31308356678E+02 -0.19187482172E+02 -0.27215562896E+01  0.36820911703E+02  0.00000000000E+00 0.  1.
         11    1    4    4    0    0  0.36853774465E+02  0.15296015521E+02  0.84090702609E+01  0.40778440947E+02  0.51100000000E-03 0. -1.
        -11    1    4    4    0    0 -0.11905675002E+01  0.42667987648E+01  0.19095916990E+01  0.48238535829E+01  0.51100000000E-03 0.  1.
         12    1    4    4    0    0 -0.43548502871E+01 -0.37533211360E+00 -0.75971056702E+01  0.87647937673E+01  0.00000000000E+00 0. -1.
</event>
<event>
 8    1  0.2500956E-006  0.9118800E+02  0.7816164E-02  0.1184000E+00
        -11   -1    0    0    0    0  0.00000000000E+00  0.00000000000E+00  0.45593999997E+02  0.45594000000E+02  0.51100000000E-03 0.  1.
         11   -1    0    0    0    0 -0.00000000000E+00 -0.00000000000E+00 -0.45593999997E+02  0.45594000000E+02  0.51100000000E-03 0. -1.
         23    2    1    2    0    0  0.35527136788E-14  0.22204460493E-15  0.00000000000E+00  0.91188000000E+02  0.91188000000E+02 0.  0.
    9900012    2    3    3    0    0 -0.22804426686E+02 -0.11386731230E+01 -0.28886768290E+02  0.54367029953E+02  0.39999876383E+02 0.  0.
        -12    1    3    3    0    0  0.22804426686E+02  0.11386731230E+01  0.28886768290E+02  0.36820970047E+02  0.00000000000E+00 0.  1.
         11    1    4    4    0    0 -0.70042255322E+01 -0.12612845712E+02 -0.64597577180E+01  0.15807324957E+02  0.51100000000E-03 0. -1.
        -11    1    4    4    0    0 -0.75032852655E+01  0.83477978409E+01 -0.26517525423E+02  0.28795210945E+02  0.51100000000E-03 0.  1.
         12    1    4    4    0    0 -0.82969158884E+01  0.31263747478E+01  0.40905148508E+01  0.97644940507E+01  0.00000000000E+00 0. -1.
</event>
<event>
 8    1  0.2500956E-006  0.9118800E+02  0.7816164E-02  0.1184000E+00
        -11   -1    0    0    0    0  0.00000000000E+00  0.00000000000E+00  0.45593999997E+02  0.45594000000E+02  0.51100000000E-03 0. -1.
         11   -1    0    0    0    0 -0.00000000000E+00 -0.00000000000E+00 -0.45593999997E+02  0.45594000000E+02  0.51100000000E-03 0.  1.
         23    2    1    2    0    0  0.00000000000E+00  0.00000000000E+00  0.00000000000E+00  0.91188000000E+02  0.91188000000E+02 0.  0.
    9900012    2    3    3    0    0  0.24900305398E+02 -0.38816154011E+01 -0.26845614662E+02  0.54367093254E+02  0.40000020691E+02 0.  0.
         12    1    3    3    0    0 -0.24900305398E+02  0.38816154011E+01  0.26845614662E+02  0.36820906746E+02  0.00000000000E+00 0. -1.
         11    1    4    4    0    0  0.62951226873E+01  0.66397956850E+01 -0.13975397775E+02  0.16704107268E+02  0.51100000000E-03 0. -1.
        -11    1    4    4    0    0  0.18373503301E+02 -0.15004584995E+01 -0.19217872561E+02  0.26630126272E+02  0.51100000000E-03 0.  1.
         12    1    4    4    0    0  0.23167940958E+00 -0.90209525866E+01  0.63476556738E+01  0.11032859714E+02  0.00000000000E+00 0. -1.
</event>
<event>
 8    1  0.2500956E-006  0.9118800E+02  0.7816164E-02  0.1184000E+00
        -11   -1    0    0    0    0  0.00000000000E+00  0.00000000000E+00  0.45593999997E+02  0.45594000000E+02  0.51100000000E-03 0. -1.
         11   -1    0    0    0    0 -0.00000000000E+00 -0.00000000000E+00 -0.45593999997E+02  0.45594000000E+02  0.51100000000E-03 0.  1.
         23    2    1    2    0    0  0.00000000000E+00  0.00000000000E+00 -0.77715611724E-15  0.91188000000E+02  0.91188000000E+02 0.  0.
    9900012    2    3    3    0    0  0.17572383669E+02 -0.32344421341E+02  0.91075789195E+00  0.54367085568E+02  0.40000003169E+02 0.  0.
        -12    1    3    3    0    0 -0.17572383669E+02  0.32344421341E+02 -0.91075789195E+00  0.36820914432E+02  0.00000000000E+00 0.  1.
         11    1    4    4    0    0 -0.16587442308E+01 -0.15417270608E+02  0.16055376472E+02  0.22320814935E+02  0.51100000000E-03 0. -1.
        -11    1    4    4    0    0  0.61874442842E+01 -0.52873767390E+01  0.10618494580E+01  0.82078221279E+01  0.51100000000E-03 0.  1.
        -12    1    4    4    0    0  0.13043683616E+02 -0.11639773993E+02 -0.16206468038E+02  0.23838448505E+02  0.00000000000E+00 0.  1.
</event>
<event>
 8    1  0.2500956E-006  0.9118800E+02  0.7816164E-02  0.1184000E+00
        -11   -1    0    0    0    0  0.00000000000E+00  0.00000000000E+00  0.45593999997E+02  0.45594000000E+02  0.51100000000E-03 0.  1.
         11   -1    0    0    0    0 -0.00000000000E+00 -0.00000000000E+00 -0.45593999997E+02  0.45594000000E+02  0.51100000000E-03 0. -1.
         23    2    1    2    0    0  0.00000000000E+00  0.35527136788E-14  0.00000000000E+00  0.91188000000E+02  0.91188000000E+02 0.  0.
    9900012    2    3    3    0    0 -0.31275851852E+02 -0.18210211227E+02  0.67815425102E+01  0.54367081749E+02  0.39999994463E+02 0.  0.
         12    1    3    3    0    0  0.31275851852E+02  0.18210211227E+02 -0.67815425102E+01  0.36820918251E+02  0.00000000000E+00 0. -1.
         11    1    4    4    0    0 -0.11697632312E+02  0.75256873416E+01  0.87051045718E-01  0.13909642332E+02  0.51100000000E-03 0. -1.
        -11    1    4    4    0    0 -0.56716834600E+01 -0.11542945489E+02  0.14253203030E+02  0.19197952513E+02  0.51100000000E-03 0.  1.
         12    1    4    4    0    0 -0.13906536081E+02 -0.14192953079E+02 -0.75587115653E+01  0.21259486904E+02  0.00000000000E+00 0. -1.
</event>
<event>
 8    1  0.2500956E-006  0.9118800E+02  0.7816164E-02  0.1184000E+00
        -11   -1    0    0    0    0  0.00000000000E+00  0.00000000000E+00  0.45593999997E+02  0.45594000000E+02  0.51100000000E-03 0.  1.
         11   -1    0    0    0    0 -0.00000000000E+00 -0.00000000000E+00 -0.45593999997E+02  0.45594000000E+02  0.51100000000E-03 0. -1.
         23    2    1    2    0    0  0.00000000000E+00  0.00000000000E+00  0.44408920985E-15  0.91188000000E+02  0.91188000000E+02 0.  0.
    9900012    2    3    3    0    0  0.17376771642E+02  0.32372504721E+02  0.24183737833E+01  0.54367084933E+02  0.40000001722E+02 0.  0.
        -12    1    3    3    0    0 -0.17376771642E+02 -0.32372504721E+02 -0.24183737833E+01  0.36820915067E+02  0.00000000000E+00 0.  1.
         11    1    4    4    0    0 -0.75929530700E+01  0.19665190674E+02  0.41164876928E+01  0.21478317712E+02  0.51100000000E-03 0. -1.
        -11    1    4    4    0    0  0.26659051578E+02  0.98940997311E+01  0.12698457535E+01  0.28464201184E+02  0.51100000000E-03 0.  1.
        -12    1    4    4    0    0 -0.16893268667E+01  0.28132143163E+01 -0.29679596630E+01  0.44245660367E+01  0.00000000000E+00 0.  1.
</event>
<event>
 8    1  0.2500956E-006  0.9118800E+02  0.7816164E-02  0.1184000E+00
        -11   -1    0    0    0    0  0.00000000000E+00  0.00000000000E+00  0.45593999997E+02  0.45594000000E+02  0.51100000000E-03 0.  1.
         11   -1    0    0    0    0 -0.00000000000E+00 -0.00000000000E+00 -0.45593999997E+02  0.45594000000E+02  0.51100000000E-03 0. -1.
         23    2    1    2    0    0  0.00000000000E+00  0.00000000000E+00  0.00000000000E+00  0.91188000000E+02  0.91188000000E+02 0.  0.
    9900012    2    3    3    0    0  0.23610128504E+02 -0.78806854536E+01  0.27133662752E+02  0.54367095265E+02  0.40000025275E+02 0.  0.
         12    1    3    3    0    0 -0.23610128504E+02  0.78806854536E+01 -0.27133662752E+02  0.36820904735E+02  0.00000000000E+00 0. -1.
         11    1    4    4    0    0  0.19803931948E+02 -0.43470557586E+01  0.81779416207E+01  0.21862555747E+02  0.51100000000E-03 0. -1.
        -11    1    4    4    0    0  0.13423720741E+02 -0.68837878059E+01  0.65300574672E+01  0.16438505524E+02  0.51100000000E-03 0.  1.
         12    1    4    4    0    0 -0.96175241844E+01  0.33501581109E+01  0.12425663664E+02  0.16066033994E+02  0.00000000000E+00 0. -1.
</event>
<event>
 8    1  0.2500956E-006  0.9118800E+02  0.7816164E-02  0.1184000E+00
        -11   -1    0    0    0    0  0.00000000000E+00  0.00000000000E+00  0.45593999997E+02  0.45594000000E+02  0.51100000000E-03 0.  1.
         11   -1    0    0    0    0 -0.00000000000E+00 -0.00000000000E+00 -0.45593999997E+02  0.45594000000E+02  0.51100000000E-03 0. -1.
         23    2    1    2    0    0  0.00000000000E+00  0.00000000000E+00  0.00000000000E+00  0.91188000000E+02  0.91188000000E+02 0.  0.
    9900012    2    3    3    0    0  0.20664565164E+02 -0.10329187448E+02  0.28671609610E+02  0.54367115106E+02  0.40000070507E+02 0.  0.
         12    1    3    3    0    0 -0.20664565164E+02  0.10329187448E+02 -0.28671609610E+02  0.36820884894E+02  0.00000000000E+00 0. -1.
         11    1    4    4    0    0 -0.26806005613E+01 -0.64684695253E+01  0.97635574700E+01  0.12014731462E+02  0.51100000000E-03 0. -1.
        -11    1    4    4    0    0  0.80331873148E+01 -0.14794917047E+01  0.24540702639E+02  0.25864397933E+02  0.51100000000E-03 0.  1.
         12    1    4    4    0    0  0.15311978411E+02 -0.23812262183E+01 -0.56326504997E+01  0.16487985711E+02  0.00000000000E+00 0. -1.
</event>
<event>
 8    1  0.2500956E-006  0.9118800E+02  0.7816164E-02  0.1184000E+00
        -11   -1    0    0    0    0  0.00000000000E+00  0.00000000000E+00  0.45593999997E+02  0.45594000000E+02  0.51100000000E-03 0. -1.
         11   -1    0    0    0    0 -0.00000000000E+00 -0.00000000000E+00 -0.45593999997E+02  0.45594000000E+02  0.51100000000E-03 0.  1.
         23    2    1    2    0    0 -0.44408920985E-15  0.00000000000E+00  0.00000000000E+00  0.91188000000E+02  0.91188000000E+02 0.  0.
    9900012    2    3    3    0    0 -0.38023815862E+01 -0.92372238462E+01 -0.35440077011E+02  0.54367034930E+02  0.39999887731E+02 0.  0.
         12    1    3    3    0    0  0.38023815862E+01  0.92372238462E+01  0.35440077011E+02  0.36820965070E+02  0.00000000000E+00 0. -1.
         11    1    4    4    0    0  0.17218228813E+01  0.11627318685E+01  0.19228860322E+01  0.28309204133E+01  0.51100000000E-03 0. -1.
        -11    1    4    4    0    0  0.14181185277E+02 -0.36954435137E+01 -0.14457865728E+02  0.20586213841E+02  0.51100000000E-03 0.  1.
         12    1    4    4    0    0 -0.19705389745E+02 -0.67045122010E+01 -0.22905097315E+02  0.30949900676E+02  0.00000000000E+00 0. -1.
</event>
<event>
 8    1  0.2500956E-006  0.9118800E+02  0.7816164E-02  0.1184000E+00
        -11   -1    0    0    0    0  0.00000000000E+00  0.00000000000E+00  0.45593999997E+02  0.45594000000E+02  0.51100000000E-03 0.  1.
         11   -1    0    0    0    0 -0.00000000000E+00 -0.00000000000E+00 -0.45593999997E+02  0.45594000000E+02  0.51100000000E-03 0. -1.
         23    2    1    2    0    0  0.00000000000E+00  0.00000000000E+00 -0.88817841970E-15  0.91188000000E+02  0.91188000000E+02 0.  0.
    9900012    2    3    3    0    0 -0.12505490454E+01 -0.36502264326E+02 -0.46693577231E+01  0.54367053850E+02  0.39999930861E+02 0.  0.
        -12    1    3    3    0    0  0.12505490454E+01  0.36502264326E+02  0.46693577231E+01  0.36820946150E+02  0.00000000000E+00 0.  1.
         11    1    4    4    0    0  0.55627905186E+01 -0.20832827413E+02 -0.90825243987E+00  0.21581850225E+02  0.51100000000E-03 0. -1.
        -11    1    4    4    0    0  0.13042296426E+01  0.14227019333E+01  0.94903474518E+01  0.96846161911E+01  0.51100000000E-03 0.  1.
         12    1    4    4    0    0 -0.81175692066E+01 -0.17092138846E+02 -0.13251452735E+02  0.23100587433E+02  0.00000000000E+00 0. -1.
</event>
<event>
 8    1  0.2500956E-006  0.9118800E+02  0.7816164E-02  0.1184000E+00
        -11   -1    0    0    0    0  0.00000000000E+00  0.00000000000E+00  0.45593999997E+02  0.45594000000E+02  0.51100000000E-03 0.  1.
         11   -1    0    0    0    0 -0.00000000000E+00 -0.00000000000E+00 -0.45593999997E+02  0.45594000000E+02  0.51100000000E-03 0. -1.
         23    2    1    2    0    0 -0.88817841970E-15  0.00000000000E+00  0.00000000000E+00  0.91188000000E+02  0.91188000000E+02 0.  0.
    9900012    2    3    3    0    0 -0.58651514569E+01 -0.34712480128E+02 -0.10789945089E+02  0.54367092987E+02  0.40000020082E+02 0.  0.
        -12    1    3    3    0    0  0.58651514569E+01  0.34712480128E+02  0.10789945089E+02  0.36820907013E+02  0.00000000000E+00 0.  1.
         11    1    4    4    0    0  0.86045703345E+01 -0.28859058944E+02 -0.41619045170E+01  0.30400746097E+02  0.51100000000E-03 0. -1.
        -11    1    4    4    0    0 -0.14664176215E+02 -0.94556170024E+01 -0.90160122928E+01  0.19640143454E+02  0.51100000000E-03 0.  1.
        -12    1    4    4    0    0  0.19445442346E+00  0.36021958181E+01  0.23879717211E+01  0.43262034366E+01  0.00000000000E+00 0.  1.
</event>
<event>
 8    1  0.2500956E-006  0.9118800E+02  0.7816164E-02  0.1184000E+00
        -11   -1    0    0    0    0  0.00000000000E+00  0.00000000000E+00  0.45593999997E+02  0.45594000000E+02  0.51100000000E-03 0. -1.
         11   -1    0    0    0    0 -0.00000000000E+00 -0.00000000000E+00 -0.45593999997E+02  0.45594000000E+02  0.51100000000E-03 0.  1.
         23    2    1    2    0    0  0.00000000000E+00  0.71054273576E-14 -0.26645352591E-14  0.91188000000E+02  0.91188000000E+02 0.  0.
    9900012    2    3    3    0    0  0.28514225872E+02 -0.22708095980E+02  0.52019963585E+01  0.54367089280E+02  0.40000011632E+02 0.  0.
        -12    1    3    3    0    0 -0.28514225872E+02  0.22708095980E+02 -0.52019963585E+01  0.36820910720E+02  0.00000000000E+00 0.  1.
         11    1    4    4    0    0  0.13235676337E+01  0.47482657500E+01 -0.85975550194E+01  0.99103890684E+01  0.51100000000E-03 0. -1.
        -11    1    4    4    0    0  0.10573601628E+02 -0.59975814841E+01 -0.30217840566E+01  0.12526101316E+02  0.51100000000E-03 0.  1.
         12    1    4    4    0    0  0.16617056611E+02 -0.21458780246E+02  0.16821335434E+02  0.31930598895E+02  0.00000000000E+00 0. -1.
</event>
<event>
 8    1  0.2500956E-006  0.9118800E+02  0.7816164E-02  0.1184000E+00
        -11   -1    0    0    0    0  0.00000000000E+00  0.00000000000E+00  0.45593999997E+02  0.45594000000E+02  0.51100000000E-03 0.  1.
         11   -1    0    0    0    0 -0.00000000000E+00 -0.00000000000E+00 -0.45593999997E+02  0.45594000000E+02  0.51100000000E-03 0. -1.
         23    2    1    2    0    0  0.00000000000E+00 -0.35527136788E-14 -0.13322676296E-14  0.91188000000E+02  0.91188000000E+02 0.  0.
    9900012    2    3    3    0    0  0.22997253994E+02 -0.28629348410E+02  0.26950187633E+01  0.54367130811E+02  0.40000106311E+02 0.  0.
        -12    1    3    3    0    0 -0.22997253994E+02  0.28629348410E+02 -0.26950187633E+01  0.36820869189E+02  0.00000000000E+00 0.  1.
         11    1    4    4    0    0  0.98471724785E+01 -0.26346881178E+02 -0.99101757626E+01  0.29821746051E+02  0.51100000000E-03 0. -1.
        -11    1    4    4    0    0 -0.20424377307E+01 -0.43870663128E+01  0.63440715017E+01  0.79790441907E+01  0.51100000000E-03 0.  1.
         12    1    4    4    0    0  0.15192519246E+02  0.21045990806E+01  0.62611230243E+01  0.16566340569E+02  0.00000000000E+00 0. -1.
</event>
<event>
 8    1  0.2500956E-006  0.9118800E+02  0.7816164E-02  0.1184000E+00
        -11   -1    0    0    0    0  0.00000000000E+00  0.00000000000E+00  0.45593999997E+02  0.45594000000E+02  0.51100000000E-03 0.  1.
         11   -1    0    0    0    0 -0.00000000000E+00 -0.00000000000E+00 -0.45593999997E+02  0.45594000000E+02  0.51100000000E-03 0. -1.
         23    2    1    2    0    0  0.17763568394E-14 -0.35527136788E-14 -0.35527136788E-14  0.91188000000E+02  0.91188000000E+02 0.  0.
    9900012    2    3    3    0    0  0.10253878928E+02 -0.24955599547E+02 -0.25057070989E+02  0.54367071327E+02  0.39999970704E+02 0.  0.
        -12    1    3    3    0    0 -0.10253878928E+02  0.24955599547E+02  0.25057070989E+02  0.36820928673E+02  0.00000000000E+00 0.  1.
         11    1    4    4    0    0  0.23692233712E+02 -0.15906081553E+02 -0.68403013406E+01  0.29344762588E+02  0.51100000000E-03 0. -1.
        -11    1    4    4    0    0 -0.74257579807E+01 -0.71365605724E+01 -0.81153634573E+01  0.13112265353E+02  0.51100000000E-03 0.  1.
         12    1    4    4    0    0 -0.60125968032E+01 -0.19129574212E+01 -0.10101406191E+02  0.11910043386E+02  0.00000000000E+00 0. -1.
</event>
<event>
 8    1  0.2500956E-006  0.9118800E+02  0.7816164E-02  0.1184000E+00
        -11   -1    0    0    0    0  0.00000000000E+00  0.00000000000E+00  0.45593999997E+02  0.45594000000E+02  0.51100000000E-03 0. -1.
         11   -1    0    0    0    0 -0.00000000000E+00 -0.00000000000E+00 -0.45593999997E+02  0.45594000000E+02  0.51100000000E-03 0.  1.
         23    2    1    2    0    0  0.35527136788E-14  0.00000000000E+00 -0.35527136788E-14  0.91188000000E+02  0.91188000000E+02 0.  0.
    9900012    2    3    3    0    0  0.23572491563E+02  0.20571988467E+02 -0.19414172579E+02  0.54367093372E+02  0.40000020960E+02 0.  0.
         12    1    3    3    0    0 -0.23572491563E+02 -0.20571988467E+02  0.19414172579E+02  0.36820906628E+02  0.00000000000E+00 0. -1.
         11    1    4    4    0    0  0.88049375964E+01  0.17803852199E+02  0.71637800598E+01  0.21114540587E+02  0.51100000000E-03 0. -1.
        -11    1    4    4    0    0  0.15176880791E+02 -0.18521733873E+01 -0.19302293613E+02  0.24624110050E+02  0.51100000000E-03 0.  1.
        -12    1    4    4    0    0 -0.40932682419E+00  0.46203096547E+01 -0.72756590261E+01  0.86284427343E+01  0.00000000000E+00 0.  1.
</event>
<event>
 8    1  0.2500956E-006  0.9118800E+02  0.7816164E-02  0.1184000E+00
        -11   -1    0    0    0    0  0.00000000000E+00  0.00000000000E+00  0.45593999997E+02  0.45594000000E+02  0.51100000000E-03 0. -1.
         11   -1    0    0    0    0 -0.00000000000E+00 -0.00000000000E+00 -0.45593999997E+02  0.45594000000E+02  0.51100000000E-03 0.  1.
         23    2    1    2    0    0  0.00000000000E+00  0.00000000000E+00  0.71054273576E-14  0.91188000000E+02  0.91188000000E+02 0.  0.
    9900012    2    3    3    0    0 -0.62313290222E+01  0.11641238455E+02 -0.34371970146E+02  0.54367078965E+02  0.39999988116E+02 0.  0.
         12    1    3    3    0    0  0.62313290222E+01 -0.11641238455E+02  0.34371970146E+02  0.36820921035E+02  0.00000000000E+00 0. -1.
         11    1    4    4    0    0 -0.11346728430E+02  0.15533781501E+02 -0.26035965689E+02  0.32371563500E+02  0.51100000000E-03 0. -1.
        -11    1    4    4    0    0  0.11673520948E+02 -0.94278440597E-01 -0.84580154275E+01  0.14415894179E+02  0.51100000000E-03 0.  1.
         12    1    4    4    0    0 -0.65581215406E+01 -0.37982646062E+01  0.12201097073E+00  0.75796212859E+01  0.00000000000E+00 0. -1.
</event>
<event>
 8    1  0.2500956E-006  0.9118800E+02  0.7816164E-02  0.1184000E+00
        -11   -1    0    0    0    0  0.00000000000E+00  0.00000000000E+00  0.45593999997E+02  0.45594000000E+02  0.51100000000E-03 0. -1.
         11   -1    0    0    0    0 -0.00000000000E+00 -0.00000000000E+00 -0.45593999997E+02  0.45594000000E+02  0.51100000000E-03 0.  1.
         23    2    1    2    0    0  0.17763568394E-14  0.00000000000E+00  0.71054273576E-14  0.91188000000E+02  0.91188000000E+02 0.  0.
    9900012    2    3    3    0    0 -0.15800164274E+02  0.57069106327E+00 -0.33253702249E+02  0.54367087563E+02  0.40000007718E+02 0.  0.
         12    1    3    3    0    0  0.15800164274E+02 -0.57069106327E+00  0.33253702249E+02  0.36820912437E+02  0.00000000000E+00 0. -1.
         11    1    4    4    0    0 -0.11745640408E+02  0.13407137693E+01 -0.18242731254E+02  0.21738326197E+02  0.51100000000E-03 0. -1.
        -11    1    4    4    0    0  0.35401664134E+01 -0.89860612000E+00 -0.22003424532E+02  0.22304505432E+02  0.51100000000E-03 0.  1.
         12    1    4    4    0    0 -0.75946902796E+01  0.12858341400E+00  0.69924535359E+01  0.10324255934E+02  0.00000000000E+00 0. -1.
</event>
<event>
 8    1  0.2500956E-006  0.9118800E+02  0.7816164E-02  0.1184000E+00
        -11   -1    0    0    0    0  0.00000000000E+00  0.00000000000E+00  0.45593999997E+02  0.45594000000E+02  0.51100000000E-03 0. -1.
         11   -1    0    0    0    0 -0.00000000000E+00 -0.00000000000E+00 -0.45593999997E+02  0.45594000000E+02  0.51100000000E-03 0.  1.
         23    2    1    2    0    0  0.00000000000E+00  0.88817841970E-15  0.00000000000E+00  0.91188000000E+02  0.91188000000E+02 0.  0.
    9900012    2    3    3    0    0  0.37872750296E+01 -0.48197868544E+01  0.36307109669E+02  0.54367081896E+02  0.39999994799E+02 0.  0.
        -12    1    3    3    0    0 -0.37872750296E+01  0.48197868544E+01 -0.36307109669E+02  0.36820918104E+02  0.00000000000E+00 0.  1.
         11    1    4    4    0    0  0.40334168179E+01  0.68861462616E+00  0.11271136198E+01  0.42441756211E+01  0.51100000000E-03 0. -1.
        -11    1    4    4    0    0  0.13577599659E+02 -0.53751048982E+01  0.27367338943E+01  0.14857075010E+02  0.51100000000E-03 0.  1.
         12    1    4    4    0    0 -0.13823741447E+02 -0.13329658244E+00  0.32443262155E+02  0.35265831266E+02  0.00000000000E+00 0. -1.
</event>
<event>
 8    1  0.2500956E-006  0.9118800E+02  0.7816164E-02  0.1184000E+00
        -11   -1    0    0    0    0  0.00000000000E+00  0.00000000000E+00  0.45593999997E+02  0.45594000000E+02  0.51100000000E-03 0. -1.
         11   -1    0    0    0    0 -0.00000000000E+00 -0.00000000000E+00 -0.45593999997E+02  0.45594000000E+02  0.51100000000E-03 0.  1.
         23    2    1    2    0    0  0.00000000000E+00  0.00000000000E+00 -0.22204460493E-15  0.91188000000E+02  0.91188000000E+02 0.  0.
    9900012    2    3    3    0    0  0.60795755568E+01 -0.36300017686E+02 -0.10617192616E+01  0.54367085145E+02  0.40000002205E+02 0.  0.
        -12    1    3    3    0    0 -0.60795755568E+01  0.36300017686E+02  0.10617192616E+01  0.36820914855E+02  0.00000000000E+00 0.  1.
         11    1    4    4    0    0  0.13403667769E+02 -0.26849865026E+02  0.48251518904E+01  0.30394993874E+02  0.51100000000E-03 0. -1.
        -11    1    4    4    0    0 -0.65791513297E+01 -0.63519893022E+00 -0.11663849823E+02  0.13406494801E+02  0.51100000000E-03 0.  1.
         12    1    4    4    0    0 -0.74494088242E+00 -0.88149537300E+01  0.57769786713E+01  0.10565596469E+02  0.00000000000E+00 0. -1.
</event>
<event>
 8    1  0.2500956E-006  0.9118800E+02  0.7816164E-02  0.1184000E+00
        -11   -1    0    0    0    0  0.00000000000E+00  0.00000000000E+00  0.45593999997E+02  0.45594000000E+02  0.51100000000E-03 0.  1.
         11   -1    0    0    0    0 -0.00000000000E+00 -0.00000000000E+00 -0.45593999997E+02  0.45594000000E+02  0.51100000000E-03 0. -1.
         23    2    1    2    0    0  0.00000000000E+00  0.00000000000E+00 -0.35527136788E-14  0.91188000000E+02  0.91188000000E+02 0.  0.
    9900012    2    3    3    0    0 -0.19377491580E+02  0.23474616253E+02  0.20718002410E+02  0.54367076437E+02  0.39999982354E+02 0.  0.
         12    1    3    3    0    0  0.19377491580E+02 -0.23474616253E+02 -0.20718002410E+02  0.36820923563E+02  0.00000000000E+00 0. -1.
         11    1    4    4    0    0 -0.82581895241E+01  0.17406093066E+02 -0.59023196411E+01  0.20149619040E+02  0.51100000000E-03 0. -1.
        -11    1    4    4    0    0 -0.13318448350E+02  0.98028058225E+01  0.24023962817E+02  0.29165508022E+02  0.51100000000E-03 0.  1.
         12    1    4    4    0    0  0.21991462950E+01 -0.37342826354E+01  0.25963592335E+01  0.50519493759E+01  0.00000000000E+00 0. -1.
</event>
<event>
 8    1  0.2500956E-006  0.9118800E+02  0.7816164E-02  0.1184000E+00
        -11   -1    0    0    0    0  0.00000000000E+00  0.00000000000E+00  0.45593999997E+02  0.45594000000E+02  0.51100000000E-03 0.  1.
         11   -1    0    0    0    0 -0.00000000000E+00 -0.00000000000E+00 -0.45593999997E+02  0.45594000000E+02  0.51100000000E-03 0. -1.
         23    2    1    2    0    0  0.13322676296E-14  0.88817841970E-15  0.00000000000E+00  0.91188000000E+02  0.91188000000E+02 0.  0.
    9900012    2    3    3    0    0  0.12045683919E+01  0.39343725811E+01 -0.36590294945E+02  0.54367082619E+02  0.39999996446E+02 0.  0.
        -12    1    3    3    0    0 -0.12045683919E+01 -0.39343725811E+01  0.36590294945E+02  0.36820917381E+02  0.00000000000E+00 0.  1.
         11    1    4    4    0    0 -0.59092495153E+01  0.93273024870E+01 -0.14625947967E+02  0.18325833015E+02  0.51100000000E-03 0. -1.
        -11    1    4    4    0    0 -0.31308418660E+01  0.30101693383E+01 -0.22367255448E+02  0.22785025933E+02  0.51100000000E-03 0.  1.
        -12    1    4    4    0    0  0.10244659773E+02 -0.84030992441E+01  0.40290846880E+00  0.13256223671E+02  0.00000000000E+00 0.  1.
</event>
<event>
 8    1  0.2500956E-006  0.9118800E+02  0.7816164E-02  0.1184000E+00
        -11   -1    0    0    0    0  0.00000000000E+00  0.00000000000E+00  0.45593999997E+02  0.45594000000E+02  0.51100000000E-03 0.  1.
         11   -1    0    0    0    0 -0.00000000000E+00 -0.00000000000E+00 -0.45593999997E+02  0.45594000000E+02  0.51100000000E-03 0. -1.
         23    2    1    2    0    0  0.00000000000E+00  0.00000000000E+00  0.00000000000E+00  0.91188000000E+02  0.91188000000E+02 0.  0.
    9900012    2    3    3    0    0 -0.11185077882E+02 -0.20611522251E+02  0.28387281826E+02  0.54367101231E+02  0.40000038876E+02 0.  0.
         12    1    3    3    0    0  0.11185077882E+02  0.20611522251E+02 -0.28387281826E+02  0.36820898769E+02  0.00000000000E+00 0. -1.
         11    1    4    4    0    0 -0.79085011224E+01 -0.13242369226E+01  0.12980796994E+02  0.15257754891E+02  0.51100000000E-03 0. -1.
        -11    1    4    4    0    0 -0.64558477706E+01 -0.37052159106E+01  0.20977268113E+02  0.22258759470E+02  0.51100000000E-03 0.  1.
         12    1    4    4    0    0  0.31792710115E+01 -0.15582069418E+02 -0.55707832818E+01  0.16850586870E+02  0.00000000000E+00 0. -1.
</event>
<event>
 8    1  0.2500956E-006  0.9118800E+02  0.7816164E-02  0.1184000E+00
        -11   -1    0    0    0    0  0.00000000000E+00  0.00000000000E+00  0.45593999997E+02  0.45594000000E+02  0.51100000000E-03 0.  1.
         11   -1    0    0    0    0 -0.00000000000E+00 -0.00000000000E+00 -0.45593999997E+02  0.45594000000E+02  0.51100000000E-03 0. -1.
         23    2    1    2    0    0  0.88817841970E-15  0.00000000000E+00  0.17763568394E-14  0.91188000000E+02  0.91188000000E+02 0.  0.
    9900012    2    3    3    0    0  0.37848936824E+01 -0.34895261455E+02  0.11125415440E+02  0.54367087994E+02  0.40000008700E+02 0.  0.
         12    1    3    3    0    0 -0.37848936824E+01  0.34895261455E+02 -0.11125415440E+02  0.36820912006E+02  0.00000000000E+00 0. -1.
         11    1    4    4    0    0 -0.61615703875E+01 -0.36558525325E+02  0.11660709002E+02  0.38864673654E+02  0.51100000000E-03 0.  1.
        -11    1    4    4    0    0 -0.61383196576E-01 -0.29547367998E+01  0.27129853204E+01  0.40117984823E+01  0.51100000000E-03 0. -1.
         12    1    4    4    0    0  0.10007847267E+02  0.46180006689E+01 -0.32482788831E+01  0.11490615858E+02  0.00000000000E+00 0. -1.
</event>
<event>
 8    1  0.2500956E-006  0.9118800E+02  0.7816164E-02  0.1184000E+00
        -11   -1    0    0    0    0  0.00000000000E+00  0.00000000000E+00  0.45593999997E+02  0.45594000000E+02  0.51100000000E-03 0. -1.
         11   -1    0    0    0    0 -0.00000000000E+00 -0.00000000000E+00 -0.45593999997E+02  0.45594000000E+02  0.51100000000E-03 0.  1.
         23    2    1    2    0    0  0.00000000000E+00  0.88817841970E-15  0.35527136788E-14  0.91188000000E+02  0.91188000000E+02 0.  0.
    9900012    2    3    3    0    0 -0.24592435107E+02  0.51212662129E+01  0.26921454853E+02  0.54367082527E+02  0.39999996237E+02 0.  0.
        -12    1    3    3    0    0  0.24592435107E+02 -0.51212662129E+01 -0.26921454853E+02  0.36820917473E+02  0.00000000000E+00 0.  1.
         11    1    4    4    0    0 -0.62725620578E+01  0.26370715512E+01  0.23576255567E+02  0.24538520900E+02  0.51100000000E-03 0. -1.
        -11    1    4    4    0    0 -0.90173199728E+01  0.81744275318E+01  0.11080028203E+02  0.16459050708E+02  0.51100000000E-03 0.  1.
        -12    1    4    4    0    0 -0.93025530763E+01 -0.56902328701E+01 -0.77348289166E+01  0.13369510919E+02  0.00000000000E+00 0.  1.
</event>
<event>
 8    1  0.2500956E-006  0.9118800E+02  0.7816164E-02  0.1184000E+00
        -11   -1    0    0    0    0  0.00000000000E+00  0.00000000000E+00  0.45593999997E+02  0.45594000000E+02  0.51100000000E-03 0. -1.
         11   -1    0    0    0    0 -0.00000000000E+00 -0.00000000000E+00 -0.45593999997E+02  0.45594000000E+02  0.51100000000E-03 0.  1.
         23    2    1    2    0    0  0.13322676296E-14  0.00000000000E+00  0.17763568394E-14  0.91188000000E+02  0.91188000000E+02 0.  0.
    9900012    2    3    3    0    0  0.19072725279E+01 -0.34106911784E+02  0.13742589365E+02  0.54367110788E+02  0.40000060662E+02 0.  0.
        -12    1    3    3    0    0 -0.19072725279E+01  0.34106911784E+02 -0.13742589365E+02  0.36820889212E+02  0.00000000000E+00 0.  1.
         11    1    4    4    0    0  0.10541223816E+02 -0.20623733765E+02  0.12537149933E+02  0.26336968745E+02  0.51100000000E-03 0. -1.
        -11    1    4    4    0    0 -0.15925616626E+02 -0.93525467063E+01 -0.29052688778E+01  0.18695881427E+02  0.51100000000E-03 0.  1.
        -12    1    4    4    0    0  0.72916653380E+01 -0.41306313126E+01  0.41107083095E+01  0.93342606160E+01  0.00000000000E+00 0.  1.
</event>
<event>
 8    1  0.2500956E-006  0.9118800E+02  0.7816164E-02  0.1184000E+00
        -11   -1    0    0    0    0  0.00000000000E+00  0.00000000000E+00  0.45593999997E+02  0.45594000000E+02  0.51100000000E-03 0.  1.
         11   -1    0    0    0    0 -0.00000000000E+00 -0.00000000000E+00 -0.45593999997E+02  0.45594000000E+02  0.51100000000E-03 0. -1.
         23    2    1    2    0    0  0.00000000000E+00  0.55511151231E-15  0.00000000000E+00  0.91188000000E+02  0.91188000000E+02 0.  0.
    9900012    2    3    3    0    0  0.60142886043E+01  0.91907947583E+00 -0.36314782561E+02  0.54367084654E+02  0.40000001085E+02 0.  0.
        -12    1    3    3    0    0 -0.60142886043E+01 -0.91907947583E+00  0.36314782561E+02  0.36820915346E+02  0.00000000000E+00 0.  1.
         11    1    4    4    0    0  0.74368762247E+01  0.10660327658E+02 -0.26546178853E+02  0.29557559535E+02  0.51100000000E-03 0. -1.
        -11    1    4    4    0    0 -0.68093973829E+01  0.57349086983E+00  0.30618375974E+01  0.74880995072E+01  0.51100000000E-03 0.  1.
        -12    1    4    4    0    0  0.53868097625E+01 -0.10314739052E+02 -0.12830441305E+02  0.17321425611E+02  0.00000000000E+00 0.  1.
</event>
<event>
 8    1  0.2500956E-006  0.9118800E+02  0.7816164E-02  0.1184000E+00
        -11   -1    0    0    0    0  0.00000000000E+00  0.00000000000E+00  0.45593999997E+02  0.45594000000E+02  0.51100000000E-03 0.  1.
         11   -1    0    0    0    0 -0.00000000000E+00 -0.00000000000E+00 -0.45593999997E+02  0.45594000000E+02  0.51100000000E-03 0. -1.
         23    2    1    2    0    0 -0.35527136788E-14  0.00000000000E+00  0.00000000000E+00  0.91188000000E+02  0.91188000000E+02 0.  0.
    9900012    2    3    3    0    0 -0.28748851744E+02 -0.19814950583E+02 -0.11689805053E+02  0.54367078157E+02  0.39999986275E+02 0.  0.
        -12    1    3    3    0    0  0.28748851744E+02  0.19814950583E+02  0.11689805053E+02  0.36820921843E+02  0.00000000000E+00 0.  1.
         11    1    4    4    0    0 -0.33389824443E+02 -0.32563417507E+01 -0.10394997005E+02  0.35121789546E+02  0.51100000000E-03 0. -1.
        -11    1    4    4    0    0  0.32439644331E+01 -0.93139966721E+00 -0.11159627265E+01  0.35547410105E+01  0.51100000000E-03 0.  1.
         12    1    4    4    0    0  0.13970082660E+01 -0.15627209165E+02 -0.17884532156E+00  0.15690547601E+02  0.00000000000E+00 0. -1.
</event>
<event>
 8    1  0.2500956E-006  0.9118800E+02  0.7816164E-02  0.1184000E+00
        -11   -1    0    0    0    0  0.00000000000E+00  0.00000000000E+00  0.45593999997E+02  0.45594000000E+02  0.51100000000E-03 0.  1.
         11   -1    0    0    0    0 -0.00000000000E+00 -0.00000000000E+00 -0.45593999997E+02  0.45594000000E+02  0.51100000000E-03 0. -1.
         23    2    1    2    0    0  0.00000000000E+00 -0.17763568394E-14  0.35527136788E-14  0.91188000000E+02  0.91188000000E+02 0.  0.
    9900012    2    3    3    0    0  0.23233752651E+02 -0.15236504050E+02  0.24162397676E+02  0.54367085028E+02  0.40000001938E+02 0.  0.
         12    1    3    3    0    0 -0.23233752651E+02  0.15236504050E+02 -0.24162397676E+02  0.36820914972E+02  0.00000000000E+00 0. -1.
         11    1    4    4    0    0  0.13067260646E+02 -0.48013318831E+00 -0.31341427956E+01  0.13446437446E+02  0.51100000000E-03 0. -1.
        -11    1    4    4    0    0 -0.70943805583E+01  0.28769224195E+00  0.35678517228E+01  0.79462298298E+01  0.51100000000E-03 0.  1.
         12    1    4    4    0    0  0.17260872563E+02 -0.15044063104E+02  0.23728688749E+02  0.32974417752E+02  0.00000000000E+00 0. -1.
</event>
<event>
 8    1  0.2500956E-006  0.9118800E+02  0.7816164E-02  0.1184000E+00
        -11   -1    0    0    0    0  0.00000000000E+00  0.00000000000E+00  0.45593999997E+02  0.45594000000E+02  0.51100000000E-03 0.  1.
         11   -1    0    0    0    0 -0.00000000000E+00 -0.00000000000E+00 -0.45593999997E+02  0.45594000000E+02  0.51100000000E-03 0. -1.
         23    2    1    2    0    0 -0.35527136788E-14  0.00000000000E+00  0.00000000000E+00  0.91188000000E+02  0.91188000000E+02 0.  0.
    9900012    2    3    3    0    0  0.17275979269E+02 -0.67972371012E+01  0.31798083762E+02  0.54367081722E+02  0.39999994401E+02 0.  0.
         12    1    3    3    0    0 -0.17275979269E+02  0.67972371012E+01 -0.31798083762E+02  0.36820918278E+02  0.00000000000E+00 0. -1.
         11    1    4    4    0    0  0.55796043826E-01 -0.70522638215E+01  0.56282879857E+01  0.90230351943E+01  0.51100000000E-03 0. -1.
        -11    1    4    4    0    0 -0.47537595455E+01 -0.10874459544E+02  0.50505879697E+01  0.12898082776E+02  0.51100000000E-03 0.  1.
        -12    1    4    4    0    0  0.21973942771E+02  0.11129486264E+02  0.21119207806E+02  0.32445963752E+02  0.00000000000E+00 0.  1.
</event>
<event>
 8    1  0.2500956E-006  0.9118800E+02  0.7816164E-02  0.1184000E+00
        -11   -1    0    0    0    0  0.00000000000E+00  0.00000000000E+00  0.45593999997E+02  0.45594000000E+02  0.51100000000E-03 0. -1.
         11   -1    0    0    0    0 -0.00000000000E+00 -0.00000000000E+00 -0.45593999997E+02  0.45594000000E+02  0.51100000000E-03 0.  1.
         23    2    1    2    0    0  0.00000000000E+00  0.00000000000E+00  0.11102230246E-15  0.91188000000E+02  0.91188000000E+02 0.  0.
    9900012    2    3    3    0    0  0.16666860293E+02 -0.32829595590E+02 -0.46126988490E+00  0.54367090878E+02  0.40000015276E+02 0.  0.
         12    1    3    3    0    0 -0.16666860293E+02  0.32829595590E+02  0.46126988490E+00  0.36820909122E+02  0.00000000000E+00 0. -1.
         11    1    4    4    0    0  0.18022912130E+02 -0.77452155950E+01  0.17831694879E+01  0.19697548577E+02  0.51100000000E-03 0.  1.
        -11    1    4    4    0    0 -0.12282015462E+02 -0.93839869973E+01 -0.14614696293E+01  0.15525559878E+02  0.51100000000E-03 0. -1.
         12    1    4    4    0    0  0.10925963626E+02 -0.15700392998E+02 -0.78296974350E+00  0.19143982424E+02  0.00000000000E+00 0. -1.
</event>
<event>
 8    1  0.2500956E-006  0.9118800E+02  0.7816164E-02  0.1184000E+00
        -11   -1    0    0    0    0  0.00000000000E+00  0.00000000000E+00  0.45593999997E+02  0.45594000000E+02  0.51100000000E-03 0. -1.
         11   -1    0    0    0    0 -0.00000000000E+00 -0.00000000000E+00 -0.45593999997E+02  0.45594000000E+02  0.51100000000E-03 0.  1.
         23    2    1    2    0    0  0.00000000000E+00  0.00000000000E+00  0.35527136788E-14  0.91188000000E+02  0.91188000000E+02 0.  0.
    9900012    2    3    3    0    0 -0.15599131048E+02 -0.22483665675E+02  0.24635965922E+02  0.54367096581E+02  0.40000028276E+02 0.  0.
        -12    1    3    3    0    0  0.15599131048E+02  0.22483665675E+02 -0.24635965922E+02  0.36820903419E+02  0.00000000000E+00 0.  1.
         11    1    4    4    0    0 -0.24651093176E+02 -0.18398257148E+02  0.23022785142E+02  0.38421620175E+02  0.51100000000E-03 0. -1.
        -11    1    4    4    0    0 -0.70708847752E+00 -0.17740472892E+01  0.50061419939E+01  0.53580477623E+01  0.51100000000E-03 0.  1.
        -12    1    4    4    0    0  0.97590506056E+01 -0.23113612382E+01 -0.33929612141E+01  0.10587428644E+02  0.00000000000E+00 0.  1.
</event>
<event>
 8    1  0.2500956E-006  0.9118800E+02  0.7816164E-02  0.1184000E+00
        -11   -1    0    0    0    0  0.00000000000E+00  0.00000000000E+00  0.45593999997E+02  0.45594000000E+02  0.51100000000E-03 0.  1.
         11   -1    0    0    0    0 -0.00000000000E+00 -0.00000000000E+00 -0.45593999997E+02  0.45594000000E+02  0.51100000000E-03 0. -1.
         23    2    1    2    0    0 -0.35527136788E-14  0.00000000000E+00  0.35527136788E-14  0.91188000000E+02  0.91188000000E+02 0.  0.
    9900012    2    3    3    0    0  0.18477474883E+02  0.23579744363E+02 -0.21409332689E+02  0.54367069153E+02  0.39999965748E+02 0.  0.
        -12    1    3    3    0    0 -0.18477474883E+02 -0.23579744363E+02  0.21409332689E+02  0.36820930847E+02  0.00000000000E+00 0.  1.
         11    1    4    4    0    0 -0.32150259734E+01  0.21505533096E+02 -0.11313785972E+02  0.24511754303E+02  0.51100000000E-03 0. -1.
        -11    1    4    4    0    0 -0.23784744114E+01  0.48370052965E+00 -0.44671545915E+01  0.50839529044E+01  0.51100000000E-03 0.  1.
        -12    1    4    4    0    0  0.24070975268E+02  0.15905107377E+01 -0.56283921254E+01  0.24771361946E+02  0.00000000000E+00 0.  1.
</event>
<event>
 8    1  0.2500956E-006  0.9118800E+02  0.7816164E-02  0.1184000E+00
        -11   -1    0    0    0    0  0.00000000000E+00  0.00000000000E+00  0.45593999997E+02  0.45594000000E+02  0.51100000000E-03 0. -1.
         11   -1    0    0    0    0 -0.00000000000E+00 -0.00000000000E+00 -0.45593999997E+02  0.45594000000E+02  0.51100000000E-03 0.  1.
         23    2    1    2    0    0  0.35527136788E-14  0.71054273576E-14  0.00000000000E+00  0.91188000000E+02  0.91188000000E+02 0.  0.
    9900012    2    3    3    0    0 -0.11396309549E+02 -0.32081148810E+02 -0.14025116800E+02  0.54367083640E+02  0.39999998774E+02 0.  0.
         12    1    3    3    0    0  0.11396309549E+02  0.32081148810E+02  0.14025116800E+02  0.36820916360E+02  0.00000000000E+00 0. -1.
         11    1    4    4    0    0  0.24229859731E+01 -0.67899655906E+01  0.26637240645E+01  0.76856957981E+01  0.51100000000E-03 0. -1.
        -11    1    4    4    0    0 -0.11883276974E+02 -0.33114896420E+02 -0.11169408580E+02  0.36912928966E+02  0.51100000000E-03 0.  1.
         12    1    4    4    0    0 -0.19360185486E+01  0.78237132008E+01 -0.55194322845E+01  0.97684588760E+01  0.00000000000E+00 0. -1.
</event>
<event>
 8    1  0.2500956E-006  0.9118800E+02  0.7816164E-02  0.1184000E+00
        -11   -1    0    0    0    0  0.00000000000E+00  0.00000000000E+00  0.45593999997E+02  0.45594000000E+02  0.51100000000E-03 0. -1.
         11   -1    0    0    0    0 -0.00000000000E+00 -0.00000000000E+00 -0.45593999997E+02  0.45594000000E+02  0.51100000000E-03 0.  1.
         23    2    1    2    0    0  0.00000000000E+00  0.00000000000E+00 -0.35527136788E-14  0.91188000000E+02  0.91188000000E+02 0.  0.
    9900012    2    3    3    0    0  0.26091664976E+02  0.21643994826E+02  0.14371606353E+02  0.54367074395E+02  0.39999977698E+02 0.  0.
        -12    1    3    3    0    0 -0.26091664976E+02 -0.21643994826E+02 -0.14371606353E+02  0.36820925605E+02  0.00000000000E+00 0.  1.
         11    1    4    4    0    0  0.74558495536E+01 -0.45286392632E+01 -0.99473895160E+01  0.13230601823E+02  0.51100000000E-03 0.  1.
        -11    1    4    4    0    0  0.18749293104E+02  0.23344901190E+02  0.23823769353E+02  0.38263460245E+02  0.51100000000E-03 0. -1.
         12    1    4    4    0    0 -0.11347768207E+00  0.28277328985E+01  0.49522651595E+00  0.28730123271E+01  0.00000000000E+00 0. -1.
</event>
<event>
 8    1  0.2500956E-006  0.9118800E+02  0.7816164E-02  0.1184000E+00
        -11   -1    0    0    0    0  0.00000000000E+00  0.00000000000E+00  0.45593999997E+02  0.45594000000E+02  0.51100000000E-03 0. -1.
         11   -1    0    0    0    0 -0.00000000000E+00 -0.00000000000E+00 -0.45593999997E+02  0.45594000000E+02  0.51100000000E-03 0.  1.
         23    2    1    2    0    0  0.00000000000E+00  0.00000000000E+00  0.71054273576E-14  0.91188000000E+02  0.91188000000E+02 0.  0.
    9900012    2    3    3    0    0  0.23211944183E+02  0.49332282763E+01 -0.28154086085E+02  0.54367032369E+02  0.39999881892E+02 0.  0.
         12    1    3    3    0    0 -0.23211944183E+02 -0.49332282763E+01  0.28154086085E+02  0.36820967631E+02  0.00000000000E+00 0. -1.
         11    1    4    4    0    0  0.78792650248E+01  0.10632286570E+02 -0.20067561606E+02  0.24038206341E+02  0.51100000000E-03 0. -1.
        -11    1    4    4    0    0  0.12630716481E+02  0.81852872707E+01 -0.49105077516E+01  0.15831835433E+02  0.51100000000E-03 0.  1.
        -12    1    4    4    0    0  0.27019626763E+01 -0.13884345564E+02 -0.31760167278E+01  0.14496990595E+02  0.00000000000E+00 0.  1.
</event>
<event>
 8    1  0.2500956E-006  0.9118800E+02  0.7816164E-02  0.1184000E+00
        -11   -1    0    0    0    0  0.00000000000E+00  0.00000000000E+00  0.45593999997E+02  0.45594000000E+02  0.51100000000E-03 0. -1.
         11   -1    0    0    0    0 -0.00000000000E+00 -0.00000000000E+00 -0.45593999997E+02  0.45594000000E+02  0.51100000000E-03 0.  1.
         23    2    1    2    0    0 -0.17763568394E-14  0.35527136788E-14  0.35527136788E-14  0.91188000000E+02  0.91188000000E+02 0.  0.
    9900012    2    3    3    0    0  0.11273307192E+02 -0.24146776740E+02 -0.25409165072E+02  0.54367082689E+02  0.39999996606E+02 0.  0.
         12    1    3    3    0    0 -0.11273307192E+02  0.24146776740E+02  0.25409165072E+02  0.36820917311E+02  0.00000000000E+00 0. -1.
         11    1    4    4    0    0  0.63200615402E+01 -0.23460022351E+02 -0.57383060788E+01  0.24964854967E+02  0.51100000000E-03 0. -1.
        -11    1    4    4    0    0  0.63691107447E+01 -0.77850262810E+01 -0.19303949811E+01  0.10242003267E+02  0.51100000000E-03 0.  1.
         12    1    4    4    0    0 -0.14158650930E+01  0.70982718925E+01 -0.17740464012E+02  0.19160224456E+02  0.00000000000E+00 0. -1.
</event>
<event>
 8    1  0.2500956E-006  0.9118800E+02  0.7816164E-02  0.1184000E+00
        -11   -1    0    0    0    0  0.00000000000E+00  0.00000000000E+00  0.45593999997E+02  0.45594000000E+02  0.51100000000E-03 0. -1.
         11   -1    0    0    0    0 -0.00000000000E+00 -0.00000000000E+00 -0.45593999997E+02  0.45594000000E+02  0.51100000000E-03 0.  1.
         23    2    1    2    0    0  0.00000000000E+00 -0.35527136788E-14  0.00000000000E+00  0.91188000000E+02  0.91188000000E+02 0.  0.
    9900012    2    3    3    0    0 -0.16262831884E+02 -0.30712562185E+02 -0.12167091962E+02  0.54367091488E+02  0.40000016664E+02 0.  0.
         12    1    3    3    0    0  0.16262831884E+02  0.30712562185E+02  0.12167091962E+02  0.36820908512E+02  0.00000000000E+00 0. -1.
         11    1    4    4    0    0 -0.11837806594E+02 -0.84465842746E+00 -0.98094115840E+00  0.11908373467E+02  0.51100000000E-03 0. -1.
        -11    1    4    4    0    0  0.18450190324E+01 -0.27089599629E+02  0.23811953687E+01  0.27256569757E+02  0.51100000000E-03 0.  1.
        -12    1    4    4    0    0 -0.62700443224E+01 -0.27783041285E+01 -0.13567346173E+02  0.15202148263E+02  0.00000000000E+00 0.  1.
</event>
<event>
 8    1  0.2500956E-006  0.9118800E+02  0.7816164E-02  0.1184000E+00
        -11   -1    0    0    0    0  0.00000000000E+00  0.00000000000E+00  0.45593999997E+02  0.45594000000E+02  0.51100000000E-03 0. -1.
         11   -1    0    0    0    0 -0.00000000000E+00 -0.00000000000E+00 -0.45593999997E+02  0.45594000000E+02  0.51100000000E-03 0.  1.
         23    2    1    2    0    0  0.00000000000E+00  0.00000000000E+00  0.00000000000E+00  0.91188000000E+02  0.91188000000E+02 0.  0.
    9900012    2    3    3    0    0  0.10686506834E+02 -0.34927252569E+02 -0.46548091498E+01  0.54367059646E+02  0.39999944075E+02 0.  0.
         12    1    3    3    0    0 -0.10686506834E+02  0.34927252569E+02  0.46548091498E+01  0.36820940354E+02  0.00000000000E+00 0. -1.
         11    1    4    4    0    0  0.12862633166E+02  0.78161868465E+00  0.50853366551E+01  0.13853480028E+02  0.51100000000E-03 0. -1.
        -11    1    4    4    0    0  0.46727502813E+01 -0.29199286124E+02 -0.95081077918E+01  0.31061825757E+02  0.51100000000E-03 0.  1.
         12    1    4    4    0    0 -0.68488766126E+01 -0.65095851294E+01 -0.23203801315E+00  0.94517538611E+01  0.00000000000E+00 0. -1.
</event>
<event>
 8    1  0.2500956E-006  0.9118800E+02  0.7816164E-02  0.1184000E+00
        -11   -1    0    0    0    0  0.00000000000E+00  0.00000000000E+00  0.45593999997E+02  0.45594000000E+02  0.51100000000E-03 0. -1.
         11   -1    0    0    0    0 -0.00000000000E+00 -0.00000000000E+00 -0.45593999997E+02  0.45594000000E+02  0.51100000000E-03 0.  1.
         23    2    1    2    0    0  0.44408920985E-15  0.00000000000E+00  0.00000000000E+00  0.91188000000E+02  0.91188000000E+02 0.  0.
    9900012    2    3    3    0    0 -0.22379560594E+01  0.11752905378E+02 -0.34822984088E+02  0.54367089461E+02  0.40000012044E+02 0.  0.
         12    1    3    3    0    0  0.22379560594E+01 -0.11752905378E+02  0.34822984088E+02  0.36820910539E+02  0.00000000000E+00 0. -1.
         11    1    4    4    0    0  0.56013098670E+01  0.13346698620E+02 -0.15097183027E+02  0.20914922230E+02  0.51100000000E-03 0. -1.
        -11    1    4    4    0    0 -0.10218088675E+02 -0.94766736641E+01 -0.20915019138E+02  0.25132741707E+02  0.51100000000E-03 0.  1.
        -12    1    4    4    0    0  0.23788227481E+01  0.78828804217E+01  0.11892180770E+01  0.83194255237E+01  0.00000000000E+00 0.  1.
</event>
<event>
 8    1  0.2500956E-006  0.9118800E+02  0.7816164E-02  0.1184000E+00
        -11   -1    0    0    0    0  0.00000000000E+00  0.00000000000E+00  0.45593999997E+02  0.45594000000E+02  0.51100000000E-03 0. -1.
         11   -1    0    0    0    0 -0.00000000000E+00 -0.00000000000E+00 -0.45593999997E+02  0.45594000000E+02  0.51100000000E-03 0.  1.
         23    2    1    2    0    0  0.00000000000E+00  0.00000000000E+00 -0.17763568394E-14  0.91188000000E+02  0.91188000000E+02 0.  0.
    9900012    2    3    3    0    0  0.32089176430E+02 -0.17296769742E+02 -0.51849995585E+01  0.54367113157E+02  0.40000066065E+02 0.  0.
         12    1    3    3    0    0 -0.32089176430E+02  0.17296769742E+02  0.51849995585E+01  0.36820886843E+02  0.00000000000E+00 0. -1.
         11    1    4    4    0    0 -0.11634604544E+01  0.85324618635E+00  0.83948465126E-01  0.14452393883E+01  0.51100000000E-03 0. -1.
        -11    1    4    4    0    0  0.85366553139E+01 -0.20931239332E+02 -0.13968055430E+02  0.26572501513E+02  0.51100000000E-03 0.  1.
        -12    1    4    4    0    0  0.24715981571E+02  0.27812234038E+01  0.86991074060E+01  0.26349372256E+02  0.00000000000E+00 0.  1.
</event>
<event>
 8    1  0.2500956E-006  0.9118800E+02  0.7816164E-02  0.1184000E+00
        -11   -1    0    0    0    0  0.00000000000E+00  0.00000000000E+00  0.45593999997E+02  0.45594000000E+02  0.51100000000E-03 0.  1.
         11   -1    0    0    0    0 -0.00000000000E+00 -0.00000000000E+00 -0.45593999997E+02  0.45594000000E+02  0.51100000000E-03 0. -1.
         23    2    1    2    0    0  0.35527136788E-14  0.35527136788E-14  0.44408920985E-15  0.91188000000E+02  0.91188000000E+02 0.  0.
    9900012    2    3    3    0    0  0.26992043022E+02  0.24893925927E+02  0.27389315266E+01  0.54367086371E+02  0.40000005000E+02 0.  0.
        -12    1    3    3    0    0 -0.26992043022E+02 -0.24893925927E+02 -0.27389315266E+01  0.36820913629E+02  0.00000000000E+00 0.  1.
         11    1    4    4    0    0  0.51145224710E+01  0.25546466956E+02 -0.26994466491E+01  0.26192886945E+02  0.51100000000E-03 0. -1.
        -11    1    4    4    0    0 -0.60872314971E+00  0.45127028756E+01  0.12856426546E+01  0.47315862470E+01  0.51100000000E-03 0.  1.
        -12    1    4    4    0    0  0.22486243701E+02 -0.51652439041E+01  0.41527355211E+01  0.23442613179E+02  0.00000000000E+00 0.  1.
</event>
<event>
 8    1  0.2500956E-006  0.9118800E+02  0.7816164E-02  0.1184000E+00
        -11   -1    0    0    0    0  0.00000000000E+00  0.00000000000E+00  0.45593999997E+02  0.45594000000E+02  0.51100000000E-03 0. -1.
         11   -1    0    0    0    0 -0.00000000000E+00 -0.00000000000E+00 -0.45593999997E+02  0.45594000000E+02  0.51100000000E-03 0.  1.
         23    2    1    2    0    0  0.00000000000E+00 -0.35527136788E-14  0.00000000000E+00  0.91188000000E+02  0.91188000000E+02 0.  0.
    9900012    2    3    3    0    0  0.29796439436E+02  0.17200161580E+02  0.13118810511E+02  0.54367128871E+02  0.40000101888E+02 0.  0.
        -12    1    3    3    0    0 -0.29796439436E+02 -0.17200161580E+02 -0.13118810511E+02  0.36820871129E+02  0.00000000000E+00 0.  1.
         11    1    4    4    0    0  0.81621556099E+01  0.21676354109E+02  0.95368312002E+01  0.25048677835E+02  0.51100000000E-03 0. -1.
        -11    1    4    4    0    0  0.37236948548E+01 -0.96906015131E+01  0.22087215384E+01  0.10613769931E+02  0.51100000000E-03 0.  1.
        -12    1    4    4    0    0  0.17910588971E+02  0.52144089844E+01  0.13732577727E+01  0.18704681106E+02  0.00000000000E+00 0.  1.
</event>
<event>
 8    1  0.2500956E-006  0.9118800E+02  0.7816164E-02  0.1184000E+00
        -11   -1    0    0    0    0  0.00000000000E+00  0.00000000000E+00  0.45593999997E+02  0.45594000000E+02  0.51100000000E-03 0.  1.
         11   -1    0    0    0    0 -0.00000000000E+00 -0.00000000000E+00 -0.45593999997E+02  0.45594000000E+02  0.51100000000E-03 0. -1.
         23    2    1    2    0    0 -0.35527136788E-14  0.35527136788E-14  0.35527136788E-14  0.91188000000E+02  0.91188000000E+02 0.  0.
    9900012    2    3    3    0    0 -0.21608575861E+02  0.15140497615E+02  0.25682971351E+02  0.54367078825E+02  0.39999987797E+02 0.  0.
         12    1    3    3    0    0  0.21608575861E+02 -0.15140497615E+02 -0.25682971351E+02  0.36820921175E+02  0.00000000000E+00 0. -1.
         11    1    4    4    0    0 -0.13118226303E+02  0.25120811958E+02  0.37746887345E+01  0.28590056489E+02  0.51100000000E-03 0.  1.
        -11    1    4    4    0    0 -0.38805495378E+00 -0.25673062902E+01  0.39428435265E+01  0.47209812085E+01  0.51100000000E-03 0. -1.
        -12    1    4    4    0    0 -0.81022946042E+01 -0.74130080526E+01  0.17965439090E+02  0.21056041127E+02  0.00000000000E+00 0.  1.
</event>
<event>
 8    1  0.2500956E-006  0.9118800E+02  0.7816164E-02  0.1184000E+00
        -11   -1    0    0    0    0  0.00000000000E+00  0.00000000000E+00  0.45593999997E+02  0.45594000000E+02  0.51100000000E-03 0. -1.
         11   -1    0    0    0    0 -0.00000000000E+00 -0.00000000000E+00 -0.45593999997E+02  0.45594000000E+02  0.51100000000E-03 0.  1.
         23    2    1    2    0    0  0.17763568394E-14  0.00000000000E+00  0.00000000000E+00  0.91188000000E+02  0.91188000000E+02 0.  0.
    9900012    2    3    3    0    0 -0.11205951113E+02  0.26737810833E+02  0.22700124520E+02  0.54367088526E+02  0.40000009914E+02 0.  0.
        -12    1    3    3    0    0  0.11205951113E+02 -0.26737810833E+02 -0.22700124520E+02  0.36820911474E+02  0.00000000000E+00 0.  1.
         11    1    4    4    0    0 -0.48776278297E+01  0.23454266790E+02  0.15498141300E+02  0.28532197039E+02  0.51100000000E-03 0. -1.
        -11    1    4    4    0    0  0.39674391742E+01  0.92465793771E+01  0.93606952530E+01  0.13742722425E+02  0.51100000000E-03 0.  1.
         12    1    4    4    0    0 -0.10295762458E+02 -0.59630353339E+01 -0.21587120322E+01  0.12092169062E+02  0.00000000000E+00 0. -1.
</event>
<event>
 8    1  0.2500956E-006  0.9118800E+02  0.7816164E-02  0.1184000E+00
        -11   -1    0    0    0    0  0.00000000000E+00  0.00000000000E+00  0.45593999997E+02  0.45594000000E+02  0.51100000000E-03 0. -1.
         11   -1    0    0    0    0 -0.00000000000E+00 -0.00000000000E+00 -0.45593999997E+02  0.45594000000E+02  0.51100000000E-03 0.  1.
         23    2    1    2    0    0  0.00000000000E+00  0.44408920985E-15 -0.33306690739E-15  0.91188000000E+02  0.91188000000E+02 0.  0.
    9900012    2    3    3    0    0  0.36731267687E+02  0.23658119550E+01 -0.99795328531E+00  0.54367095572E+02  0.40000025976E+02 0.  0.
         12    1    3    3    0    0 -0.36731267687E+02 -0.23658119550E+01  0.99795328531E+00  0.36820904428E+02  0.00000000000E+00 0. -1.
         11    1    4    4    0    0  0.17087300502E+02  0.14118679572E+02 -0.91338092141E+01  0.23973723581E+02  0.51100000000E-03 0. -1.
        -11    1    4    4    0    0  0.13255069889E+02 -0.79651811312E+01 -0.41729383399E+01  0.16017315719E+02  0.51100000000E-03 0.  1.
         12    1    4    4    0    0  0.63888972972E+01 -0.37876864859E+01  0.12308794269E+02  0.14376056272E+02  0.00000000000E+00 0. -1.
</event>
<event>
 8    1  0.2500956E-006  0.9118800E+02  0.7816164E-02  0.1184000E+00
        -11   -1    0    0    0    0  0.00000000000E+00  0.00000000000E+00  0.45593999997E+02  0.45594000000E+02  0.51100000000E-03 0.  1.
         11   -1    0    0    0    0 -0.00000000000E+00 -0.00000000000E+00 -0.45593999997E+02  0.45594000000E+02  0.51100000000E-03 0. -1.
         23    2    1    2    0    0  0.17763568394E-14 -0.35527136788E-14  0.00000000000E+00  0.91188000000E+02  0.91188000000E+02 0.  0.
    9900012    2    3    3    0    0  0.11300670149E+02 -0.87197200587E+01 -0.33941758944E+02  0.54367059437E+02  0.39999943599E+02 0.  0.
        -12    1    3    3    0    0 -0.11300670149E+02  0.87197200587E+01  0.33941758944E+02  0.36820940563E+02  0.00000000000E+00 0.  1.
         11    1    4    4    0    0  0.19639458573E+01  0.62689469262E+01 -0.97780587128E+00  0.66417530425E+01  0.51100000000E-03 0. -1.
        -11    1    4    4    0    0  0.18629936833E+02 -0.16628756791E+02 -0.22230144618E+02  0.33433058921E+02  0.51100000000E-03 0.  1.
         12    1    4    4    0    0 -0.92932125412E+01  0.16400898061E+01 -0.10733808454E+02  0.14292247473E+02  0.00000000000E+00 0. -1.
</event>
<event>
 8    1  0.2500956E-006  0.9118800E+02  0.7816164E-02  0.1184000E+00
        -11   -1    0    0    0    0  0.00000000000E+00  0.00000000000E+00  0.45593999997E+02  0.45594000000E+02  0.51100000000E-03 0.  1.
         11   -1    0    0    0    0 -0.00000000000E+00 -0.00000000000E+00 -0.45593999997E+02  0.45594000000E+02  0.51100000000E-03 0. -1.
         23    2    1    2    0    0  0.17763568394E-14  0.35527136788E-14  0.00000000000E+00  0.91188000000E+02  0.91188000000E+02 0.  0.
    9900012    2    3    3    0    0  0.13152212957E+02  0.83993187027E+01  0.33350289658E+02  0.54367203151E+02  0.40000271222E+02 0.  0.
         12    1    3    3    0    0 -0.13152212957E+02 -0.83993187027E+01 -0.33350289658E+02  0.36820796849E+02  0.00000000000E+00 0. -1.
         11    1    4    4    0    0 -0.79694770439E+00 -0.10066397569E+02  0.17752700692E+02  0.20423659510E+02  0.51100000000E-03 0.  1.
        -11    1    4    4    0    0  0.17813487108E+02  0.11462815058E+02  0.72668029153E+01  0.22394706447E+02  0.51100000000E-03 0. -1.
         12    1    4    4    0    0 -0.38643264461E+01  0.70029012147E+01  0.83307860505E+01  0.11548837194E+02  0.00000000000E+00 0. -1.
</event>
<event>
 8    1  0.2500956E-006  0.9118800E+02  0.7816164E-02  0.1184000E+00
        -11   -1    0    0    0    0  0.00000000000E+00  0.00000000000E+00  0.45593999997E+02  0.45594000000E+02  0.51100000000E-03 0.  1.
         11   -1    0    0    0    0 -0.00000000000E+00 -0.00000000000E+00 -0.45593999997E+02  0.45594000000E+02  0.51100000000E-03 0. -1.
         23    2    1    2    0    0  0.35527136788E-14  0.00000000000E+00 -0.35527136788E-14  0.91188000000E+02  0.91188000000E+02 0.  0.
    9900012    2    3    3    0    0 -0.22992067778E+02 -0.16879002994E+02  0.23286125021E+02  0.54367088261E+02  0.40000009309E+02 0.  0.
         12    1    3    3    0    0  0.22992067778E+02  0.16879002994E+02 -0.23286125021E+02  0.36820911739E+02  0.00000000000E+00 0. -1.
         11    1    4    4    0    0 -0.13793067752E+01  0.31104504473E+01 -0.42639189205E+01  0.54551254786E+01  0.51100000000E-03 0. -1.
        -11    1    4    4    0    0 -0.28141373568E+02 -0.17413539717E+02  0.24880526875E+02  0.41403005804E+02  0.51100000000E-03 0.  1.
        -12    1    4    4    0    0  0.65286125650E+01 -0.25759137238E+01  0.26695170672E+01  0.75089569787E+01  0.00000000000E+00 0.  1.
</event>
<event>
 8    1  0.2500956E-006  0.9118800E+02  0.7816164E-02  0.1184000E+00
        -11   -1    0    0    0    0  0.00000000000E+00  0.00000000000E+00  0.45593999997E+02  0.45594000000E+02  0.51100000000E-03 0.  1.
         11   -1    0    0    0    0 -0.00000000000E+00 -0.00000000000E+00 -0.45593999997E+02  0.45594000000E+02  0.51100000000E-03 0. -1.
         23    2    1    2    0    0  0.00000000000E+00  0.17763568394E-14  0.35527136788E-14  0.91188000000E+02  0.91188000000E+02 0.  0.
    9900012    2    3    3    0    0  0.13322708514E+02  0.12953852750E+02  0.31788094670E+02  0.54367084395E+02  0.40000000496E+02 0.  0.
         12    1    3    3    0    0 -0.13322708514E+02 -0.12953852750E+02 -0.31788094670E+02  0.36820915605E+02  0.00000000000E+00 0. -1.
         11    1    4    4    0    0  0.81422891373E+01 -0.59915316870E+01 -0.12898028494E+01  0.10191119468E+02  0.51100000000E-03 0. -1.
        -11    1    4    4    0    0 -0.31503944868E+01  0.17166543497E+02  0.11301732464E+02  0.20792892007E+02  0.51100000000E-03 0.  1.
        -12    1    4    4    0    0  0.83308138637E+01  0.17788409403E+01  0.21776165055E+02  0.23383072921E+02  0.00000000000E+00 0.  1.
</event>
<event>
 8    1  0.2500956E-006  0.9118800E+02  0.7816164E-02  0.1184000E+00
        -11   -1    0    0    0    0  0.00000000000E+00  0.00000000000E+00  0.45593999997E+02  0.45594000000E+02  0.51100000000E-03 0.  1.
         11   -1    0    0    0    0 -0.00000000000E+00 -0.00000000000E+00 -0.45593999997E+02  0.45594000000E+02  0.51100000000E-03 0. -1.
         23    2    1    2    0    0  0.00000000000E+00  0.00000000000E+00  0.17763568394E-14  0.91188000000E+02  0.91188000000E+02 0.  0.
    9900012    2    3    3    0    0 -0.34564514625E+02 -0.52669080485E+01  0.11547026503E+02  0.54367084575E+02  0.40000000905E+02 0.  0.
         12    1    3    3    0    0  0.34564514625E+02  0.52669080485E+01 -0.11547026503E+02  0.36820915425E+02  0.00000000000E+00 0. -1.
         11    1    4    4    0    0 -0.18123323636E+02  0.82063385928E+01  0.10511274479E+02  0.22500794300E+02  0.51100000000E-03 0. -1.
        -11    1    4    4    0    0 -0.13454375545E+02 -0.13547212715E+02  0.10605580901E+02  0.21840914362E+02  0.51100000000E-03 0.  1.
         12    1    4    4    0    0 -0.29868154441E+01  0.73966073523E-01 -0.95698288763E+01  0.10025375913E+02  0.00000000000E+00 0. -1.
</event>
<event>
 8    1  0.2500956E-006  0.9118800E+02  0.7816164E-02  0.1184000E+00
        -11   -1    0    0    0    0  0.00000000000E+00  0.00000000000E+00  0.45593999997E+02  0.45594000000E+02  0.51100000000E-03 0.  1.
         11   -1    0    0    0    0 -0.00000000000E+00 -0.00000000000E+00 -0.45593999997E+02  0.45594000000E+02  0.51100000000E-03 0. -1.
         23    2    1    2    0    0  0.00000000000E+00 -0.12767564783E-14  0.00000000000E+00  0.91188000000E+02  0.91188000000E+02 0.  0.
    9900012    2    3    3    0    0 -0.13352520421E+02  0.18268484818E+00 -0.34314085628E+02  0.54367086814E+02  0.40000006011E+02 0.  0.
        -12    1    3    3    0    0  0.13352520421E+02 -0.18268484818E+00  0.34314085628E+02  0.36820913186E+02  0.00000000000E+00 0.  1.
         11    1    4    4    0    0 -0.43230806496E+01 -0.59447842065E+01 -0.24020486888E+02  0.25119977630E+02  0.51100000000E-03 0. -1.
        -11    1    4    4    0    0 -0.11433002317E+01  0.13187308190E+02 -0.12752850612E+02  0.18380626532E+02  0.51100000000E-03 0.  1.
        -12    1    4    4    0    0 -0.78861395396E+01 -0.70598391355E+01  0.24592518719E+01  0.10866482652E+02  0.00000000000E+00 0.  1.
</event>
<event>
 8    1  0.2500956E-006  0.9118800E+02  0.7816164E-02  0.1184000E+00
        -11   -1    0    0    0    0  0.00000000000E+00  0.00000000000E+00  0.45593999997E+02  0.45594000000E+02  0.51100000000E-03 0. -1.
         11   -1    0    0    0    0 -0.00000000000E+00 -0.00000000000E+00 -0.45593999997E+02  0.45594000000E+02  0.51100000000E-03 0.  1.
         23    2    1    2    0    0  0.35527136788E-14 -0.35527136788E-14  0.00000000000E+00  0.91188000000E+02  0.91188000000E+02 0.  0.
    9900012    2    3    3    0    0 -0.18843643565E+02  0.31192331118E+02 -0.52665165240E+01  0.54367073617E+02  0.39999975925E+02 0.  0.
         12    1    3    3    0    0  0.18843643565E+02 -0.31192331118E+02  0.52665165240E+01  0.36820926383E+02  0.00000000000E+00 0. -1.
         11    1    4    4    0    0 -0.99438465727E+01  0.19162475124E+02 -0.56611913589E+01  0.22318817742E+02  0.51100000000E-03 0. -1.
        -11    1    4    4    0    0 -0.32445505101E+01  0.93765706131E+01 -0.13534882210E+02  0.16782139946E+02  0.51100000000E-03 0.  1.
         12    1    4    4    0    0 -0.56552464824E+01  0.26532853812E+01  0.13929557045E+02  0.15266115929E+02  0.00000000000E+00 0. -1.
</event>
<event>
 8    1  0.2500956E-006  0.9118800E+02  0.7816164E-02  0.1184000E+00
        -11   -1    0    0    0    0  0.00000000000E+00  0.00000000000E+00  0.45593999997E+02  0.45594000000E+02  0.51100000000E-03 0.  1.
         11   -1    0    0    0    0 -0.00000000000E+00 -0.00000000000E+00 -0.45593999997E+02  0.45594000000E+02  0.51100000000E-03 0. -1.
         23    2    1    2    0    0  0.00000000000E+00  0.35527136788E-14 -0.26645352591E-14  0.91188000000E+02  0.91188000000E+02 0.  0.
    9900012    2    3    3    0    0  0.18131357871E+02 -0.31768233856E+02  0.42206080879E+01  0.54367077236E+02  0.39999984175E+02 0.  0.
        -12    1    3    3    0    0 -0.18131357871E+02  0.31768233856E+02 -0.42206080879E+01  0.36820922764E+02  0.00000000000E+00 0.  1.
         11    1    4    4    0    0  0.71917042778E+01 -0.20226769072E+02  0.84840682550E+01  0.23082942012E+02  0.51100000000E-03 0. -1.
        -11    1    4    4    0    0  0.12751285293E+02 -0.34032568932E+01  0.87458303923E+01  0.15832466125E+02  0.51100000000E-03 0.  1.
        -12    1    4    4    0    0 -0.18116316995E+01 -0.81382078908E+01 -0.13009290560E+02  0.15451669099E+02  0.00000000000E+00 0.  1.
</event>
<event>
 8    1  0.2500956E-006  0.9118800E+02  0.7816164E-02  0.1184000E+00
        -11   -1    0    0    0    0  0.00000000000E+00  0.00000000000E+00  0.45593999997E+02  0.45594000000E+02  0.51100000000E-03 0. -1.
         11   -1    0    0    0    0 -0.00000000000E+00 -0.00000000000E+00 -0.45593999997E+02  0.45594000000E+02  0.51100000000E-03 0.  1.
         23    2    1    2    0    0  0.66613381478E-15  0.00000000000E+00  0.35527136788E-14  0.91188000000E+02  0.91188000000E+02 0.  0.
    9900012    2    3    3    0    0 -0.17940116218E+01  0.27946410942E+02  0.23907314295E+02  0.54367081502E+02  0.39999993900E+02 0.  0.
        -12    1    3    3    0    0  0.17940116218E+01 -0.27946410942E+02 -0.23907314295E+02  0.36820918498E+02  0.00000000000E+00 0.  1.
         11    1    4    4    0    0 -0.22455219763E+01  0.12681579513E+02  0.11622537449E+02  0.17347858799E+02  0.51100000000E-03 0. -1.
        -11    1    4    4    0    0 -0.94483350442E+01 -0.34437071430E+01  0.12254846521E+02  0.15852804720E+02  0.51100000000E-03 0.  1.
        -12    1    4    4    0    0  0.98998453986E+01  0.18708538571E+02  0.29930325785E-01  0.21166417983E+02  0.00000000000E+00 0.  1.
</event>
<event>
 8    1  0.2500956E-006  0.9118800E+02  0.7816164E-02  0.1184000E+00
        -11   -1    0    0    0    0  0.00000000000E+00  0.00000000000E+00  0.45593999997E+02  0.45594000000E+02  0.51100000000E-03 0.  1.
         11   -1    0    0    0    0 -0.00000000000E+00 -0.00000000000E+00 -0.45593999997E+02  0.45594000000E+02  0.51100000000E-03 0. -1.
         23    2    1    2    0    0  0.00000000000E+00  0.35527136788E-14  0.88817841970E-15  0.91188000000E+02  0.91188000000E+02 0.  0.
    9900012    2    3    3    0    0  0.30473391210E+02  0.20324570912E+02  0.37526990258E+01  0.54366830755E+02  0.39999422268E+02 0.  0.
        -12    1    3    3    0    0 -0.30473391210E+02 -0.20324570912E+02 -0.37526990258E+01  0.36821169245E+02  0.00000000000E+00 0.  1.
         11    1    4    4    0    0  0.69138506058E+01  0.17335140106E+02 -0.63293065713E+01  0.19707068139E+02  0.51100000000E-03 0. -1.
        -11    1    4    4    0    0  0.14861870964E+02  0.89941040214E+01  0.15047350461E+02  0.22982425282E+02  0.51100000000E-03 0.  1.
         12    1    4    4    0    0  0.86976696405E+01 -0.60046732155E+01 -0.49653448641E+01  0.11677337334E+02  0.00000000000E+00 0. -1.
</event>
<event>
 8    1  0.2500956E-006  0.9118800E+02  0.7816164E-02  0.1184000E+00
        -11   -1    0    0    0    0  0.00000000000E+00  0.00000000000E+00  0.45593999997E+02  0.45594000000E+02  0.51100000000E-03 0.  1.
         11   -1    0    0    0    0 -0.00000000000E+00 -0.00000000000E+00 -0.45593999997E+02  0.45594000000E+02  0.51100000000E-03 0. -1.
         23    2    1    2    0    0 -0.42188474936E-14  0.00000000000E+00  0.00000000000E+00  0.91188000000E+02  0.91188000000E+02 0.  0.
    9900012    2    3    3    0    0  0.19255283110E+01 -0.32201253187E+02 -0.17752629895E+02  0.54367024534E+02  0.39999864029E+02 0.  0.
        -12    1    3    3    0    0 -0.19255283110E+01  0.32201253187E+02  0.17752629895E+02  0.36820975466E+02  0.00000000000E+00 0.  1.
         11    1    4    4    0    0  0.19796570660E+02 -0.15234881598E+02 -0.95140822318E+01  0.26730574034E+02  0.51100000000E-03 0. -1.
        -11    1    4    4    0    0 -0.12055977892E+02 -0.50552540763E+01 -0.49594090559E+01  0.13982057615E+02  0.51100000000E-03 0.  1.
         12    1    4    4    0    0 -0.58150644567E+01 -0.11911117513E+02 -0.32791386074E+01  0.13654392885E+02  0.00000000000E+00 0. -1.
</event>
<event>
 8    1  0.2500956E-006  0.9118800E+02  0.7816164E-02  0.1184000E+00
        -11   -1    0    0    0    0  0.00000000000E+00  0.00000000000E+00  0.45593999997E+02  0.45594000000E+02  0.51100000000E-03 0.  1.
         11   -1    0    0    0    0 -0.00000000000E+00 -0.00000000000E+00 -0.45593999997E+02  0.45594000000E+02  0.51100000000E-03 0. -1.
         23    2    1    2    0    0  0.00000000000E+00  0.17763568394E-14  0.71054273576E-14  0.91188000000E+02  0.91188000000E+02 0.  0.
    9900012    2    3    3    0    0  0.95494062928E+01  0.85879806014E+01 -0.34508484590E+02  0.54367080945E+02  0.39999992631E+02 0.  0.
        -12    1    3    3    0    0 -0.95494062928E+01 -0.85879806014E+01  0.34508484590E+02  0.36820919055E+02  0.00000000000E+00 0.  1.
         11    1    4    4    0    0  0.49614595765E+01 -0.23759156311E+01  0.32711380313E+00  0.55107222681E+01  0.51100000000E-03 0. -1.
        -11    1    4    4    0    0  0.14562708298E+01  0.16156702529E+02 -0.30612257485E+01  0.16508508857E+02  0.51100000000E-03 0.  1.
        -12    1    4    4    0    0  0.31316758865E+01 -0.51928062960E+01 -0.31774372644E+02  0.32347849821E+02  0.00000000000E+00 0.  1.
</event>
<event>
 8    1  0.2500956E-006  0.9118800E+02  0.7816164E-02  0.1184000E+00
        -11   -1    0    0    0    0  0.00000000000E+00  0.00000000000E+00  0.45593999997E+02  0.45594000000E+02  0.51100000000E-03 0. -1.
         11   -1    0    0    0    0 -0.00000000000E+00 -0.00000000000E+00 -0.45593999997E+02  0.45594000000E+02  0.51100000000E-03 0.  1.
         23    2    1    2    0    0  0.17763568394E-14  0.71054273576E-14 -0.35527136788E-14  0.91188000000E+02  0.91188000000E+02 0.  0.
    9900012    2    3    3    0    0  0.12954777621E+02 -0.27794747720E+02 -0.20381476137E+02  0.54367097871E+02  0.40000031217E+02 0.  0.
         12    1    3    3    0    0 -0.12954777621E+02  0.27794747720E+02  0.20381476137E+02  0.36820902129E+02  0.00000000000E+00 0. -1.
         11    1    4    4    0    0 -0.42228420345E+01  0.56695536211E+01 -0.43205235141E+01  0.82851165838E+01  0.51100000000E-03 0. -1.
        -11    1    4    4    0    0  0.33896424178E+01  0.18379993874E+01 -0.55393321219E+01  0.67492309255E+01  0.51100000000E-03 0.  1.
         12    1    4    4    0    0  0.13787977238E+02 -0.35302300729E+02 -0.10521620501E+02  0.39332750362E+02  0.00000000000E+00 0. -1.
</event>
<event>
 8    1  0.2500956E-006  0.9118800E+02  0.7816164E-02  0.1184000E+00
        -11   -1    0    0    0    0  0.00000000000E+00  0.00000000000E+00  0.45593999997E+02  0.45594000000E+02  0.51100000000E-03 0. -1.
         11   -1    0    0    0    0 -0.00000000000E+00 -0.00000000000E+00 -0.45593999997E+02  0.45594000000E+02  0.51100000000E-03 0.  1.
         23    2    1    2    0    0  0.00000000000E+00 -0.88817841970E-15 -0.35527136788E-14  0.91188000000E+02  0.91188000000E+02 0.  0.
    9900012    2    3    3    0    0 -0.30328907352E+02  0.74770177866E+01 -0.19494394844E+02  0.54367084117E+02  0.39999999861E+02 0.  0.
         12    1    3    3    0    0  0.30328907352E+02 -0.74770177866E+01  0.19494394844E+02  0.36820915883E+02  0.00000000000E+00 0. -1.
         11    1    4    4    0    0  0.64383802251E+01  0.10707145262E+01  0.36542105255E+01  0.74801353160E+01  0.51100000000E-03 0. -1.
        -11    1    4    4    0    0 -0.38025864324E+02  0.45978585857E+01 -0.20506739354E+02  0.43446898857E+02  0.51100000000E-03 0.  1.
        -12    1    4    4    0    0  0.12585767464E+01  0.18084446747E+01 -0.26418660156E+01  0.34400499433E+01  0.00000000000E+00 0.  1.
</event>
<event>
 8    1  0.2500956E-006  0.9118800E+02  0.7816164E-02  0.1184000E+00
        -11   -1    0    0    0    0  0.00000000000E+00  0.00000000000E+00  0.45593999997E+02  0.45594000000E+02  0.51100000000E-03 0. -1.
         11   -1    0    0    0    0 -0.00000000000E+00 -0.00000000000E+00 -0.45593999997E+02  0.45594000000E+02  0.51100000000E-03 0.  1.
         23    2    1    2    0    0  0.00000000000E+00  0.00000000000E+00  0.00000000000E+00  0.91188000000E+02  0.91188000000E+02 0.  0.
    9900012    2    3    3    0    0 -0.29025991037E+02  0.13230308109E+02  0.18391051052E+02  0.54367082478E+02  0.39999996126E+02 0.  0.
        -12    1    3    3    0    0  0.29025991037E+02 -0.13230308109E+02 -0.18391051052E+02  0.36820917522E+02  0.00000000000E+00 0.  1.
         11    1    4    4    0    0 -0.21808900846E+02  0.16327248339E+02  0.13916770174E+02  0.30592216114E+02  0.51100000000E-03 0. -1.
        -11    1    4    4    0    0 -0.24135636599E+00 -0.46436578922E+01  0.12316923617E+02  0.13165425142E+02  0.51100000000E-03 0.  1.
         12    1    4    4    0    0 -0.69757338247E+01  0.15467176621E+01 -0.78426427388E+01  0.10609441222E+02  0.00000000000E+00 0. -1.
</event>
<event>
 8    1  0.2500956E-006  0.9118800E+02  0.7816164E-02  0.1184000E+00
        -11   -1    0    0    0    0  0.00000000000E+00  0.00000000000E+00  0.45593999997E+02  0.45594000000E+02  0.51100000000E-03 0.  1.
         11   -1    0    0    0    0 -0.00000000000E+00 -0.00000000000E+00 -0.45593999997E+02  0.45594000000E+02  0.51100000000E-03 0. -1.
         23    2    1    2    0    0  0.00000000000E+00  0.88817841970E-15  0.35527136788E-14  0.91188000000E+02  0.91188000000E+02 0.  0.
    9900012    2    3    3    0    0  0.27953719792E+02  0.69345918225E+01  0.22940862817E+02  0.54367052148E+02  0.39999926981E+02 0.  0.
         12    1    3    3    0    0 -0.27953719792E+02 -0.69345918225E+01 -0.22940862817E+02  0.36820947852E+02  0.00000000000E+00 0. -1.
         11    1    4    4    0    0  0.72234934855E+01  0.65727941609E+01 -0.62243191330E+01  0.11581132507E+02  0.51100000000E-03 0. -1.
        -11    1    4    4    0    0  0.24036078868E+02  0.29846072916E+01  0.29924450866E+02  0.38498230193E+02  0.51100000000E-03 0.  1.
        -12    1    4    4    0    0 -0.33058525617E+01 -0.26228096299E+01 -0.75926891653E+00  0.42876894480E+01  0.00000000000E+00 0.  1.
</event>
<event>
 8    1  0.2500956E-006  0.9118800E+02  0.7816164E-02  0.1184000E+00
        -11   -1    0    0    0    0  0.00000000000E+00  0.00000000000E+00  0.45593999997E+02  0.45594000000E+02  0.51100000000E-03 0. -1.
         11   -1    0    0    0    0 -0.00000000000E+00 -0.00000000000E+00 -0.45593999997E+02  0.45594000000E+02  0.51100000000E-03 0.  1.
         23    2    1    2    0    0 -0.88817841970E-15 -0.17763568394E-14  0.00000000000E+00  0.91188000000E+02  0.91188000000E+02 0.  0.
    9900012    2    3    3    0    0  0.61267052483E+01  0.80384232893E+01 -0.35406590582E+02  0.54367089870E+02  0.40000012977E+02 0.  0.
         12    1    3    3    0    0 -0.61267052483E+01 -0.80384232893E+01  0.35406590582E+02  0.36820910130E+02  0.00000000000E+00 0. -1.
         11    1    4    4    0    0  0.11187263940E+02  0.40557492402E+01 -0.96747489062E+01  0.15336386244E+02  0.51100000000E-03 0. -1.
        -11    1    4    4    0    0  0.56915871048E+01  0.12956539532E+02 -0.18430359902E+02  0.23236700428E+02  0.51100000000E-03 0.  1.
         12    1    4    4    0    0 -0.10752145796E+02 -0.89738654831E+01 -0.73014817735E+01  0.15794003198E+02  0.00000000000E+00 0. -1.
</event>
<event>
 8    1  0.2500956E-006  0.9118800E+02  0.7816164E-02  0.1184000E+00
        -11   -1    0    0    0    0  0.00000000000E+00  0.00000000000E+00  0.45593999997E+02  0.45594000000E+02  0.51100000000E-03 0. -1.
         11   -1    0    0    0    0 -0.00000000000E+00 -0.00000000000E+00 -0.45593999997E+02  0.45594000000E+02  0.51100000000E-03 0.  1.
         23    2    1    2    0    0  0.00000000000E+00  0.71054273576E-14  0.00000000000E+00  0.91188000000E+02  0.91188000000E+02 0.  0.
    9900012    2    3    3    0    0 -0.76383053130E+01 -0.35747142425E+02  0.44248472891E+01  0.54367066102E+02  0.39999958792E+02 0.  0.
        -12    1    3    3    0    0  0.76383053130E+01  0.35747142425E+02 -0.44248472891E+01  0.36820933898E+02  0.00000000000E+00 0.  1.
         11    1    4    4    0    0  0.12035739599E+02 -0.12558972238E+02 -0.45417612591E+00  0.17400950767E+02  0.51100000000E-03 0. -1.
        -11    1    4    4    0    0  0.38460029272E+01 -0.34045608186E+01  0.34720761631E+01  0.61998456454E+01  0.51100000000E-03 0.  1.
         12    1    4    4    0    0 -0.23520047840E+02 -0.19783609369E+02  0.14069472519E+01  0.30766269689E+02  0.00000000000E+00 0. -1.
</event>
<event>
 8    1  0.2500956E-006  0.9118800E+02  0.7816164E-02  0.1184000E+00
        -11   -1    0    0    0    0  0.00000000000E+00  0.00000000000E+00  0.45593999997E+02  0.45594000000E+02  0.51100000000E-03 0.  1.
         11   -1    0    0    0    0 -0.00000000000E+00 -0.00000000000E+00 -0.45593999997E+02  0.45594000000E+02  0.51100000000E-03 0. -1.
         23    2    1    2    0    0  0.35527136788E-14  0.00000000000E+00 -0.17763568394E-14  0.91188000000E+02  0.91188000000E+02 0.  0.
    9900012    2    3    3    0    0 -0.29778239886E+02  0.15987099193E+02  0.14609859290E+02  0.54367096972E+02  0.40000029166E+02 0.  0.
         12    1    3    3    0    0  0.29778239886E+02 -0.15987099193E+02 -0.14609859290E+02  0.36820903028E+02  0.00000000000E+00 0. -1.
         11    1    4    4    0    0  0.49813153233E+01  0.64969578952E+01 -0.23970963974E+01  0.85305354838E+01  0.51100000000E-03 0. -1.
        -11    1    4    4    0    0 -0.35532276211E+02  0.35360087288E+01  0.17588239187E+02  0.39804423981E+02  0.51100000000E-03 0.  1.
        -12    1    4    4    0    0  0.77272100168E+00  0.59541325691E+01 -0.58128349904E+00  0.60321375070E+01  0.00000000000E+00 0.  1.
</event>
<event>
 8    1  0.2500956E-006  0.9118800E+02  0.7816164E-02  0.1184000E+00
        -11   -1    0    0    0    0  0.00000000000E+00  0.00000000000E+00  0.45593999997E+02  0.45594000000E+02  0.51100000000E-03 0. -1.
         11   -1    0    0    0    0 -0.00000000000E+00 -0.00000000000E+00 -0.45593999997E+02  0.45594000000E+02  0.51100000000E-03 0.  1.
         23    2    1    2    0    0  0.00000000000E+00 -0.17763568394E-14 -0.35527136788E-14  0.91188000000E+02  0.91188000000E+02 0.  0.
    9900012    2    3    3    0    0  0.32161126017E+02 -0.13532639020E+02  0.11760489283E+02  0.54367089451E+02  0.40000012021E+02 0.  0.
        -12    1    3    3    0    0 -0.32161126017E+02  0.13532639020E+02 -0.11760489283E+02  0.36820910549E+02  0.00000000000E+00 0.  1.
         11    1    4    4    0    0  0.52348423158E+01 -0.59544526674E+00  0.21090973448E+02  0.21739072896E+02  0.51100000000E-03 0. -1.
        -11    1    4    4    0    0  0.17134991103E+01  0.13670430942E+01 -0.12994897886E+01  0.25482464548E+01  0.51100000000E-03 0.  1.
         12    1    4    4    0    0  0.25212784591E+02 -0.14304236847E+02 -0.80309943768E+01  0.30079770100E+02  0.00000000000E+00 0. -1.
</event>
<event>
 8    1  0.2500956E-006  0.9118800E+02  0.7816164E-02  0.1184000E+00
        -11   -1    0    0    0    0  0.00000000000E+00  0.00000000000E+00  0.45593999997E+02  0.45594000000E+02  0.51100000000E-03 0.  1.
         11   -1    0    0    0    0 -0.00000000000E+00 -0.00000000000E+00 -0.45593999997E+02  0.45594000000E+02  0.51100000000E-03 0. -1.
         23    2    1    2    0    0  0.00000000000E+00  0.35527136788E-14  0.00000000000E+00  0.91188000000E+02  0.91188000000E+02 0.  0.
    9900012    2    3    3    0    0 -0.17455706443E+02  0.24715779127E+02 -0.20981191606E+02  0.54367057230E+02  0.39999938568E+02 0.  0.
        -12    1    3    3    0    0  0.17455706443E+02 -0.24715779127E+02  0.20981191606E+02  0.36820942770E+02  0.00000000000E+00 0.  1.
         11    1    4    4    0    0 -0.26225235488E+02  0.51582702352E+01 -0.11714941941E+02  0.29182367847E+02  0.51100000000E-03 0. -1.
        -11    1    4    4    0    0  0.16563185729E+01  0.67081076757E+01 -0.78069459921E+01  0.10425473888E+02  0.51100000000E-03 0.  1.
        -12    1    4    4    0    0  0.71132104721E+01  0.12849401216E+02 -0.14593036725E+01  0.14759215495E+02  0.00000000000E+00 0.  1.
</event>
<event>
 8    1  0.2500956E-006  0.9118800E+02  0.7816164E-02  0.1184000E+00
        -11   -1    0    0    0    0  0.00000000000E+00  0.00000000000E+00  0.45593999997E+02  0.45594000000E+02  0.51100000000E-03 0.  1.
         11   -1    0    0    0    0 -0.00000000000E+00 -0.00000000000E+00 -0.45593999997E+02  0.45594000000E+02  0.51100000000E-03 0. -1.
         23    2    1    2    0    0  0.00000000000E+00  0.00000000000E+00 -0.71054273576E-14  0.91188000000E+02  0.91188000000E+02 0.  0.
    9900012    2    3    3    0    0  0.10254019934E+02 -0.88416810432E+01  0.34241184115E+02  0.54367096453E+02  0.40000027983E+02 0.  0.
         12    1    3    3    0    0 -0.10254019934E+02  0.88416810432E+01 -0.34241184115E+02  0.36820903547E+02  0.00000000000E+00 0. -1.
         11    1    4    4    0    0  0.42183477142E+01 -0.14888836300E+02  0.26854142885E+02  0.30993820258E+02  0.51100000000E-03 0. -1.
        -11    1    4    4    0    0  0.37077127490E+01 -0.69879433918E+01  0.62527820135E+01  0.10083440377E+02  0.51100000000E-03 0.  1.
         12    1    4    4    0    0  0.23279594704E+01  0.13035098649E+02  0.11342592156E+01  0.13289835817E+02  0.00000000000E+00 0. -1.
</event>
<event>
 8    1  0.2500956E-006  0.9118800E+02  0.7816164E-02  0.1184000E+00
        -11   -1    0    0    0    0  0.00000000000E+00  0.00000000000E+00  0.45593999997E+02  0.45594000000E+02  0.51100000000E-03 0.  1.
         11   -1    0    0    0    0 -0.00000000000E+00 -0.00000000000E+00 -0.45593999997E+02  0.45594000000E+02  0.51100000000E-03 0. -1.
         23    2    1    2    0    0  0.00000000000E+00  0.17763568394E-14  0.00000000000E+00  0.91188000000E+02  0.91188000000E+02 0.  0.
    9900012    2    3    3    0    0 -0.31958709015E+02  0.10787572020E+02 -0.14766462377E+02  0.54367092853E+02  0.40000019776E+02 0.  0.
        -12    1    3    3    0    0  0.31958709015E+02 -0.10787572020E+02  0.14766462377E+02  0.36820907147E+02  0.00000000000E+00 0.  1.
         11    1    4    4    0    0 -0.20430366075E+02 -0.74098854179E+01  0.16449113550E+01  0.21794769866E+02  0.51100000000E-03 0. -1.
        -11    1    4    4    0    0  0.32115005998E+01  0.68569359194E+01  0.28844517979E+00  0.75772361180E+01  0.51100000000E-03 0.  1.
         12    1    4    4    0    0 -0.14739843540E+02  0.11340521518E+02 -0.16699818912E+02  0.24995086869E+02  0.00000000000E+00 0. -1.
</event>
<event>
 8    1  0.2500956E-006  0.9118800E+02  0.7816164E-02  0.1184000E+00
        -11   -1    0    0    0    0  0.00000000000E+00  0.00000000000E+00  0.45593999997E+02  0.45594000000E+02  0.51100000000E-03 0. -1.
         11   -1    0    0    0    0 -0.00000000000E+00 -0.00000000000E+00 -0.45593999997E+02  0.45594000000E+02  0.51100000000E-03 0.  1.
         23    2    1    2    0    0  0.35527136788E-14 -0.13322676296E-14  0.71054273576E-14  0.91188000000E+02  0.91188000000E+02 0.  0.
    9900012    2    3    3    0    0  0.31013337334E+02 -0.14286556773E+01  0.19796711050E+02  0.54367110304E+02  0.40000059559E+02 0.  0.
        -12    1    3    3    0    0 -0.31013337334E+02  0.14286556773E+01 -0.19796711050E+02  0.36820889696E+02  0.00000000000E+00 0.  1.
         11    1    4    4    0    0  0.15181552478E+02 -0.13545315099E+02  0.23363877809E+02  0.30981056846E+02  0.51100000000E-03 0. -1.
        -11    1    4    4    0    0  0.12365199354E+02  0.65606933407E+01  0.27742542712E+01  0.14270155542E+02  0.51100000000E-03 0.  1.
        -12    1    4    4    0    0  0.34665855015E+01  0.55559660808E+01 -0.63414210298E+01  0.91158979155E+01  0.00000000000E+00 0.  1.
</event>
<event>
 8    1  0.2500956E-006  0.9118800E+02  0.7816164E-02  0.1184000E+00
        -11   -1    0    0    0    0  0.00000000000E+00  0.00000000000E+00  0.45593999997E+02  0.45594000000E+02  0.51100000000E-03 0. -1.
         11   -1    0    0    0    0 -0.00000000000E+00 -0.00000000000E+00 -0.45593999997E+02  0.45594000000E+02  0.51100000000E-03 0.  1.
         23    2    1    2    0    0  0.00000000000E+00  0.00000000000E+00 -0.35527136788E-14  0.91188000000E+02  0.91188000000E+02 0.  0.
    9900012    2    3    3    0    0 -0.16856245532E+02  0.20507196497E+02 -0.25516680350E+02  0.54367094285E+02  0.40000023041E+02 0.  0.
        -12    1    3    3    0    0  0.16856245532E+02 -0.20507196497E+02  0.25516680350E+02  0.36820905715E+02  0.00000000000E+00 0.  1.
         11    1    4    4    0    0 -0.10344177265E+02  0.28882202401E+02 -0.24799997997E+02  0.39448998970E+02  0.51100000000E-03 0. -1.
        -11    1    4    4    0    0 -0.29052813125E+01  0.53874627746E+00  0.33594527401E+01  0.44740172139E+01  0.51100000000E-03 0.  1.
        -12    1    4    4    0    0 -0.36067869548E+01 -0.89137521815E+01 -0.40761350931E+01  0.10444078101E+02  0.00000000000E+00 0.  1.
</event>
<event>
 8    1  0.2500956E-006  0.9118800E+02  0.7816164E-02  0.1184000E+00
        -11   -1    0    0    0    0  0.00000000000E+00  0.00000000000E+00  0.45593999997E+02  0.45594000000E+02  0.51100000000E-03 0.  1.
         11   -1    0    0    0    0 -0.00000000000E+00 -0.00000000000E+00 -0.45593999997E+02  0.45594000000E+02  0.51100000000E-03 0. -1.
         23    2    1    2    0    0  0.35527136788E-14 -0.44408920985E-15  0.00000000000E+00  0.91188000000E+02  0.91188000000E+02 0.  0.
    9900012    2    3    3    0    0 -0.29400240281E+02  0.10033725096E+01  0.22144948938E+02  0.54367086806E+02  0.40000005992E+02 0.  0.
         12    1    3    3    0    0  0.29400240281E+02 -0.10033725096E+01 -0.22144948938E+02  0.36820913194E+02  0.00000000000E+00 0. -1.
         11    1    4    4    0    0 -0.26804991181E+02  0.27047687662E+01 -0.12681593705E+01  0.26970939078E+02  0.51100000000E-03 0. -1.
        -11    1    4    4    0    0 -0.52923084823E+01 -0.66825365435E+01  0.13085950747E+02  0.15617520000E+02  0.51100000000E-03 0.  1.
         12    1    4    4    0    0  0.26970593828E+01  0.49811402870E+01  0.10327157561E+02  0.11778627729E+02  0.00000000000E+00 0. -1.
</event>
<event>
 8    1  0.2500956E-006  0.9118800E+02  0.7816164E-02  0.1184000E+00
        -11   -1    0    0    0    0  0.00000000000E+00  0.00000000000E+00  0.45593999997E+02  0.45594000000E+02  0.51100000000E-03 0.  1.
         11   -1    0    0    0    0 -0.00000000000E+00 -0.00000000000E+00 -0.45593999997E+02  0.45594000000E+02  0.51100000000E-03 0. -1.
         23    2    1    2    0    0  0.35527136788E-14  0.00000000000E+00  0.17763568394E-14  0.91188000000E+02  0.91188000000E+02 0.  0.
    9900012    2    3    3    0    0  0.19393521699E+02  0.27124521659E+02  0.15618305389E+02  0.54367084445E+02  0.40000000609E+02 0.  0.
         12    1    3    3    0    0 -0.19393521699E+02 -0.27124521659E+02 -0.15618305389E+02  0.36820915555E+02  0.00000000000E+00 0. -1.
         11    1    4    4    0    0 -0.14724143847E+01  0.18118661506E+02  0.71503686046E+01  0.19534115550E+02  0.51100000000E-03 0. -1.
        -11    1    4    4    0    0  0.19780488805E+02  0.12523761976E+02  0.14664428095E+02  0.27625310912E+02  0.51100000000E-03 0.  1.
         12    1    4    4    0    0  0.10854472790E+01 -0.35179018229E+01 -0.61964913103E+01  0.72076579823E+01  0.00000000000E+00 0. -1.
</event>
<event>
 8    1  0.2500956E-006  0.9118800E+02  0.7816164E-02  0.1184000E+00
        -11   -1    0    0    0    0  0.00000000000E+00  0.00000000000E+00  0.45593999997E+02  0.45594000000E+02  0.51100000000E-03 0.  1.
         11   -1    0    0    0    0 -0.00000000000E+00 -0.00000000000E+00 -0.45593999997E+02  0.45594000000E+02  0.51100000000E-03 0. -1.
         23    2    1    2    0    0  0.17763568394E-14  0.35527136788E-14 -0.35527136788E-14  0.91188000000E+02  0.91188000000E+02 0.  0.
    9900012    2    3    3    0    0 -0.15870880113E+02 -0.28492380588E+02  0.17090328422E+02  0.54367083218E+02  0.39999997811E+02 0.  0.
         12    1    3    3    0    0  0.15870880113E+02  0.28492380588E+02 -0.17090328422E+02  0.36820916782E+02  0.00000000000E+00 0. -1.
         11    1    4    4    0    0 -0.32123145543E+01  0.60614667215E+01  0.10353014278E+02  0.12419551059E+02  0.51100000000E-03 0. -1.
        -11    1    4    4    0    0  0.37887544753E+01 -0.21966867830E+01 -0.16735951126E+01  0.46883914256E+01  0.51100000000E-03 0.  1.
        -12    1    4    4    0    0 -0.16447320034E+02 -0.32357160527E+02  0.84109092567E+01  0.37259140733E+02  0.00000000000E+00 0.  1.
</event>
<event>
 8    1  0.2500956E-006  0.9118800E+02  0.7816164E-02  0.1184000E+00
        -11   -1    0    0    0    0  0.00000000000E+00  0.00000000000E+00  0.45593999997E+02  0.45594000000E+02  0.51100000000E-03 0. -1.
         11   -1    0    0    0    0 -0.00000000000E+00 -0.00000000000E+00 -0.45593999997E+02  0.45594000000E+02  0.51100000000E-03 0.  1.
         23    2    1    2    0    0  0.00000000000E+00  0.00000000000E+00  0.00000000000E+00  0.91188000000E+02  0.91188000000E+02 0.  0.
    9900012    2    3    3    0    0 -0.26161929548E+02  0.15157061734E+02  0.21014198900E+02  0.54367087009E+02  0.40000006455E+02 0.  0.
        -12    1    3    3    0    0  0.26161929548E+02 -0.15157061734E+02 -0.21014198900E+02  0.36820912991E+02  0.00000000000E+00 0.  1.
         11    1    4    4    0    0 -0.18229485647E+01  0.16818385720E+01  0.21251091037E+02  0.21395340451E+02  0.51100000000E-03 0. -1.
        -11    1    4    4    0    0 -0.20939731691E+02  0.12612015991E+02 -0.69365300976E+01  0.25409658807E+02  0.51100000000E-03 0.  1.
        -12    1    4    4    0    0 -0.33992492923E+01  0.86320717162E+00  0.66996379596E+01  0.75620877516E+01  0.00000000000E+00 0.  1.
</event>
<event>
 8    1  0.2500956E-006  0.9118800E+02  0.7816164E-02  0.1184000E+00
        -11   -1    0    0    0    0  0.00000000000E+00  0.00000000000E+00  0.45593999997E+02  0.45594000000E+02  0.51100000000E-03 0. -1.
         11   -1    0    0    0    0 -0.00000000000E+00 -0.00000000000E+00 -0.45593999997E+02  0.45594000000E+02  0.51100000000E-03 0.  1.
         23    2    1    2    0    0  0.44408920985E-15  0.17763568394E-14  0.00000000000E+00  0.91188000000E+02  0.91188000000E+02 0.  0.
    9900012    2    3    3    0    0  0.13919499444E+01 -0.15833490074E+02 -0.33213576426E+02  0.54367101157E+02  0.40000038708E+02 0.  0.
         12    1    3    3    0    0 -0.13919499444E+01  0.15833490074E+02  0.33213576426E+02  0.36820898843E+02  0.00000000000E+00 0. -1.
         11    1    4    4    0    0  0.55340247635E+01  0.49526706440E+01 -0.86685463940E+00  0.74770190462E+01  0.51100000000E-03 0. -1.
        -11    1    4    4    0    0  0.68149297668E+01 -0.10471477482E+02 -0.15192546848E+01  0.12585835032E+02  0.51100000000E-03 0.  1.
        -12    1    4    4    0    0 -0.10957004586E+02 -0.10314683235E+02 -0.30827467102E+02  0.34304247079E+02  0.00000000000E+00 0.  1.
</event>
<event>
 8    1  0.2500956E-006  0.9118800E+02  0.7816164E-02  0.1184000E+00
        -11   -1    0    0    0    0  0.00000000000E+00  0.00000000000E+00  0.45593999997E+02  0.45594000000E+02  0.51100000000E-03 0.  1.
         11   -1    0    0    0    0 -0.00000000000E+00 -0.00000000000E+00 -0.45593999997E+02  0.45594000000E+02  0.51100000000E-03 0. -1.
         23    2    1    2    0    0 -0.35527136788E-14  0.00000000000E+00  0.16653345369E-15  0.91188000000E+02  0.91188000000E+02 0.  0.
    9900012    2    3    3    0    0 -0.29058672359E+02 -0.22612747853E+02 -0.19427001119E+00  0.54367074624E+02  0.39999978219E+02 0.  0.
         12    1    3    3    0    0  0.29058672359E+02  0.22612747853E+02  0.19427001119E+00  0.36820925376E+02  0.00000000000E+00 0. -1.
         11    1    4    4    0    0  0.35957294657E+01 -0.16956160938E+01  0.60705573960E+01  0.72564489723E+01  0.51100000000E-03 0. -1.
        -11    1    4    4    0    0 -0.29557407415E+02 -0.24079466716E+02  0.15209581105E+01  0.38154611310E+02  0.51100000000E-03 0.  1.
         12    1    4    4    0    0 -0.30969944101E+01  0.31623349564E+01 -0.77857855176E+01  0.89560143412E+01  0.00000000000E+00 0. -1.
</event>
<event>
 8    1  0.2500956E-006  0.9118800E+02  0.7816164E-02  0.1184000E+00
        -11   -1    0    0    0    0  0.00000000000E+00  0.00000000000E+00  0.45593999997E+02  0.45594000000E+02  0.51100000000E-03 0. -1.
         11   -1    0    0    0    0 -0.00000000000E+00 -0.00000000000E+00 -0.45593999997E+02  0.45594000000E+02  0.51100000000E-03 0.  1.
         23    2    1    2    0    0  0.44408920985E-15 -0.35527136788E-14  0.00000000000E+00  0.91188000000E+02  0.91188000000E+02 0.  0.
    9900012    2    3    3    0    0 -0.34509186844E+01 -0.28262979560E+02 -0.23346854930E+02  0.54367075399E+02  0.39999979987E+02 0.  0.
         12    1    3    3    0    0  0.34509186844E+01  0.28262979560E+02  0.23346854930E+02  0.36820924601E+02  0.00000000000E+00 0. -1.
         11    1    4    4    0    0  0.76087693993E+01 -0.26210663445E+01  0.31375921615E+01  0.86375833071E+01  0.51100000000E-03 0. -1.
        -11    1    4    4    0    0 -0.42670453968E+01  0.41560785935E+01 -0.12283269724E+01  0.60818955192E+01  0.51100000000E-03 0.  1.
         12    1    4    4    0    0 -0.67926426868E+01 -0.29797991809E+02 -0.25256120119E+02  0.39647596573E+02  0.00000000000E+00 0. -1.
</event>
<event>
 8    1  0.2500956E-006  0.9118800E+02  0.7816164E-02  0.1184000E+00
        -11   -1    0    0    0    0  0.00000000000E+00  0.00000000000E+00  0.45593999997E+02  0.45594000000E+02  0.51100000000E-03 0. -1.
         11   -1    0    0    0    0 -0.00000000000E+00 -0.00000000000E+00 -0.45593999997E+02  0.45594000000E+02  0.51100000000E-03 0.  1.
         23    2    1    2    0    0  0.88817841970E-15 -0.35527136788E-14 -0.35527136788E-14  0.91188000000E+02  0.91188000000E+02 0.  0.
    9900012    2    3    3    0    0  0.68427350834E+01  0.23972824976E+02 -0.27097321187E+02  0.54367025322E+02  0.39999865826E+02 0.  0.
         12    1    3    3    0    0 -0.68427350834E+01 -0.23972824976E+02  0.27097321187E+02  0.36820974678E+02  0.00000000000E+00 0. -1.
         11    1    4    4    0    0 -0.58645871070E+01 -0.57640393297E+01 -0.10676114398E+02  0.13475791265E+02  0.51100000000E-03 0. -1.
        -11    1    4    4    0    0  0.14609430469E+02  0.18143537619E+02 -0.17439096332E+02  0.29098891682E+02  0.51100000000E-03 0.  1.
         12    1    4    4    0    0 -0.19021082788E+01  0.11593326687E+02  0.10178895424E+01  0.11792342375E+02  0.00000000000E+00 0. -1.
</event>
<event>
 8    1  0.2500956E-006  0.9118800E+02  0.7816164E-02  0.1184000E+00
        -11   -1    0    0    0    0  0.00000000000E+00  0.00000000000E+00  0.45593999997E+02  0.45594000000E+02  0.51100000000E-03 0.  1.
         11   -1    0    0    0    0 -0.00000000000E+00 -0.00000000000E+00 -0.45593999997E+02  0.45594000000E+02  0.51100000000E-03 0. -1.
         23    2    1    2    0    0 -0.66613381478E-15  0.00000000000E+00  0.17763568394E-14  0.91188000000E+02  0.91188000000E+02 0.  0.
    9900012    2    3    3    0    0  0.15158273500E+01 -0.34340630345E+02  0.13198539010E+02  0.54367108415E+02  0.40000055255E+02 0.  0.
         12    1    3    3    0    0 -0.15158273500E+01  0.34340630345E+02 -0.13198539010E+02  0.36820891585E+02  0.00000000000E+00 0. -1.
         11    1    4    4    0    0 -0.33312105785E+01  0.28639759502E+00  0.67766575852E+01  0.75565915457E+01  0.51100000000E-03 0. -1.
        -11    1    4    4    0    0  0.76255035404E+01 -0.36817763498E+01  0.12552581513E+02  0.15141700177E+02  0.51100000000E-03 0.  1.
         12    1    4    4    0    0 -0.27784656119E+01 -0.30945251591E+02 -0.61307000883E+01  0.31668816693E+02  0.00000000000E+00 0. -1.
</event>
<event>
 8    1  0.2500956E-006  0.9118800E+02  0.7816164E-02  0.1184000E+00
        -11   -1    0    0    0    0  0.00000000000E+00  0.00000000000E+00  0.45593999997E+02  0.45594000000E+02  0.51100000000E-03 0.  1.
         11   -1    0    0    0    0 -0.00000000000E+00 -0.00000000000E+00 -0.45593999997E+02  0.45594000000E+02  0.51100000000E-03 0. -1.
         23    2    1    2    0    0 -0.88817841970E-15  0.00000000000E+00  0.00000000000E+00  0.91188000000E+02  0.91188000000E+02 0.  0.
    9900012    2    3    3    0    0  0.46655428033E+01 -0.36418613596E+02 -0.27745476841E+01  0.54367070887E+02  0.39999969700E+02 0.  0.
        -12    1    3    3    0    0 -0.46655428033E+01  0.36418613596E+02  0.27745476841E+01  0.36820929113E+02  0.00000000000E+00 0.  1.
         11    1    4    4    0    0 -0.48353541909E+00 -0.98041346571E+01 -0.15732869362E+02  0.18543948918E+02  0.51100000000E-03 0. -1.
        -11    1    4    4    0    0  0.36324168930E+01  0.51493739825E-01  0.78223250586E+01  0.86247245564E+01  0.51100000000E-03 0.  1.
        -12    1    4    4    0    0  0.15166613294E+01 -0.26665972679E+02  0.51359966191E+01  0.27198397412E+02  0.00000000000E+00 0.  1.
</event>
<event>
 8    1  0.2500956E-006  0.9118800E+02  0.7816164E-02  0.1184000E+00
        -11   -1    0    0    0    0  0.00000000000E+00  0.00000000000E+00  0.45593999997E+02  0.45594000000E+02  0.51100000000E-03 0.  1.
         11   -1    0    0    0    0 -0.00000000000E+00 -0.00000000000E+00 -0.45593999997E+02  0.45594000000E+02  0.51100000000E-03 0. -1.
         23    2    1    2    0    0 -0.17763568394E-14 -0.17763568394E-14 -0.35527136788E-14  0.91188000000E+02  0.91188000000E+02 0.  0.
    9900012    2    3    3    0    0  0.10836270494E+02  0.14851589642E+02  0.31902754347E+02  0.54367079207E+02  0.39999988668E+02 0.  0.
         12    1    3    3    0    0 -0.10836270494E+02 -0.14851589642E+02 -0.31902754347E+02  0.36820920793E+02  0.00000000000E+00 0. -1.
         11    1    4    4    0    0  0.14644300388E+02  0.14574987547E+01  0.11994492923E+02  0.18985460153E+02  0.51100000000E-03 0. -1.
        -11    1    4    4    0    0  0.83806241687E+01  0.13193861091E+02  0.56446350801E+01  0.16618505871E+02  0.51100000000E-03 0.  1.
        -12    1    4    4    0    0 -0.12188654063E+02  0.20022979616E+00  0.14263626344E+02  0.18763113183E+02  0.00000000000E+00 0.  1.
</event>
<event>
 8    1  0.2500956E-006  0.9118800E+02  0.7816164E-02  0.1184000E+00
        -11   -1    0    0    0    0  0.00000000000E+00  0.00000000000E+00  0.45593999997E+02  0.45594000000E+02  0.51100000000E-03 0.  1.
         11   -1    0    0    0    0 -0.00000000000E+00 -0.00000000000E+00 -0.45593999997E+02  0.45594000000E+02  0.51100000000E-03 0. -1.
         23    2    1    2    0    0  0.17763568394E-14 -0.17763568394E-14  0.00000000000E+00  0.91188000000E+02  0.91188000000E+02 0.  0.
    9900012    2    3    3    0    0 -0.11999673832E+02  0.10908894465E+02 -0.33057281210E+02  0.54367082147E+02  0.39999995372E+02 0.  0.
        -12    1    3    3    0    0  0.11999673832E+02 -0.10908894465E+02  0.33057281210E+02  0.36820917853E+02  0.00000000000E+00 0.  1.
         11    1    4    4    0    0 -0.98043164135E+01 -0.11997177186E+02 -0.21486495636E+02  0.26490118455E+02  0.51100000000E-03 0. -1.
        -11    1    4    4    0    0 -0.18673722276E+01  0.14955720327E+02 -0.16537938369E+01  0.15162311296E+02  0.51100000000E-03 0.  1.
         12    1    4    4    0    0 -0.32798519086E+00  0.79503513239E+01 -0.99169917366E+01  0.12714652396E+02  0.00000000000E+00 0. -1.
</event>
<event>
 8    1  0.2500956E-006  0.9118800E+02  0.7816164E-02  0.1184000E+00
        -11   -1    0    0    0    0  0.00000000000E+00  0.00000000000E+00  0.45593999997E+02  0.45594000000E+02  0.51100000000E-03 0. -1.
         11   -1    0    0    0    0 -0.00000000000E+00 -0.00000000000E+00 -0.45593999997E+02  0.45594000000E+02  0.51100000000E-03 0.  1.
         23    2    1    2    0    0  0.17763568394E-14  0.00000000000E+00 -0.44408920985E-15  0.91188000000E+02  0.91188000000E+02 0.  0.
    9900012    2    3    3    0    0  0.15870443239E+02 -0.33135891189E+02 -0.24324386546E+01  0.54367149775E+02  0.40000149542E+02 0.  0.
        -12    1    3    3    0    0 -0.15870443239E+02  0.33135891189E+02  0.24324386546E+01  0.36820850225E+02  0.00000000000E+00 0.  1.
         11    1    4    4    0    0  0.73376173738E+01 -0.11546090722E+02 -0.68594076373E+01  0.15303735266E+02  0.51100000000E-03 0. -1.
        -11    1    4    4    0    0  0.15061916740E+02 -0.21539773737E+02  0.12145175021E+02  0.28953902416E+02  0.51100000000E-03 0.  1.
        -12    1    4    4    0    0 -0.65290908747E+01 -0.50026729229E-01 -0.77182060383E+01  0.10109512094E+02  0.00000000000E+00 0.  1.
</event>
<event>
 8    1  0.2500956E-006  0.9118800E+02  0.7816164E-02  0.1184000E+00
        -11   -1    0    0    0    0  0.00000000000E+00  0.00000000000E+00  0.45593999997E+02  0.45594000000E+02  0.51100000000E-03 0. -1.
         11   -1    0    0    0    0 -0.00000000000E+00 -0.00000000000E+00 -0.45593999997E+02  0.45594000000E+02  0.51100000000E-03 0.  1.
         23    2    1    2    0    0  0.00000000000E+00  0.13322676296E-14 -0.17763568394E-14  0.91188000000E+02  0.91188000000E+02 0.  0.
    9900012    2    3    3    0    0  0.35541549588E+02  0.14285136096E+01 -0.95151084269E+01  0.54367086288E+02  0.40000004810E+02 0.  0.
         12    1    3    3    0    0 -0.35541549588E+02 -0.14285136096E+01  0.95151084269E+01  0.36820913712E+02  0.00000000000E+00 0. -1.
         11    1    4    4    0    0  0.14319793848E+02  0.89879023307E+01 -0.16429904271E+00  0.16907568678E+02  0.51100000000E-03 0. -1.
        -11    1    4    4    0    0  0.24592465663E+02  0.17232091691E+01 -0.12465586271E+01  0.24684260692E+02  0.51100000000E-03 0.  1.
        -12    1    4    4    0    0 -0.33707099235E+01 -0.92825978903E+01 -0.81042507571E+01  0.12775256918E+02  0.00000000000E+00 0.  1.
</event>
<event>
 8    1  0.2500956E-006  0.9118800E+02  0.7816164E-02  0.1184000E+00
        -11   -1    0    0    0    0  0.00000000000E+00  0.00000000000E+00  0.45593999997E+02  0.45594000000E+02  0.51100000000E-03 0.  1.
         11   -1    0    0    0    0 -0.00000000000E+00 -0.00000000000E+00 -0.45593999997E+02  0.45594000000E+02  0.51100000000E-03 0. -1.
         23    2    1    2    0    0  0.00000000000E+00  0.35527136788E-14  0.17763568394E-14  0.91188000000E+02  0.91188000000E+02 0.  0.
    9900012    2    3    3    0    0  0.27957509401E+02  0.21999339555E+02  0.94965676782E+01  0.54367108234E+02  0.40000054842E+02 0.  0.
         12    1    3    3    0    0 -0.27957509401E+02 -0.21999339555E+02 -0.94965676782E+01  0.36820891766E+02  0.00000000000E+00 0. -1.
         11    1    4    4    0    0 -0.89838825653E+00  0.27870215826E+01 -0.65507291744E+01  0.71754194120E+01  0.51100000000E-03 0. -1.
        -11    1    4    4    0    0  0.26566363750E+02  0.22039231168E+02  0.41691407881E+01  0.34768967896E+02  0.51100000000E-03 0.  1.
         12    1    4    4    0    0  0.22895339068E+01 -0.28269131948E+01  0.11878156065E+02  0.12422720926E+02  0.00000000000E+00 0. -1.
</event>
<event>
 8    1  0.2500956E-006  0.9118800E+02  0.7816164E-02  0.1184000E+00
        -11   -1    0    0    0    0  0.00000000000E+00  0.00000000000E+00  0.45593999997E+02  0.45594000000E+02  0.51100000000E-03 0.  1.
         11   -1    0    0    0    0 -0.00000000000E+00 -0.00000000000E+00 -0.45593999997E+02  0.45594000000E+02  0.51100000000E-03 0. -1.
         23    2    1    2    0    0  0.00000000000E+00  0.35527136788E-14  0.11102230246E-14  0.91188000000E+02  0.91188000000E+02 0.  0.
    9900012    2    3    3    0    0  0.18407944150E+02  0.31869561506E+02  0.11215594014E+01  0.54367092163E+02  0.40000018204E+02 0.  0.
        -12    1    3    3    0    0 -0.18407944150E+02 -0.31869561506E+02 -0.11215594014E+01  0.36820907837E+02  0.00000000000E+00 0.  1.
         11    1    4    4    0    0 -0.27573255240E+01  0.26024368545E+02 -0.37764669512E-01  0.26170059776E+02  0.51100000000E-03 0. -1.
        -11    1    4    4    0    0 -0.12723211919E+01 -0.67801086107E+00  0.43784861778E+01  0.46097333342E+01  0.51100000000E-03 0.  1.
        -12    1    4    4    0    0  0.22437590866E+02  0.65232038223E+01 -0.32191621069E+01  0.23587299053E+02  0.00000000000E+00 0.  1.
</event>
<event>
 8    1  0.2500956E-006  0.9118800E+02  0.7816164E-02  0.1184000E+00
        -11   -1    0    0    0    0  0.00000000000E+00  0.00000000000E+00  0.45593999997E+02  0.45594000000E+02  0.51100000000E-03 0. -1.
         11   -1    0    0    0    0 -0.00000000000E+00 -0.00000000000E+00 -0.45593999997E+02  0.45594000000E+02  0.51100000000E-03 0.  1.
         23    2    1    2    0    0  0.00000000000E+00  0.00000000000E+00 -0.88817841970E-15  0.91188000000E+02  0.91188000000E+02 0.  0.
    9900012    2    3    3    0    0 -0.35787317770E+02 -0.79782263551E+01  0.33756726134E+01  0.54367090525E+02  0.40000014470E+02 0.  0.
         12    1    3    3    0    0  0.35787317770E+02  0.79782263551E+01 -0.33756726134E+01  0.36820909475E+02  0.00000000000E+00 0. -1.
         11    1    4    4    0    0  0.17127191609E+01  0.48524939018E+00 -0.39715663019E+00  0.18238989952E+01  0.51100000000E-03 0. -1.
        -11    1    4    4    0    0 -0.38008596108E+02  0.29496214740E+01 -0.45713994324E+01  0.38395980753E+02  0.51100000000E-03 0.  1.
        -12    1    4    4    0    0  0.50855917688E+00 -0.11413097219E+02  0.83442286760E+01  0.14147210777E+02  0.00000000000E+00 0.  1.
</event>
<event>
 8    1  0.2500956E-006  0.9118800E+02  0.7816164E-02  0.1184000E+00
        -11   -1    0    0    0    0  0.00000000000E+00  0.00000000000E+00  0.45593999997E+02  0.45594000000E+02  0.51100000000E-03 0. -1.
         11   -1    0    0    0    0 -0.00000000000E+00 -0.00000000000E+00 -0.45593999997E+02  0.45594000000E+02  0.51100000000E-03 0.  1.
         23    2    1    2    0    0  0.00000000000E+00  0.88817841970E-15  0.00000000000E+00  0.91188000000E+02  0.91188000000E+02 0.  0.
    9900012    2    3    3    0    0  0.36255154022E+02 -0.20533670215E+01  0.60932377144E+01  0.54367081284E+02  0.39999993403E+02 0.  0.
        -12    1    3    3    0    0 -0.36255154022E+02  0.20533670215E+01 -0.60932377144E+01  0.36820918716E+02  0.00000000000E+00 0.  1.
         11    1    4    4    0    0  0.25278357764E+02 -0.13427271307E+02  0.39727879847E+01  0.28897578283E+02  0.51100000000E-03 0. -1.
        -11    1    4    4    0    0  0.27342730351E+01  0.50534841931E+00  0.95432551715E+01  0.99400878057E+01  0.51100000000E-03 0.  1.
        -12    1    4    4    0    0  0.82425232224E+01  0.10868555866E+02 -0.74228054418E+01  0.15529415195E+02  0.00000000000E+00 0.  1.
</event>
<event>
 8    1  0.2500956E-006  0.9118800E+02  0.7816164E-02  0.1184000E+00
        -11   -1    0    0    0    0  0.00000000000E+00  0.00000000000E+00  0.45593999997E+02  0.45594000000E+02  0.51100000000E-03 0.  1.
         11   -1    0    0    0    0 -0.00000000000E+00 -0.00000000000E+00 -0.45593999997E+02  0.45594000000E+02  0.51100000000E-03 0. -1.
         23    2    1    2    0    0  0.44408920985E-15 -0.71054273576E-14 -0.17763568394E-14  0.91188000000E+02  0.91188000000E+02 0.  0.
    9900012    2    3    3    0    0 -0.13449962644E+01 -0.35481189800E+02 -0.97496723317E+01  0.54367082641E+02  0.39999996497E+02 0.  0.
        -12    1    3    3    0    0  0.13449962644E+01  0.35481189800E+02  0.97496723317E+01  0.36820917359E+02  0.00000000000E+00 0.  1.
         11    1    4    4    0    0  0.89049801699E+00 -0.11229894538E+02 -0.14942716852E+02  0.18713318926E+02  0.51100000000E-03 0. -1.
        -11    1    4    4    0    0 -0.13385257654E+02 -0.10595660615E+02  0.57553174682E+01  0.18015460742E+02  0.51100000000E-03 0.  1.
        -12    1    4    4    0    0  0.11149763373E+02 -0.13655634647E+02 -0.56227294743E+00  0.17638302973E+02  0.00000000000E+00 0.  1.
</event>
<event>
 8    1  0.2500956E-006  0.9118800E+02  0.7816164E-02  0.1184000E+00
        -11   -1    0    0    0    0  0.00000000000E+00  0.00000000000E+00  0.45593999997E+02  0.45594000000E+02  0.51100000000E-03 0. -1.
         11   -1    0    0    0    0 -0.00000000000E+00 -0.00000000000E+00 -0.45593999997E+02  0.45594000000E+02  0.51100000000E-03 0.  1.
         23    2    1    2    0    0  0.00000000000E+00  0.17763568394E-14  0.00000000000E+00  0.91188000000E+02  0.91188000000E+02 0.  0.
    9900012    2    3    3    0    0  0.33540502514E+02  0.14030753055E+02 -0.58268838902E+01  0.54367083172E+02  0.39999997707E+02 0.  0.
        -12    1    3    3    0    0 -0.33540502514E+02 -0.14030753055E+02  0.58268838902E+01  0.36820916828E+02  0.00000000000E+00 0.  1.
         11    1    4    4    0    0  0.21196079258E+02 -0.36578564754E+00  0.12622248915E+02  0.24672428802E+02  0.51100000000E-03 0. -1.
        -11    1    4    4    0    0  0.13161176736E+02  0.59990787733E+01 -0.90391559454E+01  0.17056138475E+02  0.51100000000E-03 0.  1.
        -12    1    4    4    0    0 -0.81675348027E+00  0.83974599291E+01 -0.94099768600E+01  0.12638515894E+02  0.00000000000E+00 0.  1.
</event>
<event>
 8    1  0.2500956E-006  0.9118800E+02  0.7816164E-02  0.1184000E+00
        -11   -1    0    0    0    0  0.00000000000E+00  0.00000000000E+00  0.45593999997E+02  0.45594000000E+02  0.51100000000E-03 0.  1.
         11   -1    0    0    0    0 -0.00000000000E+00 -0.00000000000E+00 -0.45593999997E+02  0.45594000000E+02  0.51100000000E-03 0. -1.
         23    2    1    2    0    0  0.00000000000E+00  0.00000000000E+00 -0.88817841970E-15  0.91188000000E+02  0.91188000000E+02 0.  0.
    9900012    2    3    3    0    0 -0.17501280817E+02 -0.32146367725E+02 -0.40115315446E+01  0.54367133994E+02  0.40000113566E+02 0.  0.
        -12    1    3    3    0    0  0.17501280817E+02  0.32146367725E+02  0.40115315446E+01  0.36820866006E+02  0.00000000000E+00 0.  1.
         11    1    4    4    0    0 -0.16646336912E+01  0.75826534267E+01 -0.48131597077E+00  0.77781298292E+01  0.51100000000E-03 0. -1.
        -11    1    4    4    0    0 -0.11884041709E+02 -0.33188936727E+02 -0.99268065479E+01  0.36623455010E+02  0.51100000000E-03 0.  1.
         12    1    4    4    0    0 -0.39526054169E+01 -0.65400844247E+01  0.63965909740E+01  0.99655491545E+01  0.00000000000E+00 0. -1.
</event>
<event>
 8    1  0.2500956E-006  0.9118800E+02  0.7816164E-02  0.1184000E+00
        -11   -1    0    0    0    0  0.00000000000E+00  0.00000000000E+00  0.45593999997E+02  0.45594000000E+02  0.51100000000E-03 0.  1.
         11   -1    0    0    0    0 -0.00000000000E+00 -0.00000000000E+00 -0.45593999997E+02  0.45594000000E+02  0.51100000000E-03 0. -1.
         23    2    1    2    0    0  0.22204460493E-15 -0.88817841970E-15  0.00000000000E+00  0.91188000000E+02  0.91188000000E+02 0.  0.
    9900012    2    3    3    0    0  0.17543753490E+01 -0.47672815904E+01  0.36468829394E+02  0.54367077633E+02  0.39999985080E+02 0.  0.
         12    1    3    3    0    0 -0.17543753490E+01  0.47672815904E+01 -0.36468829394E+02  0.36820922367E+02  0.00000000000E+00 0. -1.
         11    1    4    4    0    0 -0.15969956235E+02 -0.94767814688E+01  0.10985758868E+02  0.21576278347E+02  0.51100000000E-03 0. -1.
        -11    1    4    4    0    0  0.92879177623E+01  0.68330963248E+00  0.19721751695E+02  0.21810085250E+02  0.51100000000E-03 0.  1.
        -12    1    4    4    0    0  0.84364138217E+01  0.40261902459E+01  0.57613188302E+01  0.10980714036E+02  0.00000000000E+00 0.  1.
</event>
<event>
 8    1  0.2500956E-006  0.9118800E+02  0.7816164E-02  0.1184000E+00
        -11   -1    0    0    0    0  0.00000000000E+00  0.00000000000E+00  0.45593999997E+02  0.45594000000E+02  0.51100000000E-03 0. -1.
         11   -1    0    0    0    0 -0.00000000000E+00 -0.00000000000E+00 -0.45593999997E+02  0.45594000000E+02  0.51100000000E-03 0.  1.
         23    2    1    2    0    0  0.00000000000E+00  0.00000000000E+00  0.00000000000E+00  0.91188000000E+02  0.91188000000E+02 0.  0.
    9900012    2    3    3    0    0  0.11680933091E+02  0.17428723470E+02 -0.30258476366E+02  0.54367082146E+02  0.39999995367E+02 0.  0.
         12    1    3    3    0    0 -0.11680933091E+02 -0.17428723470E+02  0.30258476366E+02  0.36820917854E+02  0.00000000000E+00 0. -1.
         11    1    4    4    0    0  0.80169689334E+01  0.23681677129E+02 -0.49480207161E+01  0.25486791320E+02  0.51100000000E-03 0. -1.
        -11    1    4    4    0    0  0.66961789543E+00 -0.65547030266E+01 -0.48040566044E+01  0.81542308044E+01  0.51100000000E-03 0.  1.
         12    1    4    4    0    0  0.29943462621E+01  0.30174936803E+00 -0.20506399045E+02  0.20726060022E+02  0.00000000000E+00 0. -1.
</event>
<event>
 8    1  0.2500956E-006  0.9118800E+02  0.7816164E-02  0.1184000E+00
        -11   -1    0    0    0    0  0.00000000000E+00  0.00000000000E+00  0.45593999997E+02  0.45594000000E+02  0.51100000000E-03 0.  1.
         11   -1    0    0    0    0 -0.00000000000E+00 -0.00000000000E+00 -0.45593999997E+02  0.45594000000E+02  0.51100000000E-03 0. -1.
         23    2    1    2    0    0  0.00000000000E+00  0.35527136788E-14  0.00000000000E+00  0.91188000000E+02  0.91188000000E+02 0.  0.
    9900012    2    3    3    0    0 -0.17321087631E+02  0.28274074598E+02  0.16010514483E+02  0.54367082777E+02  0.39999996807E+02 0.  0.
         12    1    3    3    0    0  0.17321087631E+02 -0.28274074598E+02 -0.16010514483E+02  0.36820917223E+02  0.00000000000E+00 0. -1.
         11    1    4    4    0    0 -0.32511918646E+01 -0.26460898321E+01 -0.12550779597E+01  0.43757583213E+01  0.51100000000E-03 0. -1.
        -11    1    4    4    0    0 -0.11164974035E+02 -0.36258347096E+01  0.12580999899E+01  0.11806190680E+02  0.51100000000E-03 0.  1.
        -12    1    4    4    0    0 -0.29049217322E+01  0.34545999140E+02  0.16007492453E+02  0.38185133776E+02  0.00000000000E+00 0.  1.
</event>
<event>
 8    1  0.2500956E-006  0.9118800E+02  0.7816164E-02  0.1184000E+00
        -11   -1    0    0    0    0  0.00000000000E+00  0.00000000000E+00  0.45593999997E+02  0.45594000000E+02  0.51100000000E-03 0.  1.
         11   -1    0    0    0    0 -0.00000000000E+00 -0.00000000000E+00 -0.45593999997E+02  0.45594000000E+02  0.51100000000E-03 0. -1.
         23    2    1    2    0    0  0.00000000000E+00  0.88817841970E-15 -0.17763568394E-14  0.91188000000E+02  0.91188000000E+02 0.  0.
    9900012    2    3    3    0    0 -0.35901779932E+02 -0.57719297541E+01 -0.57902411857E+01  0.54367083819E+02  0.39999999183E+02 0.  0.
        -12    1    3    3    0    0  0.35901779932E+02  0.57719297541E+01  0.57902411857E+01  0.36820916181E+02  0.00000000000E+00 0.  1.
         11    1    4    4    0    0 -0.55188450863E+01  0.69376108527E+01 -0.12919404619E+02  0.15668411260E+02  0.51100000000E-03 0. -1.
        -11    1    4    4    0    0 -0.12024589461E+02  0.32753811146E+01  0.71265100997E+01  0.14356392988E+02  0.51100000000E-03 0.  1.
         12    1    4    4    0    0 -0.18358345385E+02 -0.15984921721E+02  0.26533338506E-02  0.24342279572E+02  0.00000000000E+00 0. -1.
</event>
<event>
 8    1  0.2500956E-006  0.9118800E+02  0.7816164E-02  0.1184000E+00
        -11   -1    0    0    0    0  0.00000000000E+00  0.00000000000E+00  0.45593999997E+02  0.45594000000E+02  0.51100000000E-03 0. -1.
         11   -1    0    0    0    0 -0.00000000000E+00 -0.00000000000E+00 -0.45593999997E+02  0.45594000000E+02  0.51100000000E-03 0.  1.
         23    2    1    2    0    0  0.71054273576E-14  0.88817841970E-15  0.00000000000E+00  0.91188000000E+02  0.91188000000E+02 0.  0.
    9900012    2    3    3    0    0  0.33605578766E+02  0.73331584030E+01  0.13140383007E+02  0.54367084722E+02  0.40000001240E+02 0.  0.
        -12    1    3    3    0    0 -0.33605578766E+02 -0.73331584030E+01 -0.13140383007E+02  0.36820915278E+02  0.00000000000E+00 0.  1.
         11    1    4    4    0    0  0.31873371276E+02  0.56964195773E+01  0.91571440796E+01  0.33648391944E+02  0.51100000000E-03 0. -1.
        -11    1    4    4    0    0 -0.39637873391E+01 -0.77700852595E+01 -0.73222202188E+00  0.87533984464E+01  0.51100000000E-03 0.  1.
         12    1    4    4    0    0  0.56959948293E+01  0.94068240852E+01  0.47154609497E+01  0.11965294331E+02  0.00000000000E+00 0. -1.
</event>
<event>
 8    1  0.2500956E-006  0.9118800E+02  0.7816164E-02  0.1184000E+00
        -11   -1    0    0    0    0  0.00000000000E+00  0.00000000000E+00  0.45593999997E+02  0.45594000000E+02  0.51100000000E-03 0.  1.
         11   -1    0    0    0    0 -0.00000000000E+00 -0.00000000000E+00 -0.45593999997E+02  0.45594000000E+02  0.51100000000E-03 0. -1.
         23    2    1    2    0    0  0.17763568394E-14  0.17763568394E-14  0.00000000000E+00  0.91188000000E+02  0.91188000000E+02 0.  0.
    9900012    2    3    3    0    0  0.34549935221E+01 -0.10301450920E+02  0.35181277427E+02  0.54367093538E+02  0.40000021339E+02 0.  0.
         12    1    3    3    0    0 -0.34549935221E+01  0.10301450920E+02 -0.35181277427E+02  0.36820906462E+02  0.00000000000E+00 0. -1.
         11    1    4    4    0    0  0.85687135682E+01 -0.25141590363E+01 -0.50383061916E+01  0.10253213029E+02  0.51100000000E-03 0. -1.
        -11    1    4    4    0    0  0.44907781563E+01 -0.32257260607E+01  0.54848794617E+01  0.77882154591E+01  0.51100000000E-03 0.  1.
        -12    1    4    4    0    0 -0.96044982024E+01 -0.45615658226E+01  0.34734704157E+02  0.36325665050E+02  0.00000000000E+00 0.  1.
</event>
<event>
 8    1  0.2500956E-006  0.9118800E+02  0.7816164E-02  0.1184000E+00
        -11   -1    0    0    0    0  0.00000000000E+00  0.00000000000E+00  0.45593999997E+02  0.45594000000E+02  0.51100000000E-03 0.  1.
         11   -1    0    0    0    0 -0.00000000000E+00 -0.00000000000E+00 -0.45593999997E+02  0.45594000000E+02  0.51100000000E-03 0. -1.
         23    2    1    2    0    0 -0.35527136788E-14  0.00000000000E+00  0.00000000000E+00  0.91188000000E+02  0.91188000000E+02 0.  0.
    9900012    2    3    3    0    0  0.31088900489E+02  0.10195918027E+02 -0.16890908401E+02  0.54367092018E+02  0.40000017872E+02 0.  0.
        -12    1    3    3    0    0 -0.31088900489E+02 -0.10195918027E+02  0.16890908401E+02  0.36820907982E+02  0.00000000000E+00 0.  1.
         11    1    4    4    0    0  0.54797098555E+01  0.98255470041E+01 -0.12064245049E+00  0.11250917691E+02  0.51100000000E-03 0. -1.
        -11    1    4    4    0    0 -0.20780140570E+01 -0.77850276732E+01 -0.11075518248E+02  0.13696419350E+02  0.51100000000E-03 0.  1.
         12    1    4    4    0    0  0.27687204691E+02  0.81553986962E+01 -0.56947477024E+01  0.29419754977E+02  0.00000000000E+00 0. -1.
</event>
<event>
 8    1  0.2500956E-006  0.9118800E+02  0.7816164E-02  0.1184000E+00
        -11   -1    0    0    0    0  0.00000000000E+00  0.00000000000E+00  0.45593999997E+02  0.45594000000E+02  0.51100000000E-03 0. -1.
         11   -1    0    0    0    0 -0.00000000000E+00 -0.00000000000E+00 -0.45593999997E+02  0.45594000000E+02  0.51100000000E-03 0.  1.
         23    2    1    2    0    0  0.17763568394E-14  0.35527136788E-14 -0.35527136788E-14  0.91188000000E+02  0.91188000000E+02 0.  0.
    9900012    2    3    3    0    0 -0.78778330330E+01 -0.25914471758E+02 -0.24943123701E+02  0.54367088553E+02  0.40000009975E+02 0.  0.
         12    1    3    3    0    0  0.78778330330E+01  0.25914471758E+02  0.24943123701E+02  0.36820911447E+02  0.00000000000E+00 0. -1.
         11    1    4    4    0    0  0.10351901603E+02 -0.10655512656E+02 -0.18015361956E+02  0.23350697708E+02  0.51100000000E-03 0.  1.
        -11    1    4    4    0    0 -0.15480796975E+02 -0.17885165228E+02 -0.10425791394E+02  0.25850170921E+02  0.51100000000E-03 0. -1.
         12    1    4    4    0    0 -0.27489376613E+01  0.26262061261E+01  0.34980296488E+01  0.51662199243E+01  0.00000000000E+00 0. -1.
</event>
<event>
 8    1  0.2500956E-006  0.9118800E+02  0.7816164E-02  0.1184000E+00
        -11   -1    0    0    0    0  0.00000000000E+00  0.00000000000E+00  0.45593999997E+02  0.45594000000E+02  0.51100000000E-03 0.  1.
         11   -1    0    0    0    0 -0.00000000000E+00 -0.00000000000E+00 -0.45593999997E+02  0.45594000000E+02  0.51100000000E-03 0. -1.
         23    2    1    2    0    0  0.00000000000E+00  0.00000000000E+00  0.00000000000E+00  0.91188000000E+02  0.91188000000E+02 0.  0.
    9900012    2    3    3    0    0  0.80704419310E+01 -0.21416973181E+02 -0.28843730783E+02  0.54367087754E+02  0.40000008153E+02 0.  0.
        -12    1    3    3    0    0 -0.80704419310E+01  0.21416973181E+02  0.28843730783E+02  0.36820912246E+02  0.00000000000E+00 0.  1.
         11    1    4    4    0    0  0.90708798852E+01 -0.47291556011E+01 -0.87539857441E+00  0.10267039374E+02  0.51100000000E-03 0. -1.
        -11    1    4    4    0    0  0.51532533792E+01 -0.57966641876E+01  0.47340685873E+01  0.90867343828E+01  0.51100000000E-03 0.  1.
         12    1    4    4    0    0 -0.61536913334E+01 -0.10891153392E+02 -0.32702400795E+02  0.35013313997E+02  0.00000000000E+00 0. -1.
</event>
<event>
 8    1  0.2500956E-006  0.9118800E+02  0.7816164E-02  0.1184000E+00
        -11   -1    0    0    0    0  0.00000000000E+00  0.00000000000E+00  0.45593999997E+02  0.45594000000E+02  0.51100000000E-03 0.  1.
         11   -1    0    0    0    0 -0.00000000000E+00 -0.00000000000E+00 -0.45593999997E+02  0.45594000000E+02  0.51100000000E-03 0. -1.
         23    2    1    2    0    0  0.00000000000E+00  0.35527136788E-14 -0.17763568394E-14  0.91188000000E+02  0.91188000000E+02 0.  0.
    9900012    2    3    3    0    0 -0.32343549733E+02 -0.13747479129E+02  0.10985497682E+02  0.54367088128E+02  0.40000009006E+02 0.  0.
         12    1    3    3    0    0  0.32343549733E+02  0.13747479129E+02 -0.10985497682E+02  0.36820911872E+02  0.00000000000E+00 0. -1.
         11    1    4    4    0    0 -0.94633285406E+01 -0.19816313990E+01  0.20244473088E+01  0.98782507174E+01  0.51100000000E-03 0.  1.
        -11    1    4    4    0    0  0.44618835286E+00 -0.14987066505E+02 -0.64756324196E+01  0.16332331798E+02  0.51100000000E-03 0. -1.
         12    1    4    4    0    0 -0.23326409545E+02  0.32212187748E+01  0.15436682793E+02  0.28156505613E+02  0.00000000000E+00 0. -1.
</event>
<event>
 8    1  0.2500956E-006  0.9118800E+02  0.7816164E-02  0.1184000E+00
        -11   -1    0    0    0    0  0.00000000000E+00  0.00000000000E+00  0.45593999997E+02  0.45594000000E+02  0.51100000000E-03 0. -1.
         11   -1    0    0    0    0 -0.00000000000E+00 -0.00000000000E+00 -0.45593999997E+02  0.45594000000E+02  0.51100000000E-03 0.  1.
         23    2    1    2    0    0  0.35527136788E-14 -0.35527136788E-14  0.17763568394E-14  0.91188000000E+02  0.91188000000E+02 0.  0.
    9900012    2    3    3    0    0 -0.19521873476E+02 -0.28702839600E+02  0.12281010004E+02  0.54367085402E+02  0.40000002790E+02 0.  0.
        -12    1    3    3    0    0  0.19521873476E+02  0.28702839600E+02 -0.12281010004E+02  0.36820914598E+02  0.00000000000E+00 0.  1.
         11    1    4    4    0    0 -0.23177291864E+02 -0.19943679084E+02 -0.44043806381E+01  0.30892325303E+02  0.51100000000E-03 0. -1.
        -11    1    4    4    0    0  0.54858143225E-02  0.38247893147E+00 -0.21706409123E+01  0.22040876703E+01  0.51100000000E-03 0.  1.
        -12    1    4    4    0    0  0.36499325737E+01 -0.91416394480E+01  0.18856031554E+02  0.21270672429E+02  0.00000000000E+00 0.  1.
</event>
<event>
 8    1  0.2500956E-006  0.9118800E+02  0.7816164E-02  0.1184000E+00
        -11   -1    0    0    0    0  0.00000000000E+00  0.00000000000E+00  0.45593999997E+02  0.45594000000E+02  0.51100000000E-03 0.  1.
         11   -1    0    0    0    0 -0.00000000000E+00 -0.00000000000E+00 -0.45593999997E+02  0.45594000000E+02  0.51100000000E-03 0. -1.
         23    2    1    2    0    0  0.00000000000E+00  0.88817841970E-15 -0.71054273576E-14  0.91188000000E+02  0.91188000000E+02 0.  0.
    9900012    2    3    3    0    0  0.50592555133E+01 -0.55876161763E+01 -0.36041117902E+02  0.54367086099E+02  0.40000004381E+02 0.  0.
        -12    1    3    3    0    0 -0.50592555133E+01  0.55876161763E+01  0.36041117902E+02  0.36820913901E+02  0.00000000000E+00 0.  1.
         11    1    4    4    0    0  0.30108180223E+01 -0.89818763487E+01  0.51584155836E+01  0.10786490602E+02  0.51100000000E-03 0. -1.
        -11    1    4    4    0    0 -0.44365621296E+00  0.40524753788E+01 -0.24724926432E+01  0.47678724462E+01  0.51100000000E-03 0.  1.
         12    1    4    4    0    0  0.24920937039E+01 -0.65821520633E+00 -0.38727040842E+02  0.38812723051E+02  0.00000000000E+00 0. -1.
</event>
<event>
 8    1  0.2500956E-006  0.9118800E+02  0.7816164E-02  0.1184000E+00
        -11   -1    0    0    0    0  0.00000000000E+00  0.00000000000E+00  0.45593999997E+02  0.45594000000E+02  0.51100000000E-03 0.  1.
         11   -1    0    0    0    0 -0.00000000000E+00 -0.00000000000E+00 -0.45593999997E+02  0.45594000000E+02  0.51100000000E-03 0. -1.
         23    2    1    2    0    0  0.00000000000E+00 -0.66613381478E-15  0.88817841970E-15  0.91188000000E+02  0.91188000000E+02 0.  0.
    9900012    2    3    3    0    0 -0.36284899096E+02  0.15009356148E+01 -0.60774071942E+01  0.54367060464E+02  0.39999945940E+02 0.  0.
        -12    1    3    3    0    0  0.36284899096E+02 -0.15009356148E+01  0.60774071942E+01  0.36820939536E+02  0.00000000000E+00 0.  1.
         11    1    4    4    0    0 -0.80055819809E+01 -0.65555725614E+01 -0.11590627487E+02  0.15537294496E+02  0.51100000000E-03 0. -1.
        -11    1    4    4    0    0 -0.17613546147E+02  0.20524265358E+01 -0.89659243569E+01  0.19870512383E+02  0.51100000000E-03 0.  1.
        -12    1    4    4    0    0 -0.10665770968E+02  0.60040816404E+01  0.14479144650E+02  0.18959253584E+02  0.00000000000E+00 0.  1.
</event>
<event>
 8    1  0.2500956E-006  0.9118800E+02  0.7816164E-02  0.1184000E+00
        -11   -1    0    0    0    0  0.00000000000E+00  0.00000000000E+00  0.45593999997E+02  0.45594000000E+02  0.51100000000E-03 0.  1.
         11   -1    0    0    0    0 -0.00000000000E+00 -0.00000000000E+00 -0.45593999997E+02  0.45594000000E+02  0.51100000000E-03 0. -1.
         23    2    1    2    0    0  0.00000000000E+00  0.00000000000E+00  0.00000000000E+00  0.91188000000E+02  0.91188000000E+02 0.  0.
    9900012    2    3    3    0    0  0.22595592424E+02 -0.24000438897E+02  0.16407255465E+02  0.54367083442E+02  0.39999998324E+02 0.  0.
         12    1    3    3    0    0 -0.22595592424E+02  0.24000438897E+02 -0.16407255465E+02  0.36820916558E+02  0.00000000000E+00 0. -1.
         11    1    4    4    0    0 -0.34811524125E+01 -0.64107349278E+01  0.76869751912E+01  0.10597430457E+02  0.51100000000E-03 0. -1.
        -11    1    4    4    0    0  0.18030884057E+02 -0.88391329191E+01  0.19303084646E+02  0.27854122276E+02  0.51100000000E-03 0.  1.
         12    1    4    4    0    0  0.80458607795E+01 -0.87505710502E+01 -0.10582804373E+02  0.15915530710E+02  0.00000000000E+00 0. -1.
</event>
<event>
 8    1  0.2500956E-006  0.9118800E+02  0.7816164E-02  0.1184000E+00
        -11   -1    0    0    0    0  0.00000000000E+00  0.00000000000E+00  0.45593999997E+02  0.45594000000E+02  0.51100000000E-03 0. -1.
         11   -1    0    0    0    0 -0.00000000000E+00 -0.00000000000E+00 -0.45593999997E+02  0.45594000000E+02  0.51100000000E-03 0.  1.
         23    2    1    2    0    0  0.35527136788E-14 -0.35527136788E-14 -0.35527136788E-14  0.91188000000E+02  0.91188000000E+02 0.  0.
    9900012    2    3    3    0    0 -0.16277668983E+02 -0.31744608572E+02  0.91157755205E+01  0.54367081431E+02  0.39999993738E+02 0.  0.
         12    1    3    3    0    0  0.16277668983E+02  0.31744608572E+02 -0.91157755205E+01  0.36820918569E+02  0.00000000000E+00 0. -1.
         11    1    4    4    0    0 -0.23518654072E+01 -0.44458085131E+01  0.75179344285E+01  0.90452099235E+01  0.51100000000E-03 0. -1.
        -11    1    4    4    0    0 -0.17387979547E+02 -0.17298134359E+02  0.14610653976E+02  0.28548879047E+02  0.51100000000E-03 0.  1.
        -12    1    4    4    0    0  0.34621759705E+01 -0.10000665701E+02 -0.13012812884E+02  0.16772992460E+02  0.00000000000E+00 0.  1.
</event>
<event>
 8    1  0.2500956E-006  0.9118800E+02  0.7816164E-02  0.1184000E+00
        -11   -1    0    0    0    0  0.00000000000E+00  0.00000000000E+00  0.45593999997E+02  0.45594000000E+02  0.51100000000E-03 0. -1.
         11   -1    0    0    0    0 -0.00000000000E+00 -0.00000000000E+00 -0.45593999997E+02  0.45594000000E+02  0.51100000000E-03 0.  1.
         23    2    1    2    0    0  0.88817841970E-15  0.00000000000E+00  0.00000000000E+00  0.91188000000E+02  0.91188000000E+02 0.  0.
    9900012    2    3    3    0    0  0.42777325969E+01  0.15110000224E+02 -0.33304155082E+02  0.54367111246E+02  0.40000061708E+02 0.  0.
         12    1    3    3    0    0 -0.42777325969E+01 -0.15110000224E+02  0.33304155082E+02  0.36820888754E+02  0.00000000000E+00 0. -1.
         11    1    4    4    0    0 -0.91809168337E+01 -0.24163719418E+01 -0.24590056753E+02  0.26359039790E+02  0.51100000000E-03 0. -1.
        -11    1    4    4    0    0  0.83847698166E+01  0.17141812247E+02 -0.11426250458E+02  0.22241971401E+02  0.51100000000E-03 0.  1.
         12    1    4    4    0    0  0.50738796139E+01  0.38455991820E+00  0.27121521303E+01  0.57661000551E+01  0.00000000000E+00 0. -1.
</event>
<event>
 8    1  0.2500956E-006  0.9118800E+02  0.7816164E-02  0.1184000E+00
        -11   -1    0    0    0    0  0.00000000000E+00  0.00000000000E+00  0.45593999997E+02  0.45594000000E+02  0.51100000000E-03 0.  1.
         11   -1    0    0    0    0 -0.00000000000E+00 -0.00000000000E+00 -0.45593999997E+02  0.45594000000E+02  0.51100000000E-03 0. -1.
         23    2    1    2    0    0 -0.35527136788E-14  0.00000000000E+00  0.00000000000E+00  0.91188000000E+02  0.91188000000E+02 0.  0.
    9900012    2    3    3    0    0 -0.17581505142E+02 -0.10693755833E+02 -0.30533828055E+02  0.54367076701E+02  0.39999982956E+02 0.  0.
        -12    1    3    3    0    0  0.17581505142E+02  0.10693755833E+02  0.30533828055E+02  0.36820923299E+02  0.00000000000E+00 0.  1.
         11    1    4    4    0    0 -0.13456405779E+01  0.39962591992E+01  0.16498611451E+01  0.45280104032E+01  0.51100000000E-03 0. -1.
        -11    1    4    4    0    0  0.86285722835E+01 -0.79933266524E+01 -0.63635557518E+01  0.13373121277E+02  0.51100000000E-03 0.  1.
        -12    1    4    4    0    0 -0.24864436847E+02 -0.66966883798E+01 -0.25820133449E+02  0.36465945021E+02  0.00000000000E+00 0.  1.
</event>
<event>
 8    1  0.2500956E-006  0.9118800E+02  0.7816164E-02  0.1184000E+00
        -11   -1    0    0    0    0  0.00000000000E+00  0.00000000000E+00  0.45593999997E+02  0.45594000000E+02  0.51100000000E-03 0.  1.
         11   -1    0    0    0    0 -0.00000000000E+00 -0.00000000000E+00 -0.45593999997E+02  0.45594000000E+02  0.51100000000E-03 0. -1.
         23    2    1    2    0    0  0.00000000000E+00  0.00000000000E+00  0.22204460493E-15  0.91188000000E+02  0.91188000000E+02 0.  0.
    9900012    2    3    3    0    0 -0.36277429481E+02 -0.61739917064E+01 -0.12688862818E+01  0.54367080189E+02  0.39999990906E+02 0.  0.
        -12    1    3    3    0    0  0.36277429481E+02  0.61739917064E+01  0.12688862818E+01  0.36820919811E+02  0.00000000000E+00 0.  1.
         11    1    4    4    0    0 -0.44443421324E+02 -0.16444657665E+01 -0.27340251305E+01  0.44557792363E+02  0.51100000000E-03 0. -1.
        -11    1    4    4    0    0  0.51195215516E+01 -0.31659271213E+01 -0.31296925626E+00  0.60274825152E+01  0.51100000000E-03 0.  1.
         12    1    4    4    0    0  0.30464702909E+01 -0.13635988185E+01  0.17781081050E+01  0.37818053102E+01  0.00000000000E+00 0. -1.
</event>
<event>
 8    1  0.2500956E-006  0.9118800E+02  0.7816164E-02  0.1184000E+00
        -11   -1    0    0    0    0  0.00000000000E+00  0.00000000000E+00  0.45593999997E+02  0.45594000000E+02  0.51100000000E-03 0.  1.
         11   -1    0    0    0    0 -0.00000000000E+00 -0.00000000000E+00 -0.45593999997E+02  0.45594000000E+02  0.51100000000E-03 0. -1.
         23    2    1    2    0    0 -0.17763568394E-14 -0.35527136788E-14  0.71054273576E-14  0.91188000000E+02  0.91188000000E+02 0.  0.
    9900012    2    3    3    0    0  0.15993792514E+02  0.13776320088E+02 -0.30169391755E+02  0.54367073979E+02  0.39999976749E+02 0.  0.
        -12    1    3    3    0    0 -0.15993792514E+02 -0.13776320088E+02  0.30169391755E+02  0.36820926021E+02  0.00000000000E+00 0.  1.
         11    1    4    4    0    0 -0.68630042459E+01 -0.31392912707E-02 -0.11379425993E+02  0.13288798792E+02  0.51100000000E-03 0. -1.
        -11    1    4    4    0    0  0.10172788404E+02  0.39043275624E+01  0.53004378552E+01  0.12117096985E+02  0.51100000000E-03 0.  1.
         12    1    4    4    0    0  0.12684008357E+02  0.98751318172E+01 -0.24090403617E+02  0.28961178202E+02  0.00000000000E+00 0. -1.
</event>
<event>
 8    1  0.2500956E-006  0.9118800E+02  0.7816164E-02  0.1184000E+00
        -11   -1    0    0    0    0  0.00000000000E+00  0.00000000000E+00  0.45593999997E+02  0.45594000000E+02  0.51100000000E-03 0.  1.
         11   -1    0    0    0    0 -0.00000000000E+00 -0.00000000000E+00 -0.45593999997E+02  0.45594000000E+02  0.51100000000E-03 0. -1.
         23    2    1    2    0    0  0.88817841970E-15  0.00000000000E+00  0.88817841970E-15  0.91188000000E+02  0.91188000000E+02 0.  0.
    9900012    2    3    3    0    0 -0.43474950057E+01 -0.36292983344E+02  0.44383751027E+01  0.54367074884E+02  0.39999978813E+02 0.  0.
         12    1    3    3    0    0  0.43474950057E+01  0.36292983344E+02 -0.44383751027E+01  0.36820925116E+02  0.00000000000E+00 0. -1.
         11    1    4    4    0    0  0.79056939678E+01 -0.11476714041E+02 -0.71802142212E+00  0.13954587680E+02  0.51100000000E-03 0. -1.
        -11    1    4    4    0    0 -0.60865289756E+01 -0.10680676306E+02 -0.12113650545E+02  0.17258714063E+02  0.51100000000E-03 0.  1.
        -12    1    4    4    0    0 -0.61666599980E+01 -0.14135592997E+02  0.17270047069E+02  0.23153773141E+02  0.00000000000E+00 0.  1.
</event>
<event>
 8    1  0.2500956E-006  0.9118800E+02  0.7816164E-02  0.1184000E+00
        -11   -1    0    0    0    0  0.00000000000E+00  0.00000000000E+00  0.45593999997E+02  0.45594000000E+02  0.51100000000E-03 0. -1.
         11   -1    0    0    0    0 -0.00000000000E+00 -0.00000000000E+00 -0.45593999997E+02  0.45594000000E+02  0.51100000000E-03 0.  1.
         23    2    1    2    0    0  0.00000000000E+00 -0.71054273576E-14  0.44408920985E-15  0.91188000000E+02  0.91188000000E+02 0.  0.
    9900012    2    3    3    0    0 -0.13911536162E+02 -0.33895656905E+02 -0.36510089468E+01  0.54367132795E+02  0.40000110832E+02 0.  0.
        -12    1    3    3    0    0  0.13911536162E+02  0.33895656905E+02  0.36510089468E+01  0.36820867205E+02  0.00000000000E+00 0.  1.
         11    1    4    4    0    0  0.21604516791E+01  0.32101907246E+00 -0.13718689734E+01  0.25792691686E+01  0.51100000000E-03 0.  1.
        -11    1    4    4    0    0 -0.48325761249E+01 -0.33464629470E+02 -0.13011725231E+02  0.36228996830E+02  0.51100000000E-03 0. -1.
         12    1    4    4    0    0 -0.11239411716E+02 -0.75204650813E+00  0.10732585258E+02  0.15558866796E+02  0.00000000000E+00 0. -1.
</event>
<event>
 8    1  0.2500956E-006  0.9118800E+02  0.7816164E-02  0.1184000E+00
        -11   -1    0    0    0    0  0.00000000000E+00  0.00000000000E+00  0.45593999997E+02  0.45594000000E+02  0.51100000000E-03 0.  1.
         11   -1    0    0    0    0 -0.00000000000E+00 -0.00000000000E+00 -0.45593999997E+02  0.45594000000E+02  0.51100000000E-03 0. -1.
         23    2    1    2    0    0  0.00000000000E+00  0.22204460493E-14  0.00000000000E+00  0.91188000000E+02  0.91188000000E+02 0.  0.
    9900012    2    3    3    0    0 -0.97546021088E+01 -0.28820806021E+01  0.35388144844E+02  0.54367089549E+02  0.40000012245E+02 0.  0.
         12    1    3    3    0    0  0.97546021088E+01  0.28820806021E+01 -0.35388144844E+02  0.36820910451E+02  0.00000000000E+00 0. -1.
         11    1    4    4    0    0 -0.39208284719E+00 -0.10269426080E+02  0.11035765203E+02  0.15079885771E+02  0.51100000000E-03 0. -1.
        -11    1    4    4    0    0 -0.11826092838E+02 -0.84964378718E+01  0.13779329142E+02  0.20047838791E+02  0.51100000000E-03 0.  1.
        -12    1    4    4    0    0  0.24635735763E+01  0.15883783350E+02  0.10573050499E+02  0.19239364987E+02  0.00000000000E+00 0.  1.
</event>
<event>
 8    1  0.2500956E-006  0.9118800E+02  0.7816164E-02  0.1184000E+00
        -11   -1    0    0    0    0  0.00000000000E+00  0.00000000000E+00  0.45593999997E+02  0.45594000000E+02  0.51100000000E-03 0.  1.
         11   -1    0    0    0    0 -0.00000000000E+00 -0.00000000000E+00 -0.45593999997E+02  0.45594000000E+02  0.51100000000E-03 0. -1.
         23    2    1    2    0    0  0.00000000000E+00  0.00000000000E+00 -0.88817841970E-15  0.91188000000E+02  0.91188000000E+02 0.  0.
    9900012    2    3    3    0    0  0.29381049083E+02  0.22032422553E+02  0.26656890824E+01  0.54367087640E+02  0.40000007893E+02 0.  0.
         12    1    3    3    0    0 -0.29381049083E+02 -0.22032422553E+02 -0.26656890824E+01  0.36820912360E+02  0.00000000000E+00 0. -1.
         11    1    4    4    0    0  0.20644283750E+02  0.45342722907E+01 -0.87027194414E+01  0.22857895850E+02  0.51100000000E-03 0. -1.
        -11    1    4    4    0    0  0.11304627010E+02  0.57148766555E+01  0.14294558676E+02  0.19099445411E+02  0.51100000000E-03 0.  1.
         12    1    4    4    0    0 -0.25678616770E+01  0.11783273606E+02 -0.29261501523E+01  0.12409746379E+02  0.00000000000E+00 0. -1.
</event>
<event>
 8    1  0.2500956E-006  0.9118800E+02  0.7816164E-02  0.1184000E+00
        -11   -1    0    0    0    0  0.00000000000E+00  0.00000000000E+00  0.45593999997E+02  0.45594000000E+02  0.51100000000E-03 0. -1.
         11   -1    0    0    0    0 -0.00000000000E+00 -0.00000000000E+00 -0.45593999997E+02  0.45594000000E+02  0.51100000000E-03 0.  1.
         23    2    1    2    0    0  0.00000000000E+00 -0.17763568394E-14  0.00000000000E+00  0.91188000000E+02  0.91188000000E+02 0.  0.
    9900012    2    3    3    0    0  0.77558064783E+01  0.13250847552E+02  0.33467037689E+02  0.54367080584E+02  0.39999991807E+02 0.  0.
        -12    1    3    3    0    0 -0.77558064783E+01 -0.13250847552E+02 -0.33467037689E+02  0.36820919416E+02  0.00000000000E+00 0.  1.
         11    1    4    4    0    0  0.45675654383E+01  0.11797069009E+02  0.26413238726E+02  0.29286390550E+02  0.51100000000E-03 0. -1.
        -11    1    4    4    0    0  0.19191483002E+01 -0.82187978283E+01  0.11577618627E+02  0.14327352208E+02  0.51100000000E-03 0.  1.
        -12    1    4    4    0    0  0.12690927398E+01  0.96725763714E+01 -0.45238196638E+01  0.10753337826E+02  0.00000000000E+00 0.  1.
</event>
<event>
 8    1  0.2500956E-006  0.9118800E+02  0.7816164E-02  0.1184000E+00
        -11   -1    0    0    0    0  0.00000000000E+00  0.00000000000E+00  0.45593999997E+02  0.45594000000E+02  0.51100000000E-03 0. -1.
         11   -1    0    0    0    0 -0.00000000000E+00 -0.00000000000E+00 -0.45593999997E+02  0.45594000000E+02  0.51100000000E-03 0.  1.
         23    2    1    2    0    0 -0.88817841970E-15 -0.55511151231E-15  0.71054273576E-14  0.91188000000E+02  0.91188000000E+02 0.  0.
    9900012    2    3    3    0    0  0.49635148359E+01 -0.79129986903E+00  0.36476206257E+02  0.54367132847E+02  0.40000110950E+02 0.  0.
        -12    1    3    3    0    0 -0.49635148359E+01  0.79129986903E+00 -0.36476206257E+02  0.36820867153E+02  0.00000000000E+00 0.  1.
         11    1    4    4    0    0 -0.53152099888E+01  0.31694819045E+00 -0.15942275947E+01  0.55581899271E+01  0.51100000000E-03 0. -1.
        -11    1    4    4    0    0  0.13449733267E+02  0.11318902777E+02  0.24291141371E+02  0.29984536588E+02  0.51100000000E-03 0.  1.
         12    1    4    4    0    0 -0.31710084418E+01 -0.12427150837E+02  0.13779292481E+02  0.18824406331E+02  0.00000000000E+00 0. -1.
</event>
<event>
 8    1  0.2500956E-006  0.9118800E+02  0.7816164E-02  0.1184000E+00
        -11   -1    0    0    0    0  0.00000000000E+00  0.00000000000E+00  0.45593999997E+02  0.45594000000E+02  0.51100000000E-03 0.  1.
         11   -1    0    0    0    0 -0.00000000000E+00 -0.00000000000E+00 -0.45593999997E+02  0.45594000000E+02  0.51100000000E-03 0. -1.
         23    2    1    2    0    0  0.35527136788E-14  0.00000000000E+00  0.35527136788E-14  0.91188000000E+02  0.91188000000E+02 0.  0.
    9900012    2    3    3    0    0 -0.14407817283E+02  0.12489542524E+02 -0.31499287251E+02  0.54367096037E+02  0.40000027036E+02 0.  0.
        -12    1    3    3    0    0  0.14407817283E+02 -0.12489542524E+02  0.31499287251E+02  0.36820903963E+02  0.00000000000E+00 0.  1.
         11    1    4    4    0    0 -0.19510976246E+02  0.31448366388E+01 -0.20717000816E+02  0.28631491659E+02  0.51100000000E-03 0. -1.
        -11    1    4    4    0    0  0.92450223805E+01 -0.75791494839E+00 -0.11521931476E+02  0.14791882202E+02  0.51100000000E-03 0.  1.
         12    1    4    4    0    0 -0.41418634172E+01  0.10102620833E+02  0.73964504077E+00  0.10943722175E+02  0.00000000000E+00 0. -1.
</event>
<event>
 8    1  0.2500956E-006  0.9118800E+02  0.7816164E-02  0.1184000E+00
        -11   -1    0    0    0    0  0.00000000000E+00  0.00000000000E+00  0.45593999997E+02  0.45594000000E+02  0.51100000000E-03 0. -1.
         11   -1    0    0    0    0 -0.00000000000E+00 -0.00000000000E+00 -0.45593999997E+02  0.45594000000E+02  0.51100000000E-03 0.  1.
         23    2    1    2    0    0 -0.35527136788E-14  0.35527136788E-14  0.00000000000E+00  0.91188000000E+02  0.91188000000E+02 0.  0.
    9900012    2    3    3    0    0 -0.17715943483E+02  0.30894731792E+02  0.93513308157E+01  0.54366993848E+02  0.39999794076E+02 0.  0.
        -12    1    3    3    0    0  0.17715943483E+02 -0.30894731792E+02 -0.93513308157E+01  0.36821006152E+02  0.00000000000E+00 0.  1.
         11    1    4    4    0    0 -0.56610656025E+01  0.10819777622E+02  0.38780747186E+01  0.12812287670E+02  0.51100000000E-03 0. -1.
        -11    1    4    4    0    0 -0.13136662866E+02  0.66306287216E+01 -0.12344654821E+02  0.19207489462E+02  0.51100000000E-03 0.  1.
        -12    1    4    4    0    0  0.10817849855E+01  0.13444325448E+02  0.17817910918E+02  0.22347216717E+02  0.00000000000E+00 0.  1.
</event>
<event>
 8    1  0.2500956E-006  0.9118800E+02  0.7816164E-02  0.1184000E+00
        -11   -1    0    0    0    0  0.00000000000E+00  0.00000000000E+00  0.45593999997E+02  0.45594000000E+02  0.51100000000E-03 0. -1.
         11   -1    0    0    0    0 -0.00000000000E+00 -0.00000000000E+00 -0.45593999997E+02  0.45594000000E+02  0.51100000000E-03 0.  1.
         23    2    1    2    0    0  0.00000000000E+00 -0.17763568394E-14 -0.71054273576E-14  0.91188000000E+02  0.91188000000E+02 0.  0.
    9900012    2    3    3    0    0 -0.21142324757E+01 -0.57193707742E+01 -0.36312513079E+02  0.54367084923E+02  0.40000001699E+02 0.  0.
         12    1    3    3    0    0  0.21142324757E+01  0.57193707742E+01  0.36312513079E+02  0.36820915077E+02  0.00000000000E+00 0. -1.
         11    1    4    4    0    0  0.63784121491E+01  0.45565051159E+01 -0.11913747297E+01  0.79287612161E+01  0.51100000000E-03 0. -1.
        -11    1    4    4    0    0 -0.26318736307E+01 -0.10589770861E+02 -0.83221461601E-01  0.10912237706E+02  0.51100000000E-03 0.  1.
        -12    1    4    4    0    0 -0.58607709940E+01  0.31389497045E+00 -0.35037916888E+02  0.35526086000E+02  0.00000000000E+00 0.  1.
</event>
<event>
 8    1  0.2500956E-006  0.9118800E+02  0.7816164E-02  0.1184000E+00
        -11   -1    0    0    0    0  0.00000000000E+00  0.00000000000E+00  0.45593999997E+02  0.45594000000E+02  0.51100000000E-03 0. -1.
         11   -1    0    0    0    0 -0.00000000000E+00 -0.00000000000E+00 -0.45593999997E+02  0.45594000000E+02  0.51100000000E-03 0.  1.
         23    2    1    2    0    0 -0.13322676296E-14  0.83266726847E-16 -0.71054273576E-14  0.91188000000E+02  0.91188000000E+02 0.  0.
    9900012    2    3    3    0    0 -0.24952777058E+01 -0.65470608855E-01 -0.36736200952E+02  0.54367093471E+02  0.40000021186E+02 0.  0.
         12    1    3    3    0    0  0.24952777058E+01  0.65470608855E-01  0.36736200952E+02  0.36820906529E+02  0.00000000000E+00 0. -1.
         11    1    4    4    0    0  0.32132156852E+01 -0.26406942994E+01  0.77196683115E+01  0.87687684724E+01  0.51100000000E-03 0. -1.
        -11    1    4    4    0    0  0.68324744009E+00 -0.19925253707E+01 -0.63238014575E+01  0.66653919279E+01  0.51100000000E-03 0.  1.
         12    1    4    4    0    0 -0.63917408311E+01  0.45677490612E+01 -0.38132067806E+02  0.38932933071E+02  0.00000000000E+00 0. -1.
</event>
<event>
 8    1  0.2500956E-006  0.9118800E+02  0.7816164E-02  0.1184000E+00
        -11   -1    0    0    0    0  0.00000000000E+00  0.00000000000E+00  0.45593999997E+02  0.45594000000E+02  0.51100000000E-03 0.  1.
         11   -1    0    0    0    0 -0.00000000000E+00 -0.00000000000E+00 -0.45593999997E+02  0.45594000000E+02  0.51100000000E-03 0. -1.
         23    2    1    2    0    0  0.00000000000E+00  0.00000000000E+00  0.17763568394E-14  0.91188000000E+02  0.91188000000E+02 0.  0.
    9900012    2    3    3    0    0 -0.24147008989E+02 -0.26141334941E+02  0.94516174322E+01  0.54367075138E+02  0.39999979392E+02 0.  0.
         12    1    3    3    0    0  0.24147008989E+02  0.26141334941E+02 -0.94516174322E+01  0.36820924862E+02  0.00000000000E+00 0. -1.
         11    1    4    4    0    0 -0.12664306388E+02 -0.77929981827E+01 -0.12832052891E+02  0.19641208176E+02  0.51100000000E-03 0. -1.
        -11    1    4    4    0    0 -0.14574325105E+02 -0.17549608040E+02  0.21690302418E+02  0.31478070365E+02  0.51100000000E-03 0.  1.
        -12    1    4    4    0    0  0.30916225031E+01 -0.79872871755E+00  0.59336790549E+00  0.32477965972E+01  0.00000000000E+00 0.  1.
</event>
<event>
 8    1  0.2500956E-006  0.9118800E+02  0.7816164E-02  0.1184000E+00
        -11   -1    0    0    0    0  0.00000000000E+00  0.00000000000E+00  0.45593999997E+02  0.45594000000E+02  0.51100000000E-03 0.  1.
         11   -1    0    0    0    0 -0.00000000000E+00 -0.00000000000E+00 -0.45593999997E+02  0.45594000000E+02  0.51100000000E-03 0. -1.
         23    2    1    2    0    0  0.00000000000E+00  0.00000000000E+00  0.00000000000E+00  0.91188000000E+02  0.91188000000E+02 0.  0.
    9900012    2    3    3    0    0  0.33644413493E+02 -0.11859445041E+02  0.91208900713E+01  0.54367032717E+02  0.39999882684E+02 0.  0.
         12    1    3    3    0    0 -0.33644413493E+02  0.11859445041E+02 -0.91208900713E+01  0.36820967283E+02  0.00000000000E+00 0. -1.
         11    1    4    4    0    0  0.11653298008E+02  0.62950683681E+01 -0.58123419330E+01  0.14464112805E+02  0.51100000000E-03 0. -1.
        -11    1    4    4    0    0  0.19436779913E+02 -0.62354361792E+01 -0.27260617552E+00  0.20414293819E+02  0.51100000000E-03 0.  1.
        -12    1    4    4    0    0  0.25543355721E+01 -0.11919077230E+02  0.15205838180E+02  0.19488626093E+02  0.00000000000E+00 0.  1.
</event>
<event>
 8    1  0.2500956E-006  0.9118800E+02  0.7816164E-02  0.1184000E+00
        -11   -1    0    0    0    0  0.00000000000E+00  0.00000000000E+00  0.45593999997E+02  0.45594000000E+02  0.51100000000E-03 0.  1.
         11   -1    0    0    0    0 -0.00000000000E+00 -0.00000000000E+00 -0.45593999997E+02  0.45594000000E+02  0.51100000000E-03 0. -1.
         23    2    1    2    0    0 -0.88817841970E-15 -0.35527136788E-14  0.00000000000E+00  0.91188000000E+02  0.91188000000E+02 0.  0.
    9900012    2    3    3    0    0  0.78965966153E+01  0.25471267367E+02  0.25389735578E+02  0.54367076979E+02  0.39999983590E+02 0.  0.
         12    1    3    3    0    0 -0.78965966153E+01 -0.25471267367E+02 -0.25389735578E+02  0.36820923021E+02  0.00000000000E+00 0. -1.
         11    1    4    4    0    0  0.61123516034E+01  0.57669840218E+01 -0.58958426284E+01  0.10265471611E+02  0.51100000000E-03 0. -1.
        -11    1    4    4    0    0  0.31131695545E+01  0.22248842856E+02  0.13764676797E+02  0.26347090176E+02  0.51100000000E-03 0.  1.
         12    1    4    4    0    0 -0.13289245426E+01 -0.25445595116E+01  0.17520901409E+02  0.17754515193E+02  0.00000000000E+00 0. -1.
</event>
<event>
 8    1  0.2500956E-006  0.9118800E+02  0.7816164E-02  0.1184000E+00
        -11   -1    0    0    0    0  0.00000000000E+00  0.00000000000E+00  0.45593999997E+02  0.45594000000E+02  0.51100000000E-03 0. -1.
         11   -1    0    0    0    0 -0.00000000000E+00 -0.00000000000E+00 -0.45593999997E+02  0.45594000000E+02  0.51100000000E-03 0.  1.
         23    2    1    2    0    0 -0.17763568394E-14  0.35527136788E-14  0.00000000000E+00  0.91188000000E+02  0.91188000000E+02 0.  0.
    9900012    2    3    3    0    0  0.15989310449E+02 -0.11992675458E+02  0.30924054870E+02  0.54367089054E+02  0.40000011117E+02 0.  0.
        -12    1    3    3    0    0 -0.15989310449E+02  0.11992675458E+02 -0.30924054870E+02  0.36820910946E+02  0.00000000000E+00 0.  1.
         11    1    4    4    0    0 -0.34280024644E+01  0.12393433338E+00  0.23666999194E+02  0.23914293043E+02  0.51100000000E-03 0. -1.
        -11    1    4    4    0    0  0.64127074833E+01  0.49626559897E+01  0.20099559360E+01  0.83540825268E+01  0.51100000000E-03 0.  1.
         12    1    4    4    0    0  0.13004605430E+02 -0.17079265781E+02  0.52470997399E+01  0.22098713485E+02  0.00000000000E+00 0. -1.
</event>
<event>
 8    1  0.2500956E-006  0.9118800E+02  0.7816164E-02  0.1184000E+00
        -11   -1    0    0    0    0  0.00000000000E+00  0.00000000000E+00  0.45593999997E+02  0.45594000000E+02  0.51100000000E-03 0.  1.
         11   -1    0    0    0    0 -0.00000000000E+00 -0.00000000000E+00 -0.45593999997E+02  0.45594000000E+02  0.51100000000E-03 0. -1.
         23    2    1    2    0    0  0.00000000000E+00  0.00000000000E+00 -0.17763568394E-14  0.91188000000E+02  0.91188000000E+02 0.  0.
    9900012    2    3    3    0    0 -0.34964752014E+02 -0.80134363263E+01 -0.83084038156E+01  0.54367100783E+02  0.40000037856E+02 0.  0.
        -12    1    3    3    0    0  0.34964752014E+02  0.80134363263E+01  0.83084038156E+01  0.36820899217E+02  0.00000000000E+00 0.  1.
         11    1    4    4    0    0 -0.28214176741E+01 -0.18883046776E+01  0.89794989964E+01  0.95998695166E+01  0.51100000000E-03 0. -1.
        -11    1    4    4    0    0 -0.11694517302E+02 -0.45528874031E+01  0.58518093921E+01  0.13846811621E+02  0.51100000000E-03 0.  1.
         12    1    4    4    0    0 -0.20448817038E+02 -0.15722442457E+01 -0.23139712204E+02  0.30920419646E+02  0.00000000000E+00 0. -1.
</event>
<event>
 8    1  0.2500956E-006  0.9118800E+02  0.7816164E-02  0.1184000E+00
        -11   -1    0    0    0    0  0.00000000000E+00  0.00000000000E+00  0.45593999997E+02  0.45594000000E+02  0.51100000000E-03 0. -1.
         11   -1    0    0    0    0 -0.00000000000E+00 -0.00000000000E+00 -0.45593999997E+02  0.45594000000E+02  0.51100000000E-03 0.  1.
         23    2    1    2    0    0 -0.31086244690E-14  0.00000000000E+00 -0.35527136788E-14  0.91188000000E+02  0.91188000000E+02 0.  0.
    9900012    2    3    3    0    0 -0.31693389585E+01 -0.18924818450E+02 -0.31426101741E+02  0.54366900975E+02  0.39999582350E+02 0.  0.
         12    1    3    3    0    0  0.31693389585E+01  0.18924818450E+02  0.31426101741E+02  0.36821099025E+02  0.00000000000E+00 0. -1.
         11    1    4    4    0    0 -0.40369926815E+01  0.18921300740E+01 -0.21320469101E+01  0.49419723204E+01  0.51100000000E-03 0. -1.
        -11    1    4    4    0    0 -0.16414089480E+02 -0.89944761078E+01 -0.11675417284E+02  0.22059879939E+02  0.51100000000E-03 0.  1.
        -12    1    4    4    0    0  0.17281743203E+02 -0.11822472416E+02 -0.17618637547E+02  0.27365048715E+02  0.00000000000E+00 0.  1.
</event>
<event>
 8    1  0.2500956E-006  0.9118800E+02  0.7816164E-02  0.1184000E+00
        -11   -1    0    0    0    0  0.00000000000E+00  0.00000000000E+00  0.45593999997E+02  0.45594000000E+02  0.51100000000E-03 0. -1.
         11   -1    0    0    0    0 -0.00000000000E+00 -0.00000000000E+00 -0.45593999997E+02  0.45594000000E+02  0.51100000000E-03 0.  1.
         23    2    1    2    0    0  0.00000000000E+00  0.00000000000E+00  0.00000000000E+00  0.91188000000E+02  0.91188000000E+02 0.  0.
    9900012    2    3    3    0    0 -0.10765335208E+02 -0.22639652336E+02  0.26969134802E+02  0.54367074808E+02  0.39999978640E+02 0.  0.
        -12    1    3    3    0    0  0.10765335208E+02  0.22639652336E+02 -0.26969134802E+02  0.36820925192E+02  0.00000000000E+00 0.  1.
         11    1    4    4    0    0 -0.81185843781E+01 -0.37156753550E+01  0.77080306985E+01  0.11795397117E+02  0.51100000000E-03 0. -1.
        -11    1    4    4    0    0  0.11877665120E+02 -0.78408724759E+01  0.19691760020E+02  0.24296576360E+02  0.51100000000E-03 0.  1.
        -12    1    4    4    0    0 -0.14524415949E+02 -0.11083104505E+02 -0.43065591632E+00  0.18275101331E+02  0.00000000000E+00 0.  1.
</event>
<event>
 8    1  0.2500956E-006  0.9118800E+02  0.7816164E-02  0.1184000E+00
        -11   -1    0    0    0    0  0.00000000000E+00  0.00000000000E+00  0.45593999997E+02  0.45594000000E+02  0.51100000000E-03 0. -1.
         11   -1    0    0    0    0 -0.00000000000E+00 -0.00000000000E+00 -0.45593999997E+02  0.45594000000E+02  0.51100000000E-03 0.  1.
         23    2    1    2    0    0  0.35527136788E-14  0.00000000000E+00  0.00000000000E+00  0.91188000000E+02  0.91188000000E+02 0.  0.
    9900012    2    3    3    0    0 -0.17573694290E+02 -0.24787325048E+02 -0.20797466884E+02  0.54367070587E+02  0.39999969018E+02 0.  0.
         12    1    3    3    0    0  0.17573694290E+02  0.24787325048E+02  0.20797466884E+02  0.36820929413E+02  0.00000000000E+00 0. -1.
         11    1    4    4    0    0 -0.11745147443E+02 -0.87531205668E+01  0.53402141770E+01  0.15591135168E+02  0.51100000000E-03 0. -1.
        -11    1    4    4    0    0  0.74124533982E+01 -0.65360830475E+00 -0.11713596839E+02  0.13877320359E+02  0.51100000000E-03 0.  1.
        -12    1    4    4    0    0 -0.13241000245E+02 -0.15380596176E+02 -0.14424084223E+02  0.24898615060E+02  0.00000000000E+00 0.  1.
</event>
<event>
 8    1  0.2500956E-006  0.9118800E+02  0.7816164E-02  0.1184000E+00
        -11   -1    0    0    0    0  0.00000000000E+00  0.00000000000E+00  0.45593999997E+02  0.45594000000E+02  0.51100000000E-03 0.  1.
         11   -1    0    0    0    0 -0.00000000000E+00 -0.00000000000E+00 -0.45593999997E+02  0.45594000000E+02  0.51100000000E-03 0. -1.
         23    2    1    2    0    0  0.00000000000E+00 -0.71054273576E-14 -0.24147350786E-14  0.91188000000E+02  0.91188000000E+02 0.  0.
    9900012    2    3    3    0    0 -0.98668745053E+01  0.35473897445E+02  0.16665384422E+00  0.54367076792E+02  0.39999983162E+02 0.  0.
         12    1    3    3    0    0  0.98668745053E+01 -0.35473897445E+02 -0.16665384422E+00  0.36820923208E+02  0.00000000000E+00 0. -1.
         11    1    4    4    0    0 -0.10340422020E+02  0.69336247464E+01 -0.14923358412E+02  0.19434662494E+02  0.51100000000E-03 0. -1.
        -11    1    4    4    0    0  0.97240544541E+00  0.64180059486E+00  0.51994845230E+01  0.53284256512E+01  0.51100000000E-03 0.  1.
         12    1    4    4    0    0 -0.49885793045E+00  0.27898472103E+02  0.98905277336E+01  0.29603988647E+02  0.00000000000E+00 0. -1.
</event>
<event>
 8    1  0.2500956E-006  0.9118800E+02  0.7816164E-02  0.1184000E+00
        -11   -1    0    0    0    0  0.00000000000E+00  0.00000000000E+00  0.45593999997E+02  0.45594000000E+02  0.51100000000E-03 0.  1.
         11   -1    0    0    0    0 -0.00000000000E+00 -0.00000000000E+00 -0.45593999997E+02  0.45594000000E+02  0.51100000000E-03 0. -1.
         23    2    1    2    0    0  0.35527136788E-14  0.00000000000E+00  0.00000000000E+00  0.91188000000E+02  0.91188000000E+02 0.  0.
    9900012    2    3    3    0    0  0.30189206961E+02  0.97036411926E+01  0.18714473719E+02  0.54367076656E+02  0.39999982852E+02 0.  0.
         12    1    3    3    0    0 -0.30189206961E+02 -0.97036411926E+01 -0.18714473719E+02  0.36820923344E+02  0.00000000000E+00 0. -1.
         11    1    4    4    0    0  0.18907571568E+02  0.11119771391E+01  0.10291732710E+02  0.21555800105E+02  0.51100000000E-03 0. -1.
        -11    1    4    4    0    0  0.49554766332E+01  0.18732573323E+02  0.76552653741E+01  0.20834326007E+02  0.51100000000E-03 0.  1.
        -12    1    4    4    0    0  0.63261587602E+01 -0.10140909269E+02  0.76747563513E+00  0.11976950543E+02  0.00000000000E+00 0.  1.
</event>
<event>
 8    1  0.2500956E-006  0.9118800E+02  0.7816164E-02  0.1184000E+00
        -11   -1    0    0    0    0  0.00000000000E+00  0.00000000000E+00  0.45593999997E+02  0.45594000000E+02  0.51100000000E-03 0.  1.
         11   -1    0    0    0    0 -0.00000000000E+00 -0.00000000000E+00 -0.45593999997E+02  0.45594000000E+02  0.51100000000E-03 0. -1.
         23    2    1    2    0    0  0.00000000000E+00  0.00000000000E+00  0.35527136788E-14  0.91188000000E+02  0.91188000000E+02 0.  0.
    9900012    2    3    3    0    0 -0.29039374006E+02 -0.10178254578E+02 -0.20221336330E+02  0.54367020221E+02  0.39999854198E+02 0.  0.
        -12    1    3    3    0    0  0.29039374006E+02  0.10178254578E+02  0.20221336330E+02  0.36820979779E+02  0.00000000000E+00 0.  1.
         11    1    4    4    0    0 -0.24950663344E+02  0.31868290083E+01 -0.79709663819E+01  0.26386128662E+02  0.51100000000E-03 0. -1.
        -11    1    4    4    0    0  0.19055333244E+01 -0.59339984586E+01  0.51819681988E+01  0.81053186015E+01  0.51100000000E-03 0.  1.
        -12    1    4    4    0    0 -0.59942439865E+01 -0.74310851273E+01 -0.17432338147E+02  0.19875572958E+02  0.00000000000E+00 0.  1.
</event>
<event>
 8    1  0.2500956E-006  0.9118800E+02  0.7816164E-02  0.1184000E+00
        -11   -1    0    0    0    0  0.00000000000E+00  0.00000000000E+00  0.45593999997E+02  0.45594000000E+02  0.51100000000E-03 0. -1.
         11   -1    0    0    0    0 -0.00000000000E+00 -0.00000000000E+00 -0.45593999997E+02  0.45594000000E+02  0.51100000000E-03 0.  1.
         23    2    1    2    0    0  0.15543122345E-14 -0.71054273576E-14  0.00000000000E+00  0.91188000000E+02  0.91188000000E+02 0.  0.
    9900012    2    3    3    0    0 -0.17125012966E+01 -0.32733171091E+02 -0.16774600168E+02  0.54367077127E+02  0.39999983927E+02 0.  0.
         12    1    3    3    0    0  0.17125012966E+01  0.32733171091E+02  0.16774600168E+02  0.36820922873E+02  0.00000000000E+00 0. -1.
         11    1    4    4    0    0 -0.74530107271E+01 -0.33536242592E+01 -0.71304983724E+01  0.10846113215E+02  0.51100000000E-03 0. -1.
        -11    1    4    4    0    0  0.39958510946E+00 -0.27720771666E+02 -0.18297638718E+02  0.33217532012E+02  0.51100000000E-03 0.  1.
         12    1    4    4    0    0  0.53409243210E+01 -0.16587751660E+01  0.86535369230E+01  0.10303431901E+02  0.00000000000E+00 0. -1.
</event>
<event>
 8    1  0.2500956E-006  0.9118800E+02  0.7816164E-02  0.1184000E+00
        -11   -1    0    0    0    0  0.00000000000E+00  0.00000000000E+00  0.45593999997E+02  0.45594000000E+02  0.51100000000E-03 0. -1.
         11   -1    0    0    0    0 -0.00000000000E+00 -0.00000000000E+00 -0.45593999997E+02  0.45594000000E+02  0.51100000000E-03 0.  1.
         23    2    1    2    0    0 -0.35527136788E-14  0.00000000000E+00  0.35527136788E-14  0.91188000000E+02  0.91188000000E+02 0.  0.
    9900012    2    3    3    0    0 -0.28333361406E+02 -0.87529836085E+01  0.21826201671E+02  0.54367120461E+02  0.40000082715E+02 0.  0.
        -12    1    3    3    0    0  0.28333361406E+02  0.87529836085E+01 -0.21826201671E+02  0.36820879539E+02  0.00000000000E+00 0.  1.
         11    1    4    4    0    0 -0.12382687186E+02  0.66421163908E+01  0.15812904742E+02  0.21154115646E+02  0.51100000000E-03 0. -1.
        -11    1    4    4    0    0 -0.11595532837E+02 -0.18342021436E+02  0.12358262964E+02  0.24972240506E+02  0.51100000000E-03 0.  1.
        -12    1    4    4    0    0 -0.43551413828E+01  0.29469214363E+01 -0.63449660353E+01  0.82407643095E+01  0.00000000000E+00 0.  1.
</event>
<event>
 8    1  0.2500956E-006  0.9118800E+02  0.7816164E-02  0.1184000E+00
        -11   -1    0    0    0    0  0.00000000000E+00  0.00000000000E+00  0.45593999997E+02  0.45594000000E+02  0.51100000000E-03 0. -1.
         11   -1    0    0    0    0 -0.00000000000E+00 -0.00000000000E+00 -0.45593999997E+02  0.45594000000E+02  0.51100000000E-03 0.  1.
         23    2    1    2    0    0  0.00000000000E+00  0.00000000000E+00 -0.71054273576E-14  0.91188000000E+02  0.91188000000E+02 0.  0.
    9900012    2    3    3    0    0 -0.13449399668E+02 -0.15218111452E+02 -0.30713210348E+02  0.54367101621E+02  0.40000039765E+02 0.  0.
         12    1    3    3    0    0  0.13449399668E+02  0.15218111452E+02  0.30713210348E+02  0.36820898379E+02  0.00000000000E+00 0. -1.
         11    1    4    4    0    0 -0.73477814974E+01 -0.16157710683E+02 -0.42116634247E+01  0.18242796291E+02  0.51100000000E-03 0.  1.
        -11    1    4    4    0    0 -0.28355123022E+01  0.52221930015E+01  0.26305247851E+01  0.64985452731E+01  0.51100000000E-03 0. -1.
         12    1    4    4    0    0 -0.32661058685E+01 -0.42825937710E+01 -0.29132071708E+02  0.29625760057E+02  0.00000000000E+00 0. -1.
</event>
<event>
 8    1  0.2500956E-006  0.9118800E+02  0.7816164E-02  0.1184000E+00
        -11   -1    0    0    0    0  0.00000000000E+00  0.00000000000E+00  0.45593999997E+02  0.45594000000E+02  0.51100000000E-03 0.  1.
         11   -1    0    0    0    0 -0.00000000000E+00 -0.00000000000E+00 -0.45593999997E+02  0.45594000000E+02  0.51100000000E-03 0. -1.
         23    2    1    2    0    0  0.00000000000E+00 -0.35527136788E-14  0.35527136788E-14  0.91188000000E+02  0.91188000000E+02 0.  0.
    9900012    2    3    3    0    0  0.15356006759E+02  0.17717093525E+02 -0.28391520265E+02  0.54367071582E+02  0.39999971286E+02 0.  0.
        -12    1    3    3    0    0 -0.15356006759E+02 -0.17717093525E+02  0.28391520265E+02  0.36820928418E+02  0.00000000000E+00 0.  1.
         11    1    4    4    0    0  0.75392724366E+01  0.56620253019E+01 -0.36610695539E+02  0.37805319567E+02  0.51100000000E-03 0. -1.
        -11    1    4    4    0    0  0.31068846651E+01  0.46094641029E+01  0.34720806444E+01  0.65540244050E+01  0.51100000000E-03 0.  1.
         12    1    4    4    0    0  0.47098496574E+01  0.74456041202E+01  0.47470946295E+01  0.10007727611E+02  0.00000000000E+00 0. -1.
</event>
<event>
 8    1  0.2500956E-006  0.9118800E+02  0.7816164E-02  0.1184000E+00
        -11   -1    0    0    0    0  0.00000000000E+00  0.00000000000E+00  0.45593999997E+02  0.45594000000E+02  0.51100000000E-03 0. -1.
         11   -1    0    0    0    0 -0.00000000000E+00 -0.00000000000E+00 -0.45593999997E+02  0.45594000000E+02  0.51100000000E-03 0.  1.
         23    2    1    2    0    0  0.00000000000E+00 -0.17763568394E-14 -0.88817841970E-15  0.91188000000E+02  0.91188000000E+02 0.  0.
    9900012    2    3    3    0    0 -0.34639966208E+02 -0.11325535886E+02  0.52519490140E+01  0.54367109320E+02  0.40000057317E+02 0.  0.
         12    1    3    3    0    0  0.34639966208E+02  0.11325535886E+02 -0.52519490140E+01  0.36820890680E+02  0.00000000000E+00 0. -1.
         11    1    4    4    0    0  0.39203195279E+01  0.15081804544E-01 -0.27959056518E+01  0.48152072994E+01  0.51100000000E-03 0. -1.
        -11    1    4    4    0    0 -0.25258940984E+02  0.10606425602E+01 -0.66818570721E+01  0.26149307380E+02  0.51100000000E-03 0.  1.
        -12    1    4    4    0    0 -0.13301344752E+02 -0.12401260251E+02  0.14729711738E+02  0.23402594640E+02  0.00000000000E+00 0.  1.
</event>
<event>
 8    1  0.2500956E-006  0.9118800E+02  0.7816164E-02  0.1184000E+00
        -11   -1    0    0    0    0  0.00000000000E+00  0.00000000000E+00  0.45593999997E+02  0.45594000000E+02  0.51100000000E-03 0.  1.
         11   -1    0    0    0    0 -0.00000000000E+00 -0.00000000000E+00 -0.45593999997E+02  0.45594000000E+02  0.51100000000E-03 0. -1.
         23    2    1    2    0    0 -0.35527136788E-14  0.00000000000E+00  0.00000000000E+00  0.91188000000E+02  0.91188000000E+02 0.  0.
    9900012    2    3    3    0    0 -0.23803234186E+02  0.15044191511E+02  0.23724627948E+02  0.54367087094E+02  0.40000006648E+02 0.  0.
         12    1    3    3    0    0  0.23803234186E+02 -0.15044191511E+02 -0.23724627948E+02  0.36820912906E+02  0.00000000000E+00 0. -1.
         11    1    4    4    0    0 -0.11014764728E+02  0.18718539798E+00 -0.10507261169E+01  0.11066350167E+02  0.51100000000E-03 0. -1.
        -11    1    4    4    0    0 -0.13067768555E+02 -0.50251187459E+01  0.16819481679E+02  0.21884089144E+02  0.51100000000E-03 0.  1.
         12    1    4    4    0    0  0.27929909641E+00  0.19882124858E+02  0.79558723858E+01  0.21416647784E+02  0.00000000000E+00 0. -1.
</event>
<event>
 8    1  0.2500956E-006  0.9118800E+02  0.7816164E-02  0.1184000E+00
        -11   -1    0    0    0    0  0.00000000000E+00  0.00000000000E+00  0.45593999997E+02  0.45594000000E+02  0.51100000000E-03 0.  1.
         11   -1    0    0    0    0 -0.00000000000E+00 -0.00000000000E+00 -0.45593999997E+02  0.45594000000E+02  0.51100000000E-03 0. -1.
         23    2    1    2    0    0  0.00000000000E+00  0.00000000000E+00 -0.35527136788E-14  0.91188000000E+02  0.91188000000E+02 0.  0.
    9900012    2    3    3    0    0  0.56606057957E+01 -0.27878991342E+02 -0.23377317571E+02  0.54367087558E+02  0.40000007706E+02 0.  0.
        -12    1    3    3    0    0 -0.56606057957E+01  0.27878991342E+02  0.23377317571E+02  0.36820912442E+02  0.00000000000E+00 0.  1.
         11    1    4    4    0    0  0.12444251156E-01  0.61813122421E+01 -0.62432791921E+01  0.87856309521E+01  0.51100000000E-03 0. -1.
        -11    1    4    4    0    0  0.14733215242E+02 -0.15861422357E+02 -0.63578171774E+01  0.22562672494E+02  0.51100000000E-03 0.  1.
         12    1    4    4    0    0 -0.90850536971E+01 -0.18198881228E+02 -0.10776221201E+02  0.23018784112E+02  0.00000000000E+00 0. -1.
</event>
<event>
 8    1  0.2500956E-006  0.9118800E+02  0.7816164E-02  0.1184000E+00
        -11   -1    0    0    0    0  0.00000000000E+00  0.00000000000E+00  0.45593999997E+02  0.45594000000E+02  0.51100000000E-03 0. -1.
         11   -1    0    0    0    0 -0.00000000000E+00 -0.00000000000E+00 -0.45593999997E+02  0.45594000000E+02  0.51100000000E-03 0.  1.
         23    2    1    2    0    0  0.35527136788E-14  0.00000000000E+00  0.88817841970E-15  0.91188000000E+02  0.91188000000E+02 0.  0.
    9900012    2    3    3    0    0 -0.27761455215E+02  0.23591822884E+02  0.53391963962E+01  0.54367088539E+02  0.40000009943E+02 0.  0.
         12    1    3    3    0    0  0.27761455215E+02 -0.23591822884E+02 -0.53391963962E+01  0.36820911461E+02  0.00000000000E+00 0. -1.
         11    1    4    4    0    0  0.24724857330E+01 -0.36918533143E+00  0.49561700663E+01  0.55509553679E+01  0.51100000000E-03 0. -1.
        -11    1    4    4    0    0 -0.29737705416E+02  0.27897834376E+02  0.67339367997E+01  0.41327547609E+02  0.51100000000E-03 0.  1.
        -12    1    4    4    0    0 -0.49623553172E+00 -0.39368261607E+01 -0.63509104699E+01  0.74885855619E+01  0.00000000000E+00 0.  1.
</event>
<event>
 8    1  0.2500956E-006  0.9118800E+02  0.7816164E-02  0.1184000E+00
        -11   -1    0    0    0    0  0.00000000000E+00  0.00000000000E+00  0.45593999997E+02  0.45594000000E+02  0.51100000000E-03 0. -1.
         11   -1    0    0    0    0 -0.00000000000E+00 -0.00000000000E+00 -0.45593999997E+02  0.45594000000E+02  0.51100000000E-03 0.  1.
         23    2    1    2    0    0 -0.35527136788E-14  0.00000000000E+00  0.35527136788E-14  0.91188000000E+02  0.91188000000E+02 0.  0.
    9900012    2    3    3    0    0 -0.28192250352E+02  0.18958442199E+02 -0.14196896386E+02  0.54367117643E+02  0.40000076292E+02 0.  0.
         12    1    3    3    0    0  0.28192250352E+02 -0.18958442199E+02  0.14196896386E+02  0.36820882357E+02  0.00000000000E+00 0. -1.
         11    1    4    4    0    0 -0.18171374045E+02  0.63412605723E+00 -0.18962602210E+02  0.26271300565E+02  0.51100000000E-03 0.  1.
        -11    1    4    4    0    0 -0.15855128797E+01 -0.87151655489E+00  0.67937001742E+01  0.70304875019E+01  0.51100000000E-03 0. -1.
        -12    1    4    4    0    0 -0.84353634272E+01  0.19195832697E+02 -0.20279943500E+01  0.21065329576E+02  0.00000000000E+00 0.  1.
</event>
<event>
 8    1  0.2500956E-006  0.9118800E+02  0.7816164E-02  0.1184000E+00
        -11   -1    0    0    0    0  0.00000000000E+00  0.00000000000E+00  0.45593999997E+02  0.45594000000E+02  0.51100000000E-03 0.  1.
         11   -1    0    0    0    0 -0.00000000000E+00 -0.00000000000E+00 -0.45593999997E+02  0.45594000000E+02  0.51100000000E-03 0. -1.
         23    2    1    2    0    0  0.00000000000E+00  0.00000000000E+00  0.00000000000E+00  0.91188000000E+02  0.91188000000E+02 0.  0.
    9900012    2    3    3    0    0 -0.17304171388E+02  0.99403723780E+01  0.30944064285E+02  0.54367075719E+02  0.39999980716E+02 0.  0.
         12    1    3    3    0    0  0.17304171388E+02 -0.99403723780E+01 -0.30944064285E+02  0.36820924281E+02  0.00000000000E+00 0. -1.
         11    1    4    4    0    0 -0.25465729440E+01 -0.52302045539E+00  0.19359607862E+02  0.19533381709E+02  0.51100000000E-03 0. -1.
        -11    1    4    4    0    0 -0.17053595791E+02  0.62500563332E+01  0.18817919941E+02  0.26153440399E+02  0.51100000000E-03 0.  1.
         12    1    4    4    0    0  0.22959973462E+01  0.42133365002E+01 -0.72334635178E+01  0.86802536104E+01  0.00000000000E+00 0. -1.
</event>
<event>
 8    1  0.2500956E-006  0.9118800E+02  0.7816164E-02  0.1184000E+00
        -11   -1    0    0    0    0  0.00000000000E+00  0.00000000000E+00  0.45593999997E+02  0.45594000000E+02  0.51100000000E-03 0.  1.
         11   -1    0    0    0    0 -0.00000000000E+00 -0.00000000000E+00 -0.45593999997E+02  0.45594000000E+02  0.51100000000E-03 0. -1.
         23    2    1    2    0    0  0.00000000000E+00  0.44408920985E-15  0.00000000000E+00  0.91188000000E+02  0.91188000000E+02 0.  0.
    9900012    2    3    3    0    0  0.33706202142E+02  0.33643027807E+01 -0.14434437563E+02  0.54367087684E+02  0.40000007994E+02 0.  0.
         12    1    3    3    0    0 -0.33706202142E+02 -0.33643027807E+01  0.14434437563E+02  0.36820912316E+02  0.00000000000E+00 0. -1.
         11    1    4    4    0    0  0.16341230386E+02  0.64927878993E+01 -0.96624867202E+01  0.20063792142E+02  0.51100000000E-03 0. -1.
        -11    1    4    4    0    0  0.24827595349E+02  0.21587449404E+00 -0.70576313111E+01  0.25812133825E+02  0.51100000000E-03 0.  1.
         12    1    4    4    0    0 -0.74626235931E+01 -0.33443596127E+01  0.22856804688E+01  0.84911617177E+01  0.00000000000E+00 0. -1.
</event>
<event>
 8    1  0.2500956E-006  0.9118800E+02  0.7816164E-02  0.1184000E+00
        -11   -1    0    0    0    0  0.00000000000E+00  0.00000000000E+00  0.45593999997E+02  0.45594000000E+02  0.51100000000E-03 0.  1.
         11   -1    0    0    0    0 -0.00000000000E+00 -0.00000000000E+00 -0.45593999997E+02  0.45594000000E+02  0.51100000000E-03 0. -1.
         23    2    1    2    0    0  0.00000000000E+00  0.00000000000E+00  0.00000000000E+00  0.91188000000E+02  0.91188000000E+02 0.  0.
    9900012    2    3    3    0    0 -0.25206480480E+02  0.17011567928E+02 -0.20760924716E+02  0.54367135037E+02  0.40000115944E+02 0.  0.
        -12    1    3    3    0    0  0.25206480480E+02 -0.17011567928E+02  0.20760924716E+02  0.36820864963E+02  0.00000000000E+00 0.  1.
         11    1    4    4    0    0  0.19445255730E+01 -0.58473926473E+01 -0.28179738552E+01  0.67759986264E+01  0.51100000000E-03 0. -1.
        -11    1    4    4    0    0 -0.14481528018E+01 -0.54481768667E+01 -0.81913363820E+00  0.56965566693E+01  0.51100000000E-03 0.  1.
         12    1    4    4    0    0 -0.25702853251E+02  0.28307137442E+02 -0.17123817222E+02  0.41894579741E+02  0.00000000000E+00 0. -1.
</event>
<event>
 8    1  0.2500956E-006  0.9118800E+02  0.7816164E-02  0.1184000E+00
        -11   -1    0    0    0    0  0.00000000000E+00  0.00000000000E+00  0.45593999997E+02  0.45594000000E+02  0.51100000000E-03 0.  1.
         11   -1    0    0    0    0 -0.00000000000E+00 -0.00000000000E+00 -0.45593999997E+02  0.45594000000E+02  0.51100000000E-03 0. -1.
         23    2    1    2    0    0  0.71054273576E-14 -0.44408920985E-15  0.35527136788E-14  0.91188000000E+02  0.91188000000E+02 0.  0.
    9900012    2    3    3    0    0 -0.34817866728E+02  0.22846612573E+01 -0.11759185226E+02  0.54367055447E+02  0.39999934503E+02 0.  0.
        -12    1    3    3    0    0  0.34817866728E+02 -0.22846612573E+01  0.11759185226E+02  0.36820944553E+02  0.00000000000E+00 0.  1.
         11    1    4    4    0    0 -0.34830582090E+02 -0.11210935087E+01 -0.22453764009E+02  0.41455974452E+02  0.51100000000E-03 0.  1.
        -11    1    4    4    0    0 -0.28046863377E+00  0.15427553992E+01 -0.43147349959E+00  0.16263230055E+01  0.51100000000E-03 0. -1.
        -12    1    4    4    0    0  0.29318399508E+00  0.18629993667E+01  0.11126052283E+02  0.11284757990E+02  0.00000000000E+00 0.  1.
</event>
<event>
 8    1  0.2500956E-006  0.9118800E+02  0.7816164E-02  0.1184000E+00
        -11   -1    0    0    0    0  0.00000000000E+00  0.00000000000E+00  0.45593999997E+02  0.45594000000E+02  0.51100000000E-03 0.  1.
         11   -1    0    0    0    0 -0.00000000000E+00 -0.00000000000E+00 -0.45593999997E+02  0.45594000000E+02  0.51100000000E-03 0. -1.
         23    2    1    2    0    0  0.00000000000E+00 -0.17763568394E-14  0.00000000000E+00  0.91188000000E+02  0.91188000000E+02 0.  0.
    9900012    2    3    3    0    0 -0.87824792855E+01 -0.11259636795E+02  0.33939189599E+02  0.54367082659E+02  0.39999996538E+02 0.  0.
         12    1    3    3    0    0  0.87824792855E+01  0.11259636795E+02 -0.33939189599E+02  0.36820917341E+02  0.00000000000E+00 0. -1.
         11    1    4    4    0    0 -0.13848030718E+02 -0.35845709160E+01  0.34399506522E+01  0.14712252179E+02  0.51100000000E-03 0. -1.
        -11    1    4    4    0    0 -0.78095208466E+01 -0.27895881800E+01  0.28549049854E+01  0.87704561344E+01  0.51100000000E-03 0.  1.
        -12    1    4    4    0    0  0.12875072280E+02 -0.48854776992E+01  0.27644333962E+02  0.30884374346E+02  0.00000000000E+00 0.  1.
</event>
<event>
 8    1  0.2500956E-006  0.9118800E+02  0.7816164E-02  0.1184000E+00
        -11   -1    0    0    0    0  0.00000000000E+00  0.00000000000E+00  0.45593999997E+02  0.45594000000E+02  0.51100000000E-03 0.  1.
         11   -1    0    0    0    0 -0.00000000000E+00 -0.00000000000E+00 -0.45593999997E+02  0.45594000000E+02  0.51100000000E-03 0. -1.
         23    2    1    2    0    0  0.88817841970E-15 -0.17763568394E-14 -0.71054273576E-14  0.91188000000E+02  0.91188000000E+02 0.  0.
    9900012    2    3    3    0    0  0.59946184442E+01 -0.10159202341E+02 -0.34880309455E+02  0.54367070759E+02  0.39999969409E+02 0.  0.
        -12    1    3    3    0    0 -0.59946184442E+01  0.10159202341E+02  0.34880309455E+02  0.36820929241E+02  0.00000000000E+00 0.  1.
         11    1    4    4    0    0 -0.19550671951E+00 -0.64028693679E+01 -0.17585663608E+02  0.18716049899E+02  0.51100000000E-03 0.  1.
        -11    1    4    4    0    0  0.17283538203E+02 -0.26727985008E+01 -0.17163439856E+02  0.24504044821E+02  0.51100000000E-03 0. -1.
         12    1    4    4    0    0 -0.11093413039E+02 -0.10835344721E+01 -0.13120599136E+00  0.11146976039E+02  0.00000000000E+00 0. -1.
</event>
<event>
 8    1  0.2500956E-006  0.9118800E+02  0.7816164E-02  0.1184000E+00
        -11   -1    0    0    0    0  0.00000000000E+00  0.00000000000E+00  0.45593999997E+02  0.45594000000E+02  0.51100000000E-03 0.  1.
         11   -1    0    0    0    0 -0.00000000000E+00 -0.00000000000E+00 -0.45593999997E+02  0.45594000000E+02  0.51100000000E-03 0. -1.
         23    2    1    2    0    0  0.00000000000E+00  0.00000000000E+00 -0.88817841970E-15  0.91188000000E+02  0.91188000000E+02 0.  0.
    9900012    2    3    3    0    0  0.20812563400E+02  0.29825101660E+02 -0.57515919251E+01  0.54367078040E+02  0.39999986007E+02 0.  0.
         12    1    3    3    0    0 -0.20812563400E+02 -0.29825101660E+02  0.57515919251E+01  0.36820921960E+02  0.00000000000E+00 0. -1.
         11    1    4    4    0    0  0.79042585500E+00  0.19139697777E+02 -0.48055903356E+01  0.19749595003E+02  0.51100000000E-03 0. -1.
        -11    1    4    4    0    0  0.21278062796E+01  0.69366267960E+01  0.10709154028E+02  0.12935622565E+02  0.51100000000E-03 0.  1.
         12    1    4    4    0    0  0.17894331265E+02  0.37487770873E+01 -0.11655155618E+02  0.21681860473E+02  0.00000000000E+00 0. -1.
</event>
<event>
 8    1  0.2500956E-006  0.9118800E+02  0.7816164E-02  0.1184000E+00
        -11   -1    0    0    0    0  0.00000000000E+00  0.00000000000E+00  0.45593999997E+02  0.45594000000E+02  0.51100000000E-03 0. -1.
         11   -1    0    0    0    0 -0.00000000000E+00 -0.00000000000E+00 -0.45593999997E+02  0.45594000000E+02  0.51100000000E-03 0.  1.
         23    2    1    2    0    0  0.35527136788E-14  0.00000000000E+00 -0.35527136788E-14  0.91188000000E+02  0.91188000000E+02 0.  0.
    9900012    2    3    3    0    0  0.17565656274E+02  0.19311887643E+02 -0.25966876417E+02  0.54367082636E+02  0.39999996485E+02 0.  0.
         12    1    3    3    0    0 -0.17565656274E+02 -0.19311887643E+02  0.25966876417E+02  0.36820917364E+02  0.00000000000E+00 0. -1.
         11    1    4    4    0    0  0.11972870502E+02  0.71716402505E+01  0.10315778499E+01  0.13994506245E+02  0.51100000000E-03 0. -1.
        -11    1    4    4    0    0  0.35243452531E+01  0.16406585801E+02 -0.44913707612E+01  0.17371513425E+02  0.51100000000E-03 0.  1.
        -12    1    4    4    0    0  0.20684405194E+01 -0.42663384083E+01 -0.22507083506E+02  0.23001062965E+02  0.00000000000E+00 0.  1.
</event>
<event>
 8    1  0.2500956E-006  0.9118800E+02  0.7816164E-02  0.1184000E+00
        -11   -1    0    0    0    0  0.00000000000E+00  0.00000000000E+00  0.45593999997E+02  0.45594000000E+02  0.51100000000E-03 0. -1.
         11   -1    0    0    0    0 -0.00000000000E+00 -0.00000000000E+00 -0.45593999997E+02  0.45594000000E+02  0.51100000000E-03 0.  1.
         23    2    1    2    0    0  0.00000000000E+00 -0.17763568394E-14  0.71054273576E-14  0.91188000000E+02  0.91188000000E+02 0.  0.
    9900012    2    3    3    0    0 -0.17515171354E+02  0.13796849576E+02 -0.29302675178E+02  0.54367067661E+02  0.39999962346E+02 0.  0.
         12    1    3    3    0    0  0.17515171354E+02 -0.13796849576E+02  0.29302675178E+02  0.36820932339E+02  0.00000000000E+00 0. -1.
         11    1    4    4    0    0 -0.83414023168E+01 -0.13532655760E+02 -0.11059935612E+02  0.19365793052E+02  0.51100000000E-03 0. -1.
        -11    1    4    4    0    0 -0.26766744720E+01  0.13982058685E+01 -0.28564516889E+01  0.41567875087E+01  0.51100000000E-03 0.  1.
        -12    1    4    4    0    0 -0.64970945648E+01  0.25931299467E+02 -0.15386287876E+02  0.30844487100E+02  0.00000000000E+00 0.  1.
</event>
<event>
 8    1  0.2500956E-006  0.9118800E+02  0.7816164E-02  0.1184000E+00
        -11   -1    0    0    0    0  0.00000000000E+00  0.00000000000E+00  0.45593999997E+02  0.45594000000E+02  0.51100000000E-03 0. -1.
         11   -1    0    0    0    0 -0.00000000000E+00 -0.00000000000E+00 -0.45593999997E+02  0.45594000000E+02  0.51100000000E-03 0.  1.
         23    2    1    2    0    0 -0.35527136788E-14 -0.35527136788E-14 -0.35527136788E-14  0.91188000000E+02  0.91188000000E+02 0.  0.
    9900012    2    3    3    0    0 -0.16297195403E+02 -0.23690962649E+02 -0.22998271960E+02  0.54367071136E+02  0.39999970269E+02 0.  0.
         12    1    3    3    0    0  0.16297195403E+02  0.23690962649E+02  0.22998271960E+02  0.36820928864E+02  0.00000000000E+00 0. -1.
         11    1    4    4    0    0  0.11638800412E+01  0.24047257508E+01 -0.71767172021E+01  0.76578451765E+01  0.51100000000E-03 0. -1.
        -11    1    4    4    0    0 -0.20470231742E+02 -0.50462020695E+01 -0.14126695170E+02  0.25378298989E+02  0.51100000000E-03 0.  1.
        -12    1    4    4    0    0  0.30091562981E+01 -0.21049486330E+02 -0.16948595881E+01  0.21330926970E+02  0.00000000000E+00 0.  1.
</event>
<event>
 8    1  0.2500956E-006  0.9118800E+02  0.7816164E-02  0.1184000E+00
        -11   -1    0    0    0    0  0.00000000000E+00  0.00000000000E+00  0.45593999997E+02  0.45594000000E+02  0.51100000000E-03 0.  1.
         11   -1    0    0    0    0 -0.00000000000E+00 -0.00000000000E+00 -0.45593999997E+02  0.45594000000E+02  0.51100000000E-03 0. -1.
         23    2    1    2    0    0  0.00000000000E+00  0.00000000000E+00  0.00000000000E+00  0.91188000000E+02  0.91188000000E+02 0.  0.
    9900012    2    3    3    0    0  0.64375329517E+01 -0.10998273102E+02  0.34545287876E+02  0.54367071764E+02  0.39999971700E+02 0.  0.
         12    1    3    3    0    0 -0.64375329517E+01  0.10998273102E+02 -0.34545287876E+02  0.36820928236E+02  0.00000000000E+00 0. -1.
         11    1    4    4    0    0  0.48675665204E+01 -0.11758679283E+02 -0.15669631373E+01  0.12822445791E+02  0.51100000000E-03 0. -1.
        -11    1    4    4    0    0  0.90969200253E+01 -0.25764156726E+01  0.84411189500E+01  0.12674555655E+02  0.51100000000E-03 0.  1.
         12    1    4    4    0    0 -0.75269535940E+01  0.33368218537E+01  0.27671132064E+02  0.28870070318E+02  0.00000000000E+00 0. -1.
</event>
<event>
 8    1  0.2500956E-006  0.9118800E+02  0.7816164E-02  0.1184000E+00
        -11   -1    0    0    0    0  0.00000000000E+00  0.00000000000E+00  0.45593999997E+02  0.45594000000E+02  0.51100000000E-03 0. -1.
         11   -1    0    0    0    0 -0.00000000000E+00 -0.00000000000E+00 -0.45593999997E+02  0.45594000000E+02  0.51100000000E-03 0.  1.
         23    2    1    2    0    0  0.13322676296E-14  0.00000000000E+00  0.00000000000E+00  0.91188000000E+02  0.91188000000E+02 0.  0.
    9900012    2    3    3    0    0  0.30723692833E+01 -0.21583441234E+02  0.29673146591E+02  0.54367081799E+02  0.39999994578E+02 0.  0.
        -12    1    3    3    0    0 -0.30723692833E+01  0.21583441234E+02 -0.29673146591E+02  0.36820918201E+02  0.00000000000E+00 0.  1.
         11    1    4    4    0    0  0.44943822955E+01 -0.21014837966E+01  0.16119181554E+02  0.16865459394E+02  0.51100000000E-03 0. -1.
        -11    1    4    4    0    0  0.10513513457E+02 -0.16238153136E+02  0.26355270659E+00  0.19346344429E+02  0.51100000000E-03 0.  1.
         12    1    4    4    0    0 -0.11935526469E+02 -0.32438043012E+01  0.13290412331E+02  0.18155277976E+02  0.00000000000E+00 0. -1.
</event>
<event>
 8    1  0.2500956E-006  0.9118800E+02  0.7816164E-02  0.1184000E+00
        -11   -1    0    0    0    0  0.00000000000E+00  0.00000000000E+00  0.45593999997E+02  0.45594000000E+02  0.51100000000E-03 0.  1.
         11   -1    0    0    0    0 -0.00000000000E+00 -0.00000000000E+00 -0.45593999997E+02  0.45594000000E+02  0.51100000000E-03 0. -1.
         23    2    1    2    0    0 -0.13322676296E-14  0.00000000000E+00  0.71054273576E-14  0.91188000000E+02  0.91188000000E+02 0.  0.
    9900012    2    3    3    0    0  0.31754168362E+01 -0.17565280060E+02  0.32204924428E+02  0.54367088916E+02  0.40000010801E+02 0.  0.
         12    1    3    3    0    0 -0.31754168362E+01  0.17565280060E+02 -0.32204924428E+02  0.36820911084E+02  0.00000000000E+00 0. -1.
         11    1    4    4    0    0  0.14620008449E+02 -0.17190013909E+02  0.29498955324E+02  0.37140672998E+02  0.51100000000E-03 0. -1.
        -11    1    4    4    0    0 -0.32274872452E+01  0.34700451287E+01  0.59365216508E+01  0.75960632360E+01  0.51100000000E-03 0.  1.
         12    1    4    4    0    0 -0.82171043674E+01 -0.38453112789E+01 -0.32305525468E+01  0.96303526817E+01  0.00000000000E+00 0. -1.
</event>
<event>
 8    1  0.2500956E-006  0.9118800E+02  0.7816164E-02  0.1184000E+00
        -11   -1    0    0    0    0  0.00000000000E+00  0.00000000000E+00  0.45593999997E+02  0.45594000000E+02  0.51100000000E-03 0. -1.
         11   -1    0    0    0    0 -0.00000000000E+00 -0.00000000000E+00 -0.45593999997E+02  0.45594000000E+02  0.51100000000E-03 0.  1.
         23    2    1    2    0    0  0.00000000000E+00  0.00000000000E+00  0.00000000000E+00  0.91188000000E+02  0.91188000000E+02 0.  0.
    9900012    2    3    3    0    0  0.27159877159E+02 -0.19066067723E+02  0.15956405042E+02  0.54367072153E+02  0.39999972586E+02 0.  0.
        -12    1    3    3    0    0 -0.27159877159E+02  0.19066067723E+02 -0.15956405042E+02  0.36820927847E+02  0.00000000000E+00 0.  1.
         11    1    4    4    0    0  0.18930581824E+02 -0.11225430913E+02  0.12093559350E+02  0.25112375543E+02  0.51100000000E-03 0. -1.
        -11    1    4    4    0    0 -0.51859210432E+01  0.34056817816E+01  0.90718436460E+01  0.10990486471E+02  0.51100000000E-03 0.  1.
        -12    1    4    4    0    0  0.13415216378E+02 -0.11246318591E+02 -0.52089979543E+01  0.18264210139E+02  0.00000000000E+00 0.  1.
</event>
<event>
 8    1  0.2500956E-006  0.9118800E+02  0.7816164E-02  0.1184000E+00
        -11   -1    0    0    0    0  0.00000000000E+00  0.00000000000E+00  0.45593999997E+02  0.45594000000E+02  0.51100000000E-03 0.  1.
         11   -1    0    0    0    0 -0.00000000000E+00 -0.00000000000E+00 -0.45593999997E+02  0.45594000000E+02  0.51100000000E-03 0. -1.
         23    2    1    2    0    0  0.00000000000E+00  0.00000000000E+00 -0.35527136788E-14  0.91188000000E+02  0.91188000000E+02 0.  0.
    9900012    2    3    3    0    0  0.10374619616E+02 -0.32127993779E+02 -0.14694848851E+02  0.54367091548E+02  0.40000016803E+02 0.  0.
        -12    1    3    3    0    0 -0.10374619616E+02  0.32127993779E+02  0.14694848851E+02  0.36820908452E+02  0.00000000000E+00 0.  1.
         11    1    4    4    0    0 -0.38304037171E+01 -0.63802678303E+01 -0.18391376232E+02  0.19839922635E+02  0.51100000000E-03 0. -1.
        -11    1    4    4    0    0  0.13576321873E+02 -0.12852472115E+02 -0.45071958651E+01  0.19230636232E+02  0.51100000000E-03 0.  1.
         12    1    4    4    0    0  0.62870145980E+00 -0.12895253834E+02  0.82037232456E+01  0.15296532681E+02  0.00000000000E+00 0. -1.
</event>
<event>
 8    1  0.2500956E-006  0.9118800E+02  0.7816164E-02  0.1184000E+00
        -11   -1    0    0    0    0  0.00000000000E+00  0.00000000000E+00  0.45593999997E+02  0.45594000000E+02  0.51100000000E-03 0.  1.
         11   -1    0    0    0    0 -0.00000000000E+00 -0.00000000000E+00 -0.45593999997E+02  0.45594000000E+02  0.51100000000E-03 0. -1.
         23    2    1    2    0    0  0.00000000000E+00  0.35527136788E-14  0.00000000000E+00  0.91188000000E+02  0.91188000000E+02 0.  0.
    9900012    2    3    3    0    0  0.23683859786E+02  0.27889311829E+02 -0.41278764940E+01  0.54367105212E+02  0.40000047951E+02 0.  0.
         12    1    3    3    0    0 -0.23683859786E+02 -0.27889311829E+02  0.41278764940E+01  0.36820894788E+02  0.00000000000E+00 0. -1.
         11    1    4    4    0    0  0.10079198533E+02  0.32546456273E+01 -0.37893017372E+01  0.11249078591E+02  0.51100000000E-03 0. -1.
        -11    1    4    4    0    0 -0.45491920504E+01  0.24534420513E+02 -0.65339281133E+00  0.24961167053E+02  0.51100000000E-03 0.  1.
        -12    1    4    4    0    0  0.18153853304E+02  0.10024568864E+00  0.31481805458E+00  0.18156859568E+02  0.00000000000E+00 0.  1.
</event>
<event>
 8    1  0.2500956E-006  0.9118800E+02  0.7816164E-02  0.1184000E+00
        -11   -1    0    0    0    0  0.00000000000E+00  0.00000000000E+00  0.45593999997E+02  0.45594000000E+02  0.51100000000E-03 0.  1.
         11   -1    0    0    0    0 -0.00000000000E+00 -0.00000000000E+00 -0.45593999997E+02  0.45594000000E+02  0.51100000000E-03 0. -1.
         23    2    1    2    0    0 -0.71054273576E-14  0.00000000000E+00  0.00000000000E+00  0.91188000000E+02  0.91188000000E+02 0.  0.
    9900012    2    3    3    0    0 -0.33853459422E+02  0.10375913699E+02 -0.10102566314E+02  0.54367107207E+02  0.40000052500E+02 0.  0.
         12    1    3    3    0    0  0.33853459422E+02 -0.10375913699E+02  0.10102566314E+02  0.36820892793E+02  0.00000000000E+00 0. -1.
         11    1    4    4    0    0  0.41610718591E+01  0.62817026655E+01 -0.62939082960E+01  0.98177181307E+01  0.51100000000E-03 0. -1.
        -11    1    4    4    0    0 -0.19067877234E+02  0.12320495970E+02  0.27730356893E+01  0.22870686267E+02  0.51100000000E-03 0.  1.
        -12    1    4    4    0    0 -0.18946654048E+02 -0.82262849357E+01 -0.65816937071E+01  0.21678702809E+02  0.00000000000E+00 0.  1.
</event>
<event>
 8    1  0.2500956E-006  0.9118800E+02  0.7816164E-02  0.1184000E+00
        -11   -1    0    0    0    0  0.00000000000E+00  0.00000000000E+00  0.45593999997E+02  0.45594000000E+02  0.51100000000E-03 0.  1.
         11   -1    0    0    0    0 -0.00000000000E+00 -0.00000000000E+00 -0.45593999997E+02  0.45594000000E+02  0.51100000000E-03 0. -1.
         23    2    1    2    0    0  0.00000000000E+00 -0.22204460493E-15 -0.71054273576E-14  0.91188000000E+02  0.91188000000E+02 0.  0.
    9900012    2    3    3    0    0  0.55629551046E+01 -0.14588344618E+01 -0.36369006803E+02  0.54367091221E+02  0.40000016057E+02 0.  0.
        -12    1    3    3    0    0 -0.55629551046E+01  0.14588344618E+01  0.36369006803E+02  0.36820908779E+02  0.00000000000E+00 0.  1.
         11    1    4    4    0    0  0.56307809806E+01 -0.23397913296E+01  0.39737646854E+01  0.72781264041E+01  0.51100000000E-03 0. -1.
        -11    1    4    4    0    0 -0.64330983241E+01  0.28521492225E+01 -0.90820641395E+00  0.70953751407E+01  0.51100000000E-03 0.  1.
         12    1    4    4    0    0  0.63652724481E+01 -0.19711923547E+01 -0.39434565074E+02  0.39993589677E+02  0.00000000000E+00 0. -1.
</event>
<event>
 8    1  0.2500956E-006  0.9118800E+02  0.7816164E-02  0.1184000E+00
        -11   -1    0    0    0    0  0.00000000000E+00  0.00000000000E+00  0.45593999997E+02  0.45594000000E+02  0.51100000000E-03 0.  1.
         11   -1    0    0    0    0 -0.00000000000E+00 -0.00000000000E+00 -0.45593999997E+02  0.45594000000E+02  0.51100000000E-03 0. -1.
         23    2    1    2    0    0  0.17763568394E-14  0.00000000000E+00  0.00000000000E+00  0.91188000000E+02  0.91188000000E+02 0.  0.
    9900012    2    3    3    0    0 -0.10455639610E+02  0.14817178577E+02 -0.32045444388E+02  0.54367086287E+02  0.40000004808E+02 0.  0.
        -12    1    3    3    0    0  0.10455639610E+02 -0.14817178577E+02  0.32045444388E+02  0.36820913713E+02  0.00000000000E+00 0.  1.
         11    1    4    4    0    0 -0.24594676396E+00  0.96375110394E+01 -0.22932350228E+02  0.24876390334E+02  0.51100000000E-03 0. -1.
        -11    1    4    4    0    0 -0.11406451255E+02  0.10635665953E+02  0.32442939276E+01  0.15929531188E+02  0.51100000000E-03 0.  1.
         12    1    4    4    0    0  0.11967584096E+01 -0.54559984161E+01 -0.12357388088E+02  0.13561164765E+02  0.00000000000E+00 0. -1.
</event>
<event>
 8    1  0.2500956E-006  0.9118800E+02  0.7816164E-02  0.1184000E+00
        -11   -1    0    0    0    0  0.00000000000E+00  0.00000000000E+00  0.45593999997E+02  0.45594000000E+02  0.51100000000E-03 0. -1.
         11   -1    0    0    0    0 -0.00000000000E+00 -0.00000000000E+00 -0.45593999997E+02  0.45594000000E+02  0.51100000000E-03 0.  1.
         23    2    1    2    0    0  0.00000000000E+00 -0.71054273576E-14  0.00000000000E+00  0.91188000000E+02  0.91188000000E+02 0.  0.
    9900012    2    3    3    0    0  0.10672444236E+02  0.33261369326E+02 -0.11643048608E+02  0.54367077465E+02  0.39999984697E+02 0.  0.
         12    1    3    3    0    0 -0.10672444236E+02 -0.33261369326E+02  0.11643048608E+02  0.36820922535E+02  0.00000000000E+00 0. -1.
         11    1    4    4    0    0  0.14777431776E+01  0.60919739426E+01 -0.16118331553E+02  0.17294406139E+02  0.51100000000E-03 0. -1.
        -11    1    4    4    0    0  0.52873320439E+01  0.26420494341E+00 -0.59416187304E+01  0.79579217006E+01  0.51100000000E-03 0.  1.
         12    1    4    4    0    0  0.39073690146E+01  0.26905190440E+02  0.10416901675E+02  0.29114749625E+02  0.00000000000E+00 0. -1.
</event>
<event>
 8    1  0.2500956E-006  0.9118800E+02  0.7816164E-02  0.1184000E+00
        -11   -1    0    0    0    0  0.00000000000E+00  0.00000000000E+00  0.45593999997E+02  0.45594000000E+02  0.51100000000E-03 0. -1.
         11   -1    0    0    0    0 -0.00000000000E+00 -0.00000000000E+00 -0.45593999997E+02  0.45594000000E+02  0.51100000000E-03 0.  1.
         23    2    1    2    0    0  0.00000000000E+00  0.35527136788E-14  0.17763568394E-14  0.91188000000E+02  0.91188000000E+02 0.  0.
    9900012    2    3    3    0    0 -0.16351970124E+02 -0.29525563184E+02 -0.14718499369E+02  0.54367081598E+02  0.39999994119E+02 0.  0.
         12    1    3    3    0    0  0.16351970124E+02  0.29525563184E+02  0.14718499369E+02  0.36820918402E+02  0.00000000000E+00 0. -1.
         11    1    4    4    0    0 -0.63502220512E+01 -0.17761117117E+02  0.24822004161E+01  0.19024823797E+02  0.51100000000E-03 0. -1.
        -11    1    4    4    0    0  0.24538245134E+01 -0.42609264873E+01  0.61255277819E+01  0.78548609244E+01  0.51100000000E-03 0.  1.
        -12    1    4    4    0    0 -0.12455572587E+02 -0.75035195795E+01 -0.23326227567E+02  0.27487396877E+02  0.00000000000E+00 0.  1.
</event>
<event>
 8    1  0.2500956E-006  0.9118800E+02  0.7816164E-02  0.1184000E+00
        -11   -1    0    0    0    0  0.00000000000E+00  0.00000000000E+00  0.45593999997E+02  0.45594000000E+02  0.51100000000E-03 0.  1.
         11   -1    0    0    0    0 -0.00000000000E+00 -0.00000000000E+00 -0.45593999997E+02  0.45594000000E+02  0.51100000000E-03 0. -1.
         23    2    1    2    0    0  0.71054273576E-14  0.35527136788E-14 -0.17763568394E-14  0.91188000000E+02  0.91188000000E+02 0.  0.
    9900012    2    3    3    0    0 -0.31380624121E+02 -0.16136652504E+02  0.10518770300E+02  0.54367086745E+02  0.40000005853E+02 0.  0.
        -12    1    3    3    0    0  0.31380624121E+02  0.16136652504E+02 -0.10518770300E+02  0.36820913255E+02  0.00000000000E+00 0.  1.
         11    1    4    4    0    0  0.92887112744E+00  0.27988350834E+01 -0.27999417103E+01  0.40664423317E+01  0.51100000000E-03 0. -1.
        -11    1    4    4    0    0  0.48619476746E+01 -0.57991372503E+00  0.67316706946E+01  0.83240750670E+01  0.51100000000E-03 0.  1.
        -12    1    4    4    0    0 -0.37171442923E+02 -0.18355573862E+02  0.65870413157E+01  0.41976569347E+02  0.00000000000E+00 0.  1.
</event>
<event>
 8    1  0.2500956E-006  0.9118800E+02  0.7816164E-02  0.1184000E+00
        -11   -1    0    0    0    0  0.00000000000E+00  0.00000000000E+00  0.45593999997E+02  0.45594000000E+02  0.51100000000E-03 0. -1.
         11   -1    0    0    0    0 -0.00000000000E+00 -0.00000000000E+00 -0.45593999997E+02  0.45594000000E+02  0.51100000000E-03 0.  1.
         23    2    1    2    0    0  0.00000000000E+00  0.88817841970E-15  0.00000000000E+00  0.91188000000E+02  0.91188000000E+02 0.  0.
    9900012    2    3    3    0    0 -0.30680063373E+02  0.77681225077E+01  0.18819420851E+02  0.54367073653E+02  0.39999976006E+02 0.  0.
        -12    1    3    3    0    0  0.30680063373E+02 -0.77681225077E+01 -0.18819420851E+02  0.36820926347E+02  0.00000000000E+00 0.  1.
         11    1    4    4    0    0  0.32100058962E+01  0.87605164792E+01  0.14736878089E+02  0.17442085968E+02  0.51100000000E-03 0. -1.
        -11    1    4    4    0    0 -0.13945568009E+02  0.38490216583E+01  0.72104553365E+01  0.16164297115E+02  0.51100000000E-03 0.  1.
        -12    1    4    4    0    0 -0.19944501261E+02 -0.48414156298E+01 -0.31279125745E+01  0.20760690569E+02  0.00000000000E+00 0.  1.
</event>
<event>
 8    1  0.2500956E-006  0.9118800E+02  0.7816164E-02  0.1184000E+00
        -11   -1    0    0    0    0  0.00000000000E+00  0.00000000000E+00  0.45593999997E+02  0.45594000000E+02  0.51100000000E-03 0.  1.
         11   -1    0    0    0    0 -0.00000000000E+00 -0.00000000000E+00 -0.45593999997E+02  0.45594000000E+02  0.51100000000E-03 0. -1.
         23    2    1    2    0    0  0.00000000000E+00  0.88817841970E-15 -0.71054273576E-14  0.91188000000E+02  0.91188000000E+02 0.  0.
    9900012    2    3    3    0    0 -0.33657242572E+01 -0.58518716747E+01  0.36196825903E+02  0.54367045268E+02  0.39999911298E+02 0.  0.
         12    1    3    3    0    0  0.33657242572E+01  0.58518716747E+01 -0.36196825903E+02  0.36820954732E+02  0.00000000000E+00 0. -1.
         11    1    4    4    0    0 -0.11933223300E+01 -0.39103262836E+01 -0.10824619111E+01  0.42292308849E+01  0.51100000000E-03 0. -1.
        -11    1    4    4    0    0 -0.96590382025E+01 -0.15057625323E+02  0.15718348250E+02  0.23813768524E+02  0.51100000000E-03 0.  1.
         12    1    4    4    0    0  0.74866362753E+01  0.13116079932E+02  0.21560939565E+02  0.26324045859E+02  0.00000000000E+00 0. -1.
</event>
<event>
 8    1  0.2500956E-006  0.9118800E+02  0.7816164E-02  0.1184000E+00
        -11   -1    0    0    0    0  0.00000000000E+00  0.00000000000E+00  0.45593999997E+02  0.45594000000E+02  0.51100000000E-03 0.  1.
         11   -1    0    0    0    0 -0.00000000000E+00 -0.00000000000E+00 -0.45593999997E+02  0.45594000000E+02  0.51100000000E-03 0. -1.
         23    2    1    2    0    0  0.00000000000E+00  0.00000000000E+00  0.00000000000E+00  0.91188000000E+02  0.91188000000E+02 0.  0.
    9900012    2    3    3    0    0 -0.20734382867E+02  0.28414340751E+02  0.10885312011E+02  0.54367090033E+02  0.40000013348E+02 0.  0.
         12    1    3    3    0    0  0.20734382867E+02 -0.28414340751E+02 -0.10885312011E+02  0.36820909967E+02  0.00000000000E+00 0. -1.
         11    1    4    4    0    0 -0.60134560791E+01  0.14045970305E+02  0.44451843651E+00  0.15285566157E+02  0.51100000000E-03 0. -1.
        -11    1    4    4    0    0 -0.56604125038E+01  0.21794547927E+02  0.14385176146E+02  0.26720327133E+02  0.51100000000E-03 0.  1.
         12    1    4    4    0    0 -0.90605142840E+01 -0.74261774808E+01 -0.39443825714E+01  0.12361196744E+02  0.00000000000E+00 0. -1.
</event>
<event>
 8    1  0.2500956E-006  0.9118800E+02  0.7816164E-02  0.1184000E+00
        -11   -1    0    0    0    0  0.00000000000E+00  0.00000000000E+00  0.45593999997E+02  0.45594000000E+02  0.51100000000E-03 0.  1.
         11   -1    0    0    0    0 -0.00000000000E+00 -0.00000000000E+00 -0.45593999997E+02  0.45594000000E+02  0.51100000000E-03 0. -1.
         23    2    1    2    0    0 -0.35527136788E-14  0.35527136788E-14  0.00000000000E+00  0.91188000000E+02  0.91188000000E+02 0.  0.
    9900012    2    3    3    0    0  0.21318640172E+02 -0.17965693746E+02  0.24052646633E+02  0.54367076864E+02  0.39999983326E+02 0.  0.
         12    1    3    3    0    0 -0.21318640172E+02  0.17965693746E+02 -0.24052646633E+02  0.36820923136E+02  0.00000000000E+00 0. -1.
         11    1    4    4    0    0  0.39787015408E+00 -0.10177832688E+02 -0.47070565203E+01  0.11220648833E+02  0.51100000000E-03 0. -1.
        -11    1    4    4    0    0  0.15070471007E+02 -0.62808431594E+01  0.28900390330E+01  0.16580724141E+02  0.51100000000E-03 0.  1.
         12    1    4    4    0    0  0.58502990114E+01 -0.15070178987E+01  0.25869664120E+02  0.26565703890E+02  0.00000000000E+00 0. -1.
</event>
<event>
 8    1  0.2500956E-006  0.9118800E+02  0.7816164E-02  0.1184000E+00
        -11   -1    0    0    0    0  0.00000000000E+00  0.00000000000E+00  0.45593999997E+02  0.45594000000E+02  0.51100000000E-03 0. -1.
         11   -1    0    0    0    0 -0.00000000000E+00 -0.00000000000E+00 -0.45593999997E+02  0.45594000000E+02  0.51100000000E-03 0.  1.
         23    2    1    2    0    0  0.00000000000E+00  0.00000000000E+00  0.00000000000E+00  0.91188000000E+02  0.91188000000E+02 0.  0.
    9900012    2    3    3    0    0 -0.74751999117E+01  0.11096264733E+02  0.34304118968E+02  0.54367105349E+02  0.40000048264E+02 0.  0.
        -12    1    3    3    0    0  0.74751999117E+01 -0.11096264733E+02 -0.34304118968E+02  0.36820894651E+02  0.00000000000E+00 0.  1.
         11    1    4    4    0    0 -0.25603834210E+01  0.22501478049E+02  0.30920924034E+02  0.38327217757E+02  0.51100000000E-03 0. -1.
        -11    1    4    4    0    0 -0.22243776537E+01 -0.22421889152E+01 -0.31566482604E+01  0.44653886258E+01  0.51100000000E-03 0.  1.
         12    1    4    4    0    0 -0.26904388369E+01 -0.91630244007E+01  0.65398431945E+01  0.11574498966E+02  0.00000000000E+00 0. -1.
</event>
<event>
 8    1  0.2500956E-006  0.9118800E+02  0.7816164E-02  0.1184000E+00
        -11   -1    0    0    0    0  0.00000000000E+00  0.00000000000E+00  0.45593999997E+02  0.45594000000E+02  0.51100000000E-03 0.  1.
         11   -1    0    0    0    0 -0.00000000000E+00 -0.00000000000E+00 -0.45593999997E+02  0.45594000000E+02  0.51100000000E-03 0. -1.
         23    2    1    2    0    0  0.00000000000E+00  0.00000000000E+00 -0.17763568394E-14  0.91188000000E+02  0.91188000000E+02 0.  0.
    9900012    2    3    3    0    0  0.10366510157E+02  0.34132381139E+02  0.91267227628E+01  0.54367067863E+02  0.39999962807E+02 0.  0.
         12    1    3    3    0    0 -0.10366510157E+02 -0.34132381139E+02 -0.91267227628E+01  0.36820932137E+02  0.00000000000E+00 0. -1.
         11    1    4    4    0    0 -0.97709979800E+00  0.39757113493E+01 -0.10029446296E+02  0.10832857334E+02  0.51100000000E-03 0. -1.
        -11    1    4    4    0    0 -0.60595580872E+01  0.14205766700E+02  0.65974488032E+01  0.16794296136E+02  0.51100000000E-03 0.  1.
        -12    1    4    4    0    0  0.17403168042E+02  0.15950903090E+02  0.12558720256E+02  0.26739914393E+02  0.00000000000E+00 0.  1.
</event>
<event>
 8    1  0.2500956E-006  0.9118800E+02  0.7816164E-02  0.1184000E+00
        -11   -1    0    0    0    0  0.00000000000E+00  0.00000000000E+00  0.45593999997E+02  0.45594000000E+02  0.51100000000E-03 0. -1.
         11   -1    0    0    0    0 -0.00000000000E+00 -0.00000000000E+00 -0.45593999997E+02  0.45594000000E+02  0.51100000000E-03 0.  1.
         23    2    1    2    0    0  0.35527136788E-14  0.00000000000E+00  0.88817841970E-15  0.91188000000E+02  0.91188000000E+02 0.  0.
    9900012    2    3    3    0    0 -0.31993911092E+02 -0.17044424254E+02  0.64540521588E+01  0.54367115513E+02  0.40000071435E+02 0.  0.
        -12    1    3    3    0    0  0.31993911092E+02  0.17044424254E+02 -0.64540521588E+01  0.36820884487E+02  0.00000000000E+00 0.  1.
         11    1    4    4    0    0 -0.20234423929E+02 -0.23347250661E-01  0.11110751251E+02  0.23084220811E+02  0.51100000000E-03 0. -1.
        -11    1    4    4    0    0 -0.46203061289E+01  0.68998549458E+00  0.73624340632E+01  0.87194463302E+01  0.51100000000E-03 0.  1.
        -12    1    4    4    0    0 -0.71391810348E+01 -0.17711062498E+02 -0.12019133155E+02  0.22563448372E+02  0.00000000000E+00 0.  1.
</event>
<event>
 8    1  0.2500956E-006  0.9118800E+02  0.7816164E-02  0.1184000E+00
        -11   -1    0    0    0    0  0.00000000000E+00  0.00000000000E+00  0.45593999997E+02  0.45594000000E+02  0.51100000000E-03 0.  1.
         11   -1    0    0    0    0 -0.00000000000E+00 -0.00000000000E+00 -0.45593999997E+02  0.45594000000E+02  0.51100000000E-03 0. -1.
         23    2    1    2    0    0  0.00000000000E+00  0.00000000000E+00  0.00000000000E+00  0.91188000000E+02  0.91188000000E+02 0.  0.
    9900012    2    3    3    0    0 -0.25417760297E+02  0.15018180087E+02 -0.22003917164E+02  0.54367073312E+02  0.39999975228E+02 0.  0.
        -12    1    3    3    0    0  0.25417760297E+02 -0.15018180087E+02  0.22003917164E+02  0.36820926688E+02  0.00000000000E+00 0.  1.
         11    1    4    4    0    0  0.89375141043E-01  0.14299362323E+02 -0.87711004920E+01  0.16775337697E+02  0.51100000000E-03 0. -1.
        -11    1    4    4    0    0 -0.59155975382E+01 -0.32560700433E+01  0.65927120661E+01  0.94371679549E+01  0.51100000000E-03 0.  1.
        -12    1    4    4    0    0 -0.19591537900E+02  0.39748878073E+01 -0.19825528738E+02  0.28154567660E+02  0.00000000000E+00 0.  1.
</event>
<event>
 8    1  0.2500956E-006  0.9118800E+02  0.7816164E-02  0.1184000E+00
        -11   -1    0    0    0    0  0.00000000000E+00  0.00000000000E+00  0.45593999997E+02  0.45594000000E+02  0.51100000000E-03 0.  1.
         11   -1    0    0    0    0 -0.00000000000E+00 -0.00000000000E+00 -0.45593999997E+02  0.45594000000E+02  0.51100000000E-03 0. -1.
         23    2    1    2    0    0  0.35527136788E-14 -0.17763568394E-14  0.17763568394E-14  0.91188000000E+02  0.91188000000E+02 0.  0.
    9900012    2    3    3    0    0  0.30649863925E+02 -0.15010421491E+02  0.13822209344E+02  0.54367076830E+02  0.39999983248E+02 0.  0.
         12    1    3    3    0    0 -0.30649863925E+02  0.15010421491E+02 -0.13822209344E+02  0.36820923170E+02  0.00000000000E+00 0. -1.
         11    1    4    4    0    0  0.11493466772E+02 -0.76367924067E+01  0.29442287028E+01  0.14109885174E+02  0.51100000000E-03 0. -1.
        -11    1    4    4    0    0 -0.47493147929E+01  0.67932397389E+01  0.92513826069E+01  0.12421440237E+02  0.51100000000E-03 0.  1.
        -12    1    4    4    0    0  0.23905711946E+02 -0.14166868824E+02  0.16265980347E+01  0.27835751419E+02  0.00000000000E+00 0.  1.
</event>
<event>
 8    1  0.2500956E-006  0.9118800E+02  0.7816164E-02  0.1184000E+00
        -11   -1    0    0    0    0  0.00000000000E+00  0.00000000000E+00  0.45593999997E+02  0.45594000000E+02  0.51100000000E-03 0. -1.
         11   -1    0    0    0    0 -0.00000000000E+00 -0.00000000000E+00 -0.45593999997E+02  0.45594000000E+02  0.51100000000E-03 0.  1.
         23    2    1    2    0    0  0.88817841970E-15  0.17763568394E-14  0.00000000000E+00  0.91188000000E+02  0.91188000000E+02 0.  0.
    9900012    2    3    3    0    0  0.28343290153E+01 -0.89736385470E+01 -0.35598066535E+02  0.54367055542E+02  0.39999934720E+02 0.  0.
         12    1    3    3    0    0 -0.28343290153E+01  0.89736385470E+01  0.35598066535E+02  0.36820944458E+02  0.00000000000E+00 0. -1.
         11    1    4    4    0    0 -0.42681267842E+01 -0.14104770555E+02 -0.98519083068E+01  0.17726295614E+02  0.51100000000E-03 0. -1.
        -11    1    4    4    0    0 -0.77111756111E+01  0.76479569793E+01 -0.12976525955E+02  0.16921693218E+02  0.51100000000E-03 0.  1.
         12    1    4    4    0    0  0.14813631411E+02 -0.25168249710E+01 -0.12769632273E+02  0.19719066710E+02  0.00000000000E+00 0. -1.
</event>
<event>
 8    1  0.2500956E-006  0.9118800E+02  0.7816164E-02  0.1184000E+00
        -11   -1    0    0    0    0  0.00000000000E+00  0.00000000000E+00  0.45593999997E+02  0.45594000000E+02  0.51100000000E-03 0.  1.
         11   -1    0    0    0    0 -0.00000000000E+00 -0.00000000000E+00 -0.45593999997E+02  0.45594000000E+02  0.51100000000E-03 0. -1.
         23    2    1    2    0    0  0.00000000000E+00 -0.88817841970E-15  0.11102230246E-14  0.91188000000E+02  0.91188000000E+02 0.  0.
    9900012    2    3    3    0    0 -0.36177151363E+02  0.65747270001E+01 -0.19403487814E+01  0.54367105534E+02  0.40000048686E+02 0.  0.
        -12    1    3    3    0    0  0.36177151363E+02 -0.65747270001E+01  0.19403487814E+01  0.36820894466E+02  0.00000000000E+00 0.  1.
         11    1    4    4    0    0 -0.15220667896E+02 -0.13497885904E+02 -0.92367219502E+01  0.22342307126E+02  0.51100000000E-03 0. -1.
        -11    1    4    4    0    0 -0.58443561829E+01  0.33358958062E+01 -0.28367416356E+01  0.73028626846E+01  0.51100000000E-03 0.  1.
        -12    1    4    4    0    0 -0.15112127284E+02  0.16736717098E+02  0.10133114804E+02  0.24721935723E+02  0.00000000000E+00 0.  1.
</event>
<event>
 8    1  0.2500956E-006  0.9118800E+02  0.7816164E-02  0.1184000E+00
        -11   -1    0    0    0    0  0.00000000000E+00  0.00000000000E+00  0.45593999997E+02  0.45594000000E+02  0.51100000000E-03 0.  1.
         11   -1    0    0    0    0 -0.00000000000E+00 -0.00000000000E+00 -0.45593999997E+02  0.45594000000E+02  0.51100000000E-03 0. -1.
         23    2    1    2    0    0  0.00000000000E+00  0.17763568394E-14 -0.88817841970E-15  0.91188000000E+02  0.91188000000E+02 0.  0.
    9900012    2    3    3    0    0 -0.33501914896E+02 -0.13950728692E+02  0.62272965227E+01  0.54367077215E+02  0.39999984128E+02 0.  0.
         12    1    3    3    0    0  0.33501914896E+02  0.13950728692E+02 -0.62272965227E+01  0.36820922785E+02  0.00000000000E+00 0. -1.
         11    1    4    4    0    0  0.32891932480E+01 -0.53371144859E+01  0.12118629403E+01  0.63853109012E+01  0.51100000000E-03 0. -1.
        -11    1    4    4    0    0 -0.21423236942E+02  0.44144942150E+01  0.13949338322E+02  0.25942761614E+02  0.51100000000E-03 0.  1.
        -12    1    4    4    0    0 -0.15367871201E+02 -0.13028108421E+02 -0.89339047396E+01  0.22039004701E+02  0.00000000000E+00 0.  1.
</event>
<event>
 8    1  0.2500956E-006  0.9118800E+02  0.7816164E-02  0.1184000E+00
        -11   -1    0    0    0    0  0.00000000000E+00  0.00000000000E+00  0.45593999997E+02  0.45594000000E+02  0.51100000000E-03 0. -1.
         11   -1    0    0    0    0 -0.00000000000E+00 -0.00000000000E+00 -0.45593999997E+02  0.45594000000E+02  0.51100000000E-03 0.  1.
         23    2    1    2    0    0  0.00000000000E+00 -0.35527136788E-14 -0.35527136788E-14  0.91188000000E+02  0.91188000000E+02 0.  0.
    9900012    2    3    3    0    0 -0.51878703713E+01  0.28469193379E+02  0.22767755066E+02  0.54367086902E+02  0.40000006210E+02 0.  0.
        -12    1    3    3    0    0  0.51878703713E+01 -0.28469193379E+02 -0.22767755066E+02  0.36820913098E+02  0.00000000000E+00 0.  1.
         11    1    4    4    0    0 -0.12160673080E+01  0.43804938716E+01  0.91525267156E+01  0.10219407605E+02  0.51100000000E-03 0. -1.
        -11    1    4    4    0    0 -0.17037352559E+01  0.86765956770E+01 -0.11552965987E+02  0.14548438051E+02  0.51100000000E-03 0.  1.
        -12    1    4    4    0    0 -0.22680678074E+01  0.15412103830E+02  0.25168194338E+02  0.29599241245E+02  0.00000000000E+00 0.  1.
</event>
<event>
 8    1  0.2500956E-006  0.9118800E+02  0.7816164E-02  0.1184000E+00
        -11   -1    0    0    0    0  0.00000000000E+00  0.00000000000E+00  0.45593999997E+02  0.45594000000E+02  0.51100000000E-03 0. -1.
         11   -1    0    0    0    0 -0.00000000000E+00 -0.00000000000E+00 -0.45593999997E+02  0.45594000000E+02  0.51100000000E-03 0.  1.
         23    2    1    2    0    0 -0.17763568394E-14  0.00000000000E+00  0.00000000000E+00  0.91188000000E+02  0.91188000000E+02 0.  0.
    9900012    2    3    3    0    0 -0.53226280314E+01 -0.35709793617E+02 -0.72292698641E+01  0.54367053895E+02  0.39999930964E+02 0.  0.
         12    1    3    3    0    0  0.53226280314E+01  0.35709793617E+02  0.72292698641E+01  0.36820946105E+02  0.00000000000E+00 0. -1.
         11    1    4    4    0    0 -0.87143095035E+01 -0.93716525716E+00  0.38338153385E+01  0.95663791036E+01  0.51100000000E-03 0. -1.
        -11    1    4    4    0    0  0.10250410971E+02 -0.25953502868E+02 -0.16455604929E+02  0.32395094846E+02  0.51100000000E-03 0.  1.
        -12    1    4    4    0    0 -0.68587294989E+01 -0.88191254917E+01  0.53925197269E+01  0.12405579945E+02  0.00000000000E+00 0.  1.
</event>
<event>
 8    1  0.2500956E-006  0.9118800E+02  0.7816164E-02  0.1184000E+00
        -11   -1    0    0    0    0  0.00000000000E+00  0.00000000000E+00  0.45593999997E+02  0.45594000000E+02  0.51100000000E-03 0.  1.
         11   -1    0    0    0    0 -0.00000000000E+00 -0.00000000000E+00 -0.45593999997E+02  0.45594000000E+02  0.51100000000E-03 0. -1.
         23    2    1    2    0    0 -0.35527136788E-14  0.00000000000E+00  0.00000000000E+00  0.91188000000E+02  0.91188000000E+02 0.  0.
    9900012    2    3    3    0    0  0.24075263443E+02  0.26294175007E+02 -0.92075034480E+01  0.54367081097E+02  0.39999992976E+02 0.  0.
        -12    1    3    3    0    0 -0.24075263443E+02 -0.26294175007E+02  0.92075034480E+01  0.36820918903E+02  0.00000000000E+00 0.  1.
         11    1    4    4    0    0  0.11705443414E+02 -0.21372435870E+01 -0.43942599682E+01  0.12684428903E+02  0.51100000000E-03 0. -1.
        -11    1    4    4    0    0 -0.58138291886E+01 -0.66210169757E+00  0.28805196184E+01  0.65219921823E+01  0.51100000000E-03 0.  1.
         12    1    4    4    0    0  0.18183649218E+02  0.29093520291E+02 -0.76937630982E+01  0.35160660011E+02  0.00000000000E+00 0. -1.
</event>
<event>
 8    1  0.2500956E-006  0.9118800E+02  0.7816164E-02  0.1184000E+00
        -11   -1    0    0    0    0  0.00000000000E+00  0.00000000000E+00  0.45593999997E+02  0.45594000000E+02  0.51100000000E-03 0. -1.
         11   -1    0    0    0    0 -0.00000000000E+00 -0.00000000000E+00 -0.45593999997E+02  0.45594000000E+02  0.51100000000E-03 0.  1.
         23    2    1    2    0    0 -0.17763568394E-14  0.00000000000E+00  0.00000000000E+00  0.91188000000E+02  0.91188000000E+02 0.  0.
    9900012    2    3    3    0    0  0.89618555563E+01 -0.17640015769E+02 -0.31053069770E+02  0.54367107107E+02  0.40000052271E+02 0.  0.
         12    1    3    3    0    0 -0.89618555563E+01  0.17640015769E+02  0.31053069770E+02  0.36820892893E+02  0.00000000000E+00 0. -1.
         11    1    4    4    0    0  0.13568181318E+01 -0.46599935389E+01 -0.73501912728E+01  0.88080535439E+01  0.51100000000E-03 0. -1.
        -11    1    4    4    0    0  0.15079032801E+02 -0.13884600022E+02 -0.29594030365E+02  0.35999527518E+02  0.51100000000E-03 0.  1.
         12    1    4    4    0    0 -0.74739953766E+01  0.90457779191E+00  0.58911518685E+01  0.95595260452E+01  0.00000000000E+00 0. -1.
</event>
<event>
 8    1  0.2500956E-006  0.9118800E+02  0.7816164E-02  0.1184000E+00
        -11   -1    0    0    0    0  0.00000000000E+00  0.00000000000E+00  0.45593999997E+02  0.45594000000E+02  0.51100000000E-03 0.  1.
         11   -1    0    0    0    0 -0.00000000000E+00 -0.00000000000E+00 -0.45593999997E+02  0.45594000000E+02  0.51100000000E-03 0. -1.
         23    2    1    2    0    0  0.00000000000E+00 -0.35527136788E-14  0.00000000000E+00  0.91188000000E+02  0.91188000000E+02 0.  0.
    9900012    2    3    3    0    0 -0.30798391508E+02 -0.16955763705E+02  0.10942577023E+02  0.54367097863E+02  0.40000031198E+02 0.  0.
         12    1    3    3    0    0  0.30798391508E+02  0.16955763705E+02 -0.10942577023E+02  0.36820902137E+02  0.00000000000E+00 0. -1.
         11    1    4    4    0    0 -0.32103950392E+02 -0.17876468247E+01  0.48908699369E+01  0.32523528728E+02  0.51100000000E-03 0. -1.
        -11    1    4    4    0    0 -0.26482439096E+01  0.19305014412E+01 -0.75404561534E-02  0.32772074604E+01  0.51100000000E-03 0.  1.
         12    1    4    4    0    0  0.39538027939E+01 -0.17098618321E+02  0.60592475425E+01  0.18566361674E+02  0.00000000000E+00 0. -1.
</event>
<event>
 8    1  0.2500956E-006  0.9118800E+02  0.7816164E-02  0.1184000E+00
        -11   -1    0    0    0    0  0.00000000000E+00  0.00000000000E+00  0.45593999997E+02  0.45594000000E+02  0.51100000000E-03 0.  1.
         11   -1    0    0    0    0 -0.00000000000E+00 -0.00000000000E+00 -0.45593999997E+02  0.45594000000E+02  0.51100000000E-03 0. -1.
         23    2    1    2    0    0  0.22204460493E-15  0.00000000000E+00  0.88817841970E-15  0.91188000000E+02  0.91188000000E+02 0.  0.
    9900012    2    3    3    0    0  0.10005660735E+01 -0.35935097602E+02 -0.79652708632E+01  0.54367110385E+02  0.40000059745E+02 0.  0.
        -12    1    3    3    0    0 -0.10005660735E+01  0.35935097602E+02  0.79652708632E+01  0.36820889615E+02  0.00000000000E+00 0.  1.
         11    1    4    4    0    0 -0.11491601656E+02 -0.32077785250E+02 -0.87571825977E+01  0.35181379485E+02  0.51100000000E-03 0. -1.
        -11    1    4    4    0    0  0.60638529118E+01 -0.10246194127E+01  0.73445314394E+01  0.95792640324E+01  0.51100000000E-03 0.  1.
         12    1    4    4    0    0  0.64283148174E+01 -0.28326929387E+01 -0.65526197048E+01  0.96064668673E+01  0.00000000000E+00 0. -1.
</event>
<event>
 8    1  0.2500956E-006  0.9118800E+02  0.7816164E-02  0.1184000E+00
        -11   -1    0    0    0    0  0.00000000000E+00  0.00000000000E+00  0.45593999997E+02  0.45594000000E+02  0.51100000000E-03 0.  1.
         11   -1    0    0    0    0 -0.00000000000E+00 -0.00000000000E+00 -0.45593999997E+02  0.45594000000E+02  0.51100000000E-03 0. -1.
         23    2    1    2    0    0  0.00000000000E+00  0.00000000000E+00  0.00000000000E+00  0.91188000000E+02  0.91188000000E+02 0.  0.
    9900012    2    3    3    0    0 -0.17291073208E+02 -0.98437636414E+01 -0.30982239883E+02  0.54367080898E+02  0.39999992523E+02 0.  0.
        -12    1    3    3    0    0  0.17291073208E+02  0.98437636414E+01  0.30982239883E+02  0.36820919102E+02  0.00000000000E+00 0.  1.
         11    1    4    4    0    0 -0.19747212764E+02  0.14068355834E+01 -0.99169800704E+01  0.22142224194E+02  0.51100000000E-03 0. -1.
        -11    1    4    4    0    0  0.56049615643E+01  0.51718249887E+01 -0.57727409863E+01  0.95649310822E+01  0.51100000000E-03 0.  1.
         12    1    4    4    0    0 -0.31488220089E+01 -0.16422424214E+02 -0.15292518827E+02  0.22659925621E+02  0.00000000000E+00 0. -1.
</event>
<event>
 8    1  0.2500956E-006  0.9118800E+02  0.7816164E-02  0.1184000E+00
        -11   -1    0    0    0    0  0.00000000000E+00  0.00000000000E+00  0.45593999997E+02  0.45594000000E+02  0.51100000000E-03 0.  1.
         11   -1    0    0    0    0 -0.00000000000E+00 -0.00000000000E+00 -0.45593999997E+02  0.45594000000E+02  0.51100000000E-03 0. -1.
         23    2    1    2    0    0 -0.71054273576E-14 -0.53290705182E-14 -0.44408920985E-15  0.91188000000E+02  0.91188000000E+02 0.  0.
    9900012    2    3    3    0    0 -0.34439045342E+02 -0.12564209194E+02 -0.34454883659E+01  0.54367101222E+02  0.40000038856E+02 0.  0.
         12    1    3    3    0    0  0.34439045342E+02  0.12564209194E+02  0.34454883659E+01  0.36820898778E+02  0.00000000000E+00 0. -1.
         11    1    4    4    0    0 -0.19052590868E+01  0.54366428053E+01  0.35353659093E+01  0.67591352667E+01  0.51100000000E-03 0. -1.
        -11    1    4    4    0    0 -0.27722517401E-01 -0.34769188761E+00  0.77752639507E+01  0.77830834475E+01  0.51100000000E-03 0.  1.
        -12    1    4    4    0    0 -0.32506063738E+02 -0.17653160112E+02 -0.14756118226E+02  0.39824882508E+02  0.00000000000E+00 0.  1.
</event>
<event>
 8    1  0.2500956E-006  0.9118800E+02  0.7816164E-02  0.1184000E+00
        -11   -1    0    0    0    0  0.00000000000E+00  0.00000000000E+00  0.45593999997E+02  0.45594000000E+02  0.51100000000E-03 0.  1.
         11   -1    0    0    0    0 -0.00000000000E+00 -0.00000000000E+00 -0.45593999997E+02  0.45594000000E+02  0.51100000000E-03 0. -1.
         23    2    1    2    0    0  0.00000000000E+00  0.00000000000E+00  0.00000000000E+00  0.91188000000E+02  0.91188000000E+02 0.  0.
    9900012    2    3    3    0    0  0.29111720385E+02 -0.12626926974E+02  0.18677475886E+02  0.54367086730E+02  0.40000005818E+02 0.  0.
         12    1    3    3    0    0 -0.29111720385E+02  0.12626926974E+02 -0.18677475886E+02  0.36820913270E+02  0.00000000000E+00 0. -1.
         11    1    4    4    0    0 -0.18639323923E+01 -0.16671955103E+02  0.10836173602E+02  0.19971254080E+02  0.51100000000E-03 0. -1.
        -11    1    4    4    0    0  0.89879350107E+01  0.68523027279E+01  0.20624289005E+01  0.11488718016E+02  0.51100000000E-03 0.  1.
        -12    1    4    4    0    0  0.21987717767E+02 -0.28072745985E+01  0.57788733832E+01  0.22907114634E+02  0.00000000000E+00 0.  1.
</event>
<event>
 8    1  0.2500956E-006  0.9118800E+02  0.7816164E-02  0.1184000E+00
        -11   -1    0    0    0    0  0.00000000000E+00  0.00000000000E+00  0.45593999997E+02  0.45594000000E+02  0.51100000000E-03 0. -1.
         11   -1    0    0    0    0 -0.00000000000E+00 -0.00000000000E+00 -0.45593999997E+02  0.45594000000E+02  0.51100000000E-03 0.  1.
         23    2    1    2    0    0  0.26645352591E-14  0.35527136788E-14  0.00000000000E+00  0.91188000000E+02  0.91188000000E+02 0.  0.
    9900012    2    3    3    0    0  0.62247317713E+01  0.24970499361E+02  0.26334489641E+02  0.54367102827E+02  0.40000042514E+02 0.  0.
        -12    1    3    3    0    0 -0.62247317713E+01 -0.24970499361E+02 -0.26334489641E+02  0.36820897173E+02  0.00000000000E+00 0.  1.
         11    1    4    4    0    0  0.18360499173E+01 -0.52020219965E+01  0.73166103277E+01  0.91632362787E+01  0.51100000000E-03 0. -1.
        -11    1    4    4    0    0 -0.67595525401E+01  0.63977023408E+01 -0.41455330469E+01  0.10188600998E+02  0.51100000000E-03 0.  1.
        -12    1    4    4    0    0  0.11148234394E+02  0.23774819017E+02  0.23163412360E+02  0.35015265551E+02  0.00000000000E+00 0.  1.
</event>
<event>
 8    1  0.2500956E-006  0.9118800E+02  0.7816164E-02  0.1184000E+00
        -11   -1    0    0    0    0  0.00000000000E+00  0.00000000000E+00  0.45593999997E+02  0.45594000000E+02  0.51100000000E-03 0.  1.
         11   -1    0    0    0    0 -0.00000000000E+00 -0.00000000000E+00 -0.45593999997E+02  0.45594000000E+02  0.51100000000E-03 0. -1.
         23    2    1    2    0    0 -0.88817841970E-15 -0.17763568394E-14 -0.71054273576E-14  0.91188000000E+02  0.91188000000E+02 0.  0.
    9900012    2    3    3    0    0  0.56967967177E+01  0.14423863017E+02  0.33395785870E+02  0.54367084326E+02  0.40000000338E+02 0.  0.
         12    1    3    3    0    0 -0.56967967177E+01 -0.14423863017E+02 -0.33395785870E+02  0.36820915674E+02  0.00000000000E+00 0. -1.
         11    1    4    4    0    0 -0.12911035070E+01  0.19855156326E+02  0.19129906020E+02  0.27601584838E+02  0.51100000000E-03 0. -1.
        -11    1    4    4    0    0  0.18004235141E+01  0.24477808934E+01  0.16739569001E+02  0.17013122192E+02  0.51100000000E-03 0.  1.
         12    1    4    4    0    0  0.51874767106E+01 -0.78790742019E+01 -0.24736891505E+01  0.97523772956E+01  0.00000000000E+00 0. -1.
</event>
<event>
 8    1  0.2500956E-006  0.9118800E+02  0.7816164E-02  0.1184000E+00
        -11   -1    0    0    0    0  0.00000000000E+00  0.00000000000E+00  0.45593999997E+02  0.45594000000E+02  0.51100000000E-03 0. -1.
         11   -1    0    0    0    0 -0.00000000000E+00 -0.00000000000E+00 -0.45593999997E+02  0.45594000000E+02  0.51100000000E-03 0.  1.
         23    2    1    2    0    0 -0.17763568394E-14  0.00000000000E+00  0.00000000000E+00  0.91188000000E+02  0.91188000000E+02 0.  0.
    9900012    2    3    3    0    0 -0.57579612998E+01 -0.36144629944E+02  0.40240592769E+01  0.54367062408E+02  0.39999950371E+02 0.  0.
         12    1    3    3    0    0  0.57579612998E+01  0.36144629944E+02 -0.40240592769E+01  0.36820937592E+02  0.00000000000E+00 0. -1.
         11    1    4    4    0    0 -0.16582349188E+02 -0.19780081892E+01  0.31708811703E+01  0.16998273696E+02  0.51100000000E-03 0. -1.
        -11    1    4    4    0    0  0.11708118941E+02 -0.20123038960E+02  0.86777999144E+00  0.23297420211E+02  0.51100000000E-03 0.  1.
        -12    1    4    4    0    0 -0.88373105300E+00 -0.14043582795E+02 -0.14601884805E-01  0.14071368501E+02  0.00000000000E+00 0.  1.
</event>
<event>
 8    1  0.2500956E-006  0.9118800E+02  0.7816164E-02  0.1184000E+00
        -11   -1    0    0    0    0  0.00000000000E+00  0.00000000000E+00  0.45593999997E+02  0.45594000000E+02  0.51100000000E-03 0.  1.
         11   -1    0    0    0    0 -0.00000000000E+00 -0.00000000000E+00 -0.45593999997E+02  0.45594000000E+02  0.51100000000E-03 0. -1.
         23    2    1    2    0    0  0.00000000000E+00  0.17763568394E-14  0.00000000000E+00  0.91188000000E+02  0.91188000000E+02 0.  0.
    9900012    2    3    3    0    0  0.31049117232E+01  0.14632745884E+02  0.33645470240E+02  0.54367144543E+02  0.40000137615E+02 0.  0.
         12    1    3    3    0    0 -0.31049117232E+01 -0.14632745884E+02 -0.33645470240E+02  0.36820855457E+02  0.00000000000E+00 0. -1.
         11    1    4    4    0    0  0.11788716066E+01 -0.89653157221E+01  0.15624523912E+01  0.91764852748E+01  0.51100000000E-03 0. -1.
        -11    1    4    4    0    0  0.33708059172E+01  0.24954787280E+02  0.17961839138E+02  0.30931075090E+02  0.51100000000E-03 0.  1.
         12    1    4    4    0    0 -0.14447658005E+01 -0.13567256741E+01  0.14121178710E+02  0.14259584179E+02  0.00000000000E+00 0. -1.
</event>
<event>
 8    1  0.2500956E-006  0.9118800E+02  0.7816164E-02  0.1184000E+00
        -11   -1    0    0    0    0  0.00000000000E+00  0.00000000000E+00  0.45593999997E+02  0.45594000000E+02  0.51100000000E-03 0. -1.
         11   -1    0    0    0    0 -0.00000000000E+00 -0.00000000000E+00 -0.45593999997E+02  0.45594000000E+02  0.51100000000E-03 0.  1.
         23    2    1    2    0    0  0.17763568394E-14  0.00000000000E+00  0.17763568394E-14  0.91188000000E+02  0.91188000000E+02 0.  0.
    9900012    2    3    3    0    0 -0.11775514949E+02 -0.31282043676E+02 -0.15445036911E+02  0.54367106827E+02  0.40000051634E+02 0.  0.
         12    1    3    3    0    0  0.11775514949E+02  0.31282043676E+02  0.15445036911E+02  0.36820893173E+02  0.00000000000E+00 0. -1.
         11    1    4    4    0    0 -0.82431374715E+01 -0.42132218415E+01  0.31246384652E+01  0.97705639274E+01  0.51100000000E-03 0.  1.
        -11    1    4    4    0    0 -0.39057295140E+01  0.54022620535E+01 -0.80716557682E+01  0.10468561765E+02  0.51100000000E-03 0. -1.
        -12    1    4    4    0    0  0.37335203693E+00 -0.32471083888E+02 -0.10498019608E+02  0.34127981134E+02  0.00000000000E+00 0.  1.
</event>
<event>
 8    1  0.2500956E-006  0.9118800E+02  0.7816164E-02  0.1184000E+00
        -11   -1    0    0    0    0  0.00000000000E+00  0.00000000000E+00  0.45593999997E+02  0.45594000000E+02  0.51100000000E-03 0.  1.
         11   -1    0    0    0    0 -0.00000000000E+00 -0.00000000000E+00 -0.45593999997E+02  0.45594000000E+02  0.51100000000E-03 0. -1.
         23    2    1    2    0    0  0.00000000000E+00 -0.17763568394E-14 -0.35527136788E-14  0.91188000000E+02  0.91188000000E+02 0.  0.
    9900012    2    3    3    0    0  0.33400937514E+02  0.80515019667E+01  0.13241324214E+02  0.54367055176E+02  0.39999933885E+02 0.  0.
         12    1    3    3    0    0 -0.33400937514E+02 -0.80515019667E+01 -0.13241324214E+02  0.36820944824E+02  0.00000000000E+00 0. -1.
         11    1    4    4    0    0  0.12264363359E+01  0.36974412967E+00  0.10589167370E+02  0.10666364079E+02  0.51100000000E-03 0.  1.
        -11    1    4    4    0    0  0.36235727795E+02  0.63299694506E+01  0.71705146705E+01  0.37476829681E+02  0.51100000000E-03 0. -1.
         12    1    4    4    0    0 -0.40612266165E+01  0.13517883864E+01 -0.45183578267E+01  0.62238614157E+01  0.00000000000E+00 0. -1.
</event>
<event>
 8    1  0.2500956E-006  0.9118800E+02  0.7816164E-02  0.1184000E+00
        -11   -1    0    0    0    0  0.00000000000E+00  0.00000000000E+00  0.45593999997E+02  0.45594000000E+02  0.51100000000E-03 0.  1.
         11   -1    0    0    0    0 -0.00000000000E+00 -0.00000000000E+00 -0.45593999997E+02  0.45594000000E+02  0.51100000000E-03 0. -1.
         23    2    1    2    0    0 -0.17763568394E-14  0.00000000000E+00 -0.88817841970E-15  0.91188000000E+02  0.91188000000E+02 0.  0.
    9900012    2    3    3    0    0 -0.85029175476E+01 -0.35403336738E+02 -0.54848727101E+01  0.54367086274E+02  0.40000004778E+02 0.  0.
         12    1    3    3    0    0  0.85029175476E+01  0.35403336738E+02  0.54848727101E+01  0.36820913726E+02  0.00000000000E+00 0. -1.
         11    1    4    4    0    0 -0.11204446276E+02 -0.25743714834E+02  0.21326853641E+01  0.28157180557E+02  0.51100000000E-03 0. -1.
        -11    1    4    4    0    0  0.10825102671E+01 -0.26001910800E+01  0.82769388397E+01  0.87430280194E+01  0.51100000000E-03 0.  1.
         12    1    4    4    0    0  0.16190184611E+01 -0.70594308241E+01 -0.15894496914E+02  0.17466877697E+02  0.00000000000E+00 0. -1.
</event>
<event>
 8    1  0.2500956E-006  0.9118800E+02  0.7816164E-02  0.1184000E+00
        -11   -1    0    0    0    0  0.00000000000E+00  0.00000000000E+00  0.45593999997E+02  0.45594000000E+02  0.51100000000E-03 0.  1.
         11   -1    0    0    0    0 -0.00000000000E+00 -0.00000000000E+00 -0.45593999997E+02  0.45594000000E+02  0.51100000000E-03 0. -1.
         23    2    1    2    0    0 -0.35527136788E-14  0.88817841970E-15  0.00000000000E+00  0.91188000000E+02  0.91188000000E+02 0.  0.
    9900012    2    3    3    0    0  0.31279824517E+02  0.22949331471E+01  0.19289548125E+02  0.54367071076E+02  0.39999970133E+02 0.  0.
        -12    1    3    3    0    0 -0.31279824517E+02 -0.22949331471E+01 -0.19289548125E+02  0.36820928924E+02  0.00000000000E+00 0.  1.
         11    1    4    4    0    0  0.67976840581E+01  0.52945806182E+01  0.30344499229E+00  0.86216687248E+01  0.51100000000E-03 0. -1.
        -11    1    4    4    0    0  0.49446738076E+01  0.12801635677E+02 -0.82384107240E+00  0.13748104940E+02  0.51100000000E-03 0.  1.
         12    1    4    4    0    0  0.19537466651E+02 -0.15801283148E+02  0.19809944205E+02  0.31997297412E+02  0.00000000000E+00 0. -1.
</event>
<event>
 8    1  0.2500956E-006  0.9118800E+02  0.7816164E-02  0.1184000E+00
        -11   -1    0    0    0    0  0.00000000000E+00  0.00000000000E+00  0.45593999997E+02  0.45594000000E+02  0.51100000000E-03 0.  1.
         11   -1    0    0    0    0 -0.00000000000E+00 -0.00000000000E+00 -0.45593999997E+02  0.45594000000E+02  0.51100000000E-03 0. -1.
         23    2    1    2    0    0  0.00000000000E+00  0.00000000000E+00  0.00000000000E+00  0.91188000000E+02  0.91188000000E+02 0.  0.
    9900012    2    3    3    0    0 -0.43592944154E+01  0.17758993904E+02 -0.31959254678E+02  0.54367091920E+02  0.40000017650E+02 0.  0.
         12    1    3    3    0    0  0.43592944154E+01 -0.17758993904E+02  0.31959254678E+02  0.36820908080E+02  0.00000000000E+00 0. -1.
         11    1    4    4    0    0 -0.13945592637E+02  0.33099660453E+01 -0.96367187567E+01  0.17271415051E+02  0.51100000000E-03 0. -1.
        -11    1    4    4    0    0  0.82886896927E+01  0.12101429721E+02 -0.55837012332E-01  0.14667995642E+02  0.51100000000E-03 0.  1.
        -12    1    4    4    0    0  0.12976085291E+01  0.23475981372E+01 -0.22266698909E+02  0.22427681227E+02  0.00000000000E+00 0.  1.
</event>
<event>
 8    1  0.2500956E-006  0.9118800E+02  0.7816164E-02  0.1184000E+00
        -11   -1    0    0    0    0  0.00000000000E+00  0.00000000000E+00  0.45593999997E+02  0.45594000000E+02  0.51100000000E-03 0. -1.
         11   -1    0    0    0    0 -0.00000000000E+00 -0.00000000000E+00 -0.45593999997E+02  0.45594000000E+02  0.51100000000E-03 0.  1.
         23    2    1    2    0    0  0.17763568394E-14 -0.71054273576E-14 -0.17763568394E-14  0.91188000000E+02  0.91188000000E+02 0.  0.
    9900012    2    3    3    0    0  0.67552095418E+01 -0.34486466198E+02  0.10992222509E+02  0.54367106984E+02  0.40000051992E+02 0.  0.
         12    1    3    3    0    0 -0.67552095418E+01  0.34486466198E+02 -0.10992222509E+02  0.36820893016E+02  0.00000000000E+00 0. -1.
         11    1    4    4    0    0 -0.30569411185E+01 -0.34424983153E+01 -0.63248738258E+01  0.78230245319E+01  0.51100000000E-03 0.  1.
        -11    1    4    4    0    0  0.57625658386E+01  0.43767462521E+01  0.89224679310E+00  0.72910340419E+01  0.51100000000E-03 0. -1.
        -12    1    4    4    0    0  0.40495848217E+01 -0.35420714135E+02  0.16424849542E+02  0.39253048411E+02  0.00000000000E+00 0.  1.
</event>
<event>
 8    1  0.2500956E-006  0.9118800E+02  0.7816164E-02  0.1184000E+00
        -11   -1    0    0    0    0  0.00000000000E+00  0.00000000000E+00  0.45593999997E+02  0.45594000000E+02  0.51100000000E-03 0.  1.
         11   -1    0    0    0    0 -0.00000000000E+00 -0.00000000000E+00 -0.45593999997E+02  0.45594000000E+02  0.51100000000E-03 0. -1.
         23    2    1    2    0    0  0.88817841970E-15  0.00000000000E+00  0.00000000000E+00  0.91188000000E+02  0.91188000000E+02 0.  0.
    9900012    2    3    3    0    0 -0.32823320360E+01 -0.12628997080E+02  0.34431306037E+02  0.54367080589E+02  0.39999991820E+02 0.  0.
         12    1    3    3    0    0  0.32823320360E+01  0.12628997080E+02 -0.34431306037E+02  0.36820919411E+02  0.00000000000E+00 0. -1.
         11    1    4    4    0    0 -0.26750784719E+01 -0.38593242738E+01  0.14024752535E+02  0.14790000426E+02  0.51100000000E-03 0. -1.
        -11    1    4    4    0    0 -0.69211201361E+01  0.43996706003E+00  0.26126422235E+02  0.27031193352E+02  0.51100000000E-03 0.  1.
         12    1    4    4    0    0  0.63138665720E+01 -0.92096398658E+01 -0.57198687335E+01  0.12545886811E+02  0.00000000000E+00 0. -1.
</event>
<event>
 8    1  0.2500956E-006  0.9118800E+02  0.7816164E-02  0.1184000E+00
        -11   -1    0    0    0    0  0.00000000000E+00  0.00000000000E+00  0.45593999997E+02  0.45594000000E+02  0.51100000000E-03 0.  1.
         11   -1    0    0    0    0 -0.00000000000E+00 -0.00000000000E+00 -0.45593999997E+02  0.45594000000E+02  0.51100000000E-03 0. -1.
         23    2    1    2    0    0  0.22204460493E-14 -0.66613381478E-15 -0.71054273576E-14  0.91188000000E+02  0.91188000000E+02 0.  0.
    9900012    2    3    3    0    0 -0.20943290241E+01  0.54502312995E+00  0.36757267779E+02  0.54367082047E+02  0.39999995143E+02 0.  0.
         12    1    3    3    0    0  0.20943290241E+01 -0.54502312995E+00 -0.36757267779E+02  0.36820917953E+02  0.00000000000E+00 0. -1.
         11    1    4    4    0    0  0.10305115403E+02  0.13746635503E+02  0.20846190698E+02  0.27013497700E+02  0.51100000000E-03 0. -1.
        -11    1    4    4    0    0  0.10603696031E+01  0.17069316064E+01  0.24763043797E+01  0.31890567330E+01  0.51100000000E-03 0.  1.
        -12    1    4    4    0    0 -0.13459814030E+02 -0.14908543979E+02  0.13434772702E+02  0.24164527615E+02  0.00000000000E+00 0.  1.
</event>
<event>
 8    1  0.2500956E-006  0.9118800E+02  0.7816164E-02  0.1184000E+00
        -11   -1    0    0    0    0  0.00000000000E+00  0.00000000000E+00  0.45593999997E+02  0.45594000000E+02  0.51100000000E-03 0.  1.
         11   -1    0    0    0    0 -0.00000000000E+00 -0.00000000000E+00 -0.45593999997E+02  0.45594000000E+02  0.51100000000E-03 0. -1.
         23    2    1    2    0    0  0.71054273576E-14 -0.30791341699E-15 -0.13322676296E-14  0.91188000000E+02  0.91188000000E+02 0.  0.
    9900012    2    3    3    0    0 -0.36638243313E+02  0.42504558166E-02  0.36630541510E+01  0.54367097555E+02  0.40000030497E+02 0.  0.
         12    1    3    3    0    0  0.36638243313E+02 -0.42504558166E-02 -0.36630541510E+01  0.36820902445E+02  0.00000000000E+00 0. -1.
         11    1    4    4    0    0 -0.13168140145E+02 -0.33319483666E+01 -0.68841251762E+01  0.15228032522E+02  0.51100000000E-03 0. -1.
        -11    1    4    4    0    0 -0.26945808574E+02  0.15008705013E+01 -0.93399408202E+00  0.27003732283E+02  0.51100000000E-03 0.  1.
         12    1    4    4    0    0  0.34757054062E+01  0.18353283211E+01  0.11481173409E+02  0.12135332751E+02  0.00000000000E+00 0. -1.
</event>
<event>
 8    1  0.2500956E-006  0.9118800E+02  0.7816164E-02  0.1184000E+00
        -11   -1    0    0    0    0  0.00000000000E+00  0.00000000000E+00  0.45593999997E+02  0.45594000000E+02  0.51100000000E-03 0.  1.
         11   -1    0    0    0    0 -0.00000000000E+00 -0.00000000000E+00 -0.45593999997E+02  0.45594000000E+02  0.51100000000E-03 0. -1.
         23    2    1    2    0    0  0.00000000000E+00  0.00000000000E+00  0.00000000000E+00  0.91188000000E+02  0.91188000000E+02 0.  0.
    9900012    2    3    3    0    0 -0.21698477423E+01 -0.11408003628E+02 -0.34941771636E+02  0.54367106596E+02  0.40000051106E+02 0.  0.
        -12    1    3    3    0    0  0.21698477423E+01  0.11408003628E+02  0.34941771636E+02  0.36820893404E+02  0.00000000000E+00 0.  1.
         11    1    4    4    0    0 -0.77723271919E+01 -0.28739641110E+01 -0.20284960035E+01  0.85313267424E+01  0.51100000000E-03 0. -1.
        -11    1    4    4    0    0 -0.53796702284E+00 -0.19054416507E+02 -0.24451864138E+02  0.31004094198E+02  0.51100000000E-03 0.  1.
        -12    1    4    4    0    0  0.61404464724E+01  0.10520376990E+02 -0.84614114944E+01  0.14831685655E+02  0.00000000000E+00 0.  1.
</event>
<event>
 8    1  0.2500956E-006  0.9118800E+02  0.7816164E-02  0.1184000E+00
        -11   -1    0    0    0    0  0.00000000000E+00  0.00000000000E+00  0.45593999997E+02  0.45594000000E+02  0.51100000000E-03 0.  1.
         11   -1    0    0    0    0 -0.00000000000E+00 -0.00000000000E+00 -0.45593999997E+02  0.45594000000E+02  0.51100000000E-03 0. -1.
         23    2    1    2    0    0  0.00000000000E+00  0.00000000000E+00  0.17763568394E-14  0.91188000000E+02  0.91188000000E+02 0.  0.
    9900012    2    3    3    0    0  0.24326235389E+02 -0.24909624362E+02 -0.11980157552E+02  0.54367091686E+02  0.40000017117E+02 0.  0.
         12    1    3    3    0    0 -0.24326235389E+02  0.24909624362E+02  0.11980157552E+02  0.36820908314E+02  0.00000000000E+00 0. -1.
         11    1    4    4    0    0  0.14996604784E+01 -0.85064347978E+01 -0.12840918582E+02  0.15475710155E+02  0.51100000000E-03 0. -1.
        -11    1    4    4    0    0  0.64830460257E+01  0.60005224597E+01  0.60119574901E+01  0.10685494312E+02  0.51100000000E-03 0.  1.
        -12    1    4    4    0    0  0.16343528885E+02 -0.22403712024E+02 -0.51511964609E+01  0.28205887220E+02  0.00000000000E+00 0.  1.
</event>
<event>
 8    1  0.2500956E-006  0.9118800E+02  0.7816164E-02  0.1184000E+00
        -11   -1    0    0    0    0  0.00000000000E+00  0.00000000000E+00  0.45593999997E+02  0.45594000000E+02  0.51100000000E-03 0.  1.
         11   -1    0    0    0    0 -0.00000000000E+00 -0.00000000000E+00 -0.45593999997E+02  0.45594000000E+02  0.51100000000E-03 0. -1.
         23    2    1    2    0    0  0.71054273576E-14  0.00000000000E+00  0.00000000000E+00  0.91188000000E+02  0.91188000000E+02 0.  0.
    9900012    2    3    3    0    0  0.35435508925E+02 -0.94088278575E+01  0.34024089658E+01  0.54367112976E+02  0.40000065652E+02 0.  0.
         12    1    3    3    0    0 -0.35435508925E+02  0.94088278575E+01 -0.34024089658E+01  0.36820887024E+02  0.00000000000E+00 0. -1.
         11    1    4    4    0    0  0.11542470602E+01 -0.35108699577E+01 -0.20636579159E+01  0.42328688134E+01  0.51100000000E-03 0. -1.
        -11    1    4    4    0    0  0.20994714501E+02 -0.14095413239E+02  0.17218664698E+02  0.30593154882E+02  0.51100000000E-03 0.  1.
         12    1    4    4    0    0  0.13286547364E+02  0.81974553394E+01 -0.11752597816E+02  0.19541089281E+02  0.00000000000E+00 0. -1.
</event>
<event>
 8    1  0.2500956E-006  0.9118800E+02  0.7816164E-02  0.1184000E+00
        -11   -1    0    0    0    0  0.00000000000E+00  0.00000000000E+00  0.45593999997E+02  0.45594000000E+02  0.51100000000E-03 0. -1.
         11   -1    0    0    0    0 -0.00000000000E+00 -0.00000000000E+00 -0.45593999997E+02  0.45594000000E+02  0.51100000000E-03 0.  1.
         23    2    1    2    0    0  0.00000000000E+00 -0.71054273576E-14  0.35527136788E-14  0.91188000000E+02  0.91188000000E+02 0.  0.
    9900012    2    3    3    0    0 -0.11407282359E+02 -0.23947063733E+02  0.25538197359E+02  0.54366980506E+02  0.39999763658E+02 0.  0.
        -12    1    3    3    0    0  0.11407282359E+02  0.23947063733E+02 -0.25538197359E+02  0.36821019494E+02  0.00000000000E+00 0.  1.
         11    1    4    4    0    0 -0.53956402122E+01 -0.21787618947E+02  0.20338837743E+02  0.30289958628E+02  0.51100000000E-03 0. -1.
        -11    1    4    4    0    0 -0.76134479012E+01  0.39149060238E+01  0.12050395331E+02  0.14781850562E+02  0.51100000000E-03 0.  1.
        -12    1    4    4    0    0  0.16018057542E+01 -0.60743508091E+01 -0.68510357149E+01  0.92951713159E+01  0.00000000000E+00 0.  1.
</event>
<event>
 8    1  0.2500956E-006  0.9118800E+02  0.7816164E-02  0.1184000E+00
        -11   -1    0    0    0    0  0.00000000000E+00  0.00000000000E+00  0.45593999997E+02  0.45594000000E+02  0.51100000000E-03 0.  1.
         11   -1    0    0    0    0 -0.00000000000E+00 -0.00000000000E+00 -0.45593999997E+02  0.45594000000E+02  0.51100000000E-03 0. -1.
         23    2    1    2    0    0  0.71054273576E-14  0.00000000000E+00  0.00000000000E+00  0.91188000000E+02  0.91188000000E+02 0.  0.
    9900012    2    3    3    0    0  0.33006688690E+02 -0.81668714651E+01 -0.14129404919E+02  0.54367090571E+02  0.40000014574E+02 0.  0.
         12    1    3    3    0    0 -0.33006688690E+02  0.81668714651E+01  0.14129404919E+02  0.36820909429E+02  0.00000000000E+00 0. -1.
         11    1    4    4    0    0 -0.22463945778E+00 -0.40649301638E+01  0.19401284926E+01  0.45097914532E+01  0.51100000000E-03 0. -1.
        -11    1    4    4    0    0  0.14109710845E+02 -0.15543884545E+02  0.21103913730E+01  0.21098579072E+02  0.51100000000E-03 0.  1.
         12    1    4    4    0    0  0.19121617303E+02  0.11441943243E+02 -0.18179924785E+02  0.28758720045E+02  0.00000000000E+00 0. -1.
</event>
<event>
 8    1  0.2500956E-006  0.9118800E+02  0.7816164E-02  0.1184000E+00
        -11   -1    0    0    0    0  0.00000000000E+00  0.00000000000E+00  0.45593999997E+02  0.45594000000E+02  0.51100000000E-03 0. -1.
         11   -1    0    0    0    0 -0.00000000000E+00 -0.00000000000E+00 -0.45593999997E+02  0.45594000000E+02  0.51100000000E-03 0.  1.
         23    2    1    2    0    0 -0.35527136788E-14  0.35527136788E-14  0.35527136788E-14  0.91188000000E+02  0.91188000000E+02 0.  0.
    9900012    2    3    3    0    0  0.19133582293E+02 -0.21912522204E+02 -0.22572704754E+02  0.54367087455E+02  0.40000007472E+02 0.  0.
         12    1    3    3    0    0 -0.19133582293E+02  0.21912522204E+02  0.22572704754E+02  0.36820912545E+02  0.00000000000E+00 0. -1.
         11    1    4    4    0    0  0.88007076840E+01 -0.87676838207E+01  0.51908769133E+01  0.13463652503E+02  0.51100000000E-03 0. -1.
        -11    1    4    4    0    0  0.12260700444E+02 -0.19531595072E+02 -0.18940683216E+02  0.29842209408E+02  0.51100000000E-03 0.  1.
         12    1    4    4    0    0 -0.19278258349E+01  0.63867566886E+01 -0.88228984517E+01  0.11061225544E+02  0.00000000000E+00 0. -1.
</event>
<event>
 8    1  0.2500956E-006  0.9118800E+02  0.7816164E-02  0.1184000E+00
        -11   -1    0    0    0    0  0.00000000000E+00  0.00000000000E+00  0.45593999997E+02  0.45594000000E+02  0.51100000000E-03 0. -1.
         11   -1    0    0    0    0 -0.00000000000E+00 -0.00000000000E+00 -0.45593999997E+02  0.45594000000E+02  0.51100000000E-03 0.  1.
         23    2    1    2    0    0  0.00000000000E+00  0.00000000000E+00 -0.17763568394E-14  0.91188000000E+02  0.91188000000E+02 0.  0.
    9900012    2    3    3    0    0 -0.41315290097E+01  0.35019158980E+02  0.10600517213E+02  0.54367054971E+02  0.39999933418E+02 0.  0.
        -12    1    3    3    0    0  0.41315290097E+01 -0.35019158980E+02 -0.10600517213E+02  0.36820945029E+02  0.00000000000E+00 0.  1.
         11    1    4    4    0    0  0.38189730025E+01  0.28765581193E+02  0.99168485197E+01  0.30665731705E+02  0.51100000000E-03 0. -1.
        -11    1    4    4    0    0 -0.12355273666E+01  0.62165292597E+01 -0.95496132806E+01  0.11461539076E+02  0.51100000000E-03 0.  1.
         12    1    4    4    0    0 -0.67149746456E+01  0.37048527154E-01  0.10233281974E+02  0.12239784191E+02  0.00000000000E+00 0. -1.
</event>
<event>
 8    1  0.2500956E-006  0.9118800E+02  0.7816164E-02  0.1184000E+00
        -11   -1    0    0    0    0  0.00000000000E+00  0.00000000000E+00  0.45593999997E+02  0.45594000000E+02  0.51100000000E-03 0. -1.
         11   -1    0    0    0    0 -0.00000000000E+00 -0.00000000000E+00 -0.45593999997E+02  0.45594000000E+02  0.51100000000E-03 0.  1.
         23    2    1    2    0    0  0.00000000000E+00  0.00000000000E+00  0.00000000000E+00  0.91188000000E+02  0.91188000000E+02 0.  0.
    9900012    2    3    3    0    0  0.65002856966E+01  0.79740027177E+01  0.35354561254E+02  0.54367035389E+02  0.39999888775E+02 0.  0.
        -12    1    3    3    0    0 -0.65002856966E+01 -0.79740027177E+01 -0.35354561254E+02  0.36820964611E+02  0.00000000000E+00 0.  1.
         11    1    4    4    0    0  0.90553770289E+01 -0.66789293581E+01  0.31816877633E+02  0.33747913314E+02  0.51100000000E-03 0. -1.
        -11    1    4    4    0    0  0.54261976944E+01  0.86535231267E+01  0.69509601820E+00  0.10237687369E+02  0.51100000000E-03 0.  1.
         12    1    4    4    0    0 -0.79812890267E+01  0.59994089491E+01  0.28425876024E+01  0.10381434705E+02  0.00000000000E+00 0. -1.
</event>
<event>
 8    1  0.2500956E-006  0.9118800E+02  0.7816164E-02  0.1184000E+00
        -11   -1    0    0    0    0  0.00000000000E+00  0.00000000000E+00  0.45593999997E+02  0.45594000000E+02  0.51100000000E-03 0.  1.
         11   -1    0    0    0    0 -0.00000000000E+00 -0.00000000000E+00 -0.45593999997E+02  0.45594000000E+02  0.51100000000E-03 0. -1.
         23    2    1    2    0    0  0.00000000000E+00  0.17763568394E-14 -0.35527136788E-14  0.91188000000E+02  0.91188000000E+02 0.  0.
    9900012    2    3    3    0    0 -0.18365280462E+02  0.10940236326E+02  0.29979801086E+02  0.54367343155E+02  0.40000590387E+02 0.  0.
         12    1    3    3    0    0  0.18365280462E+02 -0.10940236326E+02 -0.29979801086E+02  0.36820656845E+02  0.00000000000E+00 0. -1.
         11    1    4    4    0    0 -0.39341232881E+01  0.17605885607E+02  0.17859429885E+02  0.25385109221E+02  0.51100000000E-03 0. -1.
        -11    1    4    4    0    0 -0.16355986249E+02  0.27845022261E+01  0.88128460560E+01  0.18786644051E+02  0.51100000000E-03 0.  1.
        -12    1    4    4    0    0  0.19248290754E+01 -0.94501515076E+01  0.33075251451E+01  0.10195589883E+02  0.00000000000E+00 0.  1.
</event>
<event>
 8    1  0.2500956E-006  0.9118800E+02  0.7816164E-02  0.1184000E+00
        -11   -1    0    0    0    0  0.00000000000E+00  0.00000000000E+00  0.45593999997E+02  0.45594000000E+02  0.51100000000E-03 0. -1.
         11   -1    0    0    0    0 -0.00000000000E+00 -0.00000000000E+00 -0.45593999997E+02  0.45594000000E+02  0.51100000000E-03 0.  1.
         23    2    1    2    0    0 -0.17763568394E-14  0.00000000000E+00  0.00000000000E+00  0.91188000000E+02  0.91188000000E+02 0.  0.
    9900012    2    3    3    0    0 -0.11900372182E+02 -0.19781323409E+02 -0.28685554189E+02  0.54367073436E+02  0.39999975512E+02 0.  0.
         12    1    3    3    0    0  0.11900372182E+02  0.19781323409E+02  0.28685554189E+02  0.36820926564E+02  0.00000000000E+00 0. -1.
         11    1    4    4    0    0 -0.16244501186E+02 -0.19989867189E+02 -0.36707878712E+01  0.26018326097E+02  0.51100000000E-03 0. -1.
        -11    1    4    4    0    0  0.10588187402E+01 -0.52632238982E+01 -0.18357132371E+02  0.19126079893E+02  0.51100000000E-03 0.  1.
         12    1    4    4    0    0  0.32853102645E+01  0.54717676776E+01 -0.66576339476E+01  0.92226674467E+01  0.00000000000E+00 0. -1.
</event>
<event>
 8    1  0.2500956E-006  0.9118800E+02  0.7816164E-02  0.1184000E+00
        -11   -1    0    0    0    0  0.00000000000E+00  0.00000000000E+00  0.45593999997E+02  0.45594000000E+02  0.51100000000E-03 0. -1.
         11   -1    0    0    0    0 -0.00000000000E+00 -0.00000000000E+00 -0.45593999997E+02  0.45594000000E+02  0.51100000000E-03 0.  1.
         23    2    1    2    0    0  0.71054273576E-14  0.88817841970E-15  0.00000000000E+00  0.91188000000E+02  0.91188000000E+02 0.  0.
    9900012    2    3    3    0    0  0.34508889574E+02  0.40205052505E+01  0.12196249660E+02  0.54367130539E+02  0.40000105689E+02 0.  0.
         12    1    3    3    0    0 -0.34508889574E+02 -0.40205052505E+01 -0.12196249660E+02  0.36820869461E+02  0.00000000000E+00 0. -1.
         11    1    4    4    0    0 -0.36229147578E+01  0.91660768220E+01 -0.10586896041E+00  0.98566568443E+01  0.51100000000E-03 0. -1.
        -11    1    4    4    0    0 -0.56646027825E+00  0.30704009785E+01  0.15207698751E+00  0.31259185989E+01  0.51100000000E-03 0.  1.
        -12    1    4    4    0    0  0.38698264610E+02 -0.82159725500E+01  0.12150041633E+02  0.41384555096E+02  0.00000000000E+00 0.  1.
</event>
<event>
 8    1  0.2500956E-006  0.9118800E+02  0.7816164E-02  0.1184000E+00
        -11   -1    0    0    0    0  0.00000000000E+00  0.00000000000E+00  0.45593999997E+02  0.45594000000E+02  0.51100000000E-03 0.  1.
         11   -1    0    0    0    0 -0.00000000000E+00 -0.00000000000E+00 -0.45593999997E+02  0.45594000000E+02  0.51100000000E-03 0. -1.
         23    2    1    2    0    0  0.35527136788E-14  0.00000000000E+00  0.00000000000E+00  0.91188000000E+02  0.91188000000E+02 0.  0.
    9900012    2    3    3    0    0  0.21111846738E+02 -0.67360725867E+01 -0.29405700675E+02  0.54367082321E+02  0.39999995766E+02 0.  0.
        -12    1    3    3    0    0 -0.21111846738E+02  0.67360725867E+01  0.29405700675E+02  0.36820917679E+02  0.00000000000E+00 0.  1.
         11    1    4    4    0    0 -0.12256762591E+01 -0.11397007011E+02 -0.16961684169E+02  0.20471755694E+02  0.51100000000E-03 0. -1.
        -11    1    4    4    0    0 -0.27172407234E+01 -0.37439667644E+01  0.13343148205E+00  0.46280112903E+01  0.51100000000E-03 0.  1.
         12    1    4    4    0    0  0.25054763720E+02  0.84049011890E+01 -0.12577447988E+02  0.29267315336E+02  0.00000000000E+00 0. -1.
</event>
<event>
 8    1  0.2500956E-006  0.9118800E+02  0.7816164E-02  0.1184000E+00
        -11   -1    0    0    0    0  0.00000000000E+00  0.00000000000E+00  0.45593999997E+02  0.45594000000E+02  0.51100000000E-03 0. -1.
         11   -1    0    0    0    0 -0.00000000000E+00 -0.00000000000E+00 -0.45593999997E+02  0.45594000000E+02  0.51100000000E-03 0.  1.
         23    2    1    2    0    0 -0.35527136788E-14 -0.44408920985E-15 -0.35527136788E-14  0.91188000000E+02  0.91188000000E+02 0.  0.
    9900012    2    3    3    0    0 -0.19877383497E+02 -0.20318047965E+01 -0.30927986180E+02  0.54367096500E+02  0.40000028091E+02 0.  0.
         12    1    3    3    0    0  0.19877383497E+02  0.20318047965E+01  0.30927986180E+02  0.36820903500E+02  0.00000000000E+00 0. -1.
         11    1    4    4    0    0 -0.20641843036E+02  0.57133257335E+01 -0.66422706202E+00  0.21428228408E+02  0.51100000000E-03 0. -1.
        -11    1    4    4    0    0  0.35770785752E+01 -0.91748655317E+01 -0.22992812471E+02  0.25012858178E+02  0.51100000000E-03 0.  1.
         12    1    4    4    0    0 -0.28126190363E+01  0.14297350017E+01 -0.72709466472E+01  0.79260099145E+01  0.00000000000E+00 0. -1.
</event>
<event>
 8    1  0.2500956E-006  0.9118800E+02  0.7816164E-02  0.1184000E+00
        -11   -1    0    0    0    0  0.00000000000E+00  0.00000000000E+00  0.45593999997E+02  0.45594000000E+02  0.51100000000E-03 0. -1.
         11   -1    0    0    0    0 -0.00000000000E+00 -0.00000000000E+00 -0.45593999997E+02  0.45594000000E+02  0.51100000000E-03 0.  1.
         23    2    1    2    0    0  0.00000000000E+00  0.00000000000E+00 -0.17763568394E-14  0.91188000000E+02  0.91188000000E+02 0.  0.
    9900012    2    3    3    0    0  0.14521533479E+02  0.30001222191E+02 -0.15647097303E+02  0.54367083098E+02  0.39999997537E+02 0.  0.
         12    1    3    3    0    0 -0.14521533479E+02 -0.30001222191E+02  0.15647097303E+02  0.36820916902E+02  0.00000000000E+00 0. -1.
         11    1    4    4    0    0  0.95412930272E+01  0.16415745778E+02  0.84082452764E+01  0.20765634375E+02  0.51100000000E-03 0. -1.
        -11    1    4    4    0    0  0.43490569971E+01  0.29741442473E+01  0.18625705898E+01  0.55882913517E+01  0.51100000000E-03 0.  1.
        -12    1    4    4    0    0  0.63118345485E+00  0.10611332165E+02 -0.25917913169E+02  0.28013157371E+02  0.00000000000E+00 0.  1.
</event>
<event>
 8    1  0.2500956E-006  0.9118800E+02  0.7816164E-02  0.1184000E+00
        -11   -1    0    0    0    0  0.00000000000E+00  0.00000000000E+00  0.45593999997E+02  0.45594000000E+02  0.51100000000E-03 0.  1.
         11   -1    0    0    0    0 -0.00000000000E+00 -0.00000000000E+00 -0.45593999997E+02  0.45594000000E+02  0.51100000000E-03 0. -1.
         23    2    1    2    0    0  0.00000000000E+00  0.00000000000E+00 -0.88817841970E-15  0.91188000000E+02  0.91188000000E+02 0.  0.
    9900012    2    3    3    0    0 -0.35289885223E+02  0.92454827602E+01 -0.49925191243E+01  0.54367079347E+02  0.39999988987E+02 0.  0.
         12    1    3    3    0    0  0.35289885223E+02 -0.92454827602E+01  0.49925191243E+01  0.36820920653E+02  0.00000000000E+00 0. -1.
         11    1    4    4    0    0 -0.37648219560E+01  0.28331290564E+01 -0.34702283426E+01  0.58517509877E+01  0.51100000000E-03 0. -1.
        -11    1    4    4    0    0 -0.16229135545E+02 -0.10479819328E+02 -0.12714057896E+02  0.23127012823E+02  0.51100000000E-03 0.  1.
        -12    1    4    4    0    0 -0.15295927722E+02  0.16892173032E+02  0.11191767114E+02  0.25388315536E+02  0.00000000000E+00 0.  1.
</event>
<event>
 8    1  0.2500956E-006  0.9118800E+02  0.7816164E-02  0.1184000E+00
        -11   -1    0    0    0    0  0.00000000000E+00  0.00000000000E+00  0.45593999997E+02  0.45594000000E+02  0.51100000000E-03 0.  1.
         11   -1    0    0    0    0 -0.00000000000E+00 -0.00000000000E+00 -0.45593999997E+02  0.45594000000E+02  0.51100000000E-03 0. -1.
         23    2    1    2    0    0  0.00000000000E+00  0.00000000000E+00 -0.17763568394E-14  0.91188000000E+02  0.91188000000E+02 0.  0.
    9900012    2    3    3    0    0 -0.17131991305E+02 -0.30748983010E+02  0.10805653240E+02  0.54367255518E+02  0.40000390603E+02 0.  0.
        -12    1    3    3    0    0  0.17131991305E+02  0.30748983010E+02 -0.10805653240E+02  0.36820744482E+02  0.00000000000E+00 0.  1.
         11    1    4    4    0    0 -0.15820633630E+02 -0.58920519567E+01 -0.55218395974E+01  0.17762303835E+02  0.51100000000E-03 0. -1.
        -11    1    4    4    0    0  0.47950733100E+01 -0.24525676452E+02  0.79327123901E+01  0.26218876017E+02  0.51100000000E-03 0.  1.
        -12    1    4    4    0    0 -0.61064309853E+01 -0.33125460178E+00  0.83947804477E+01  0.10386075667E+02  0.00000000000E+00 0.  1.
</event>
<event>
 8    1  0.2500956E-006  0.9118800E+02  0.7816164E-02  0.1184000E+00
        -11   -1    0    0    0    0  0.00000000000E+00  0.00000000000E+00  0.45593999997E+02  0.45594000000E+02  0.51100000000E-03 0.  1.
         11   -1    0    0    0    0 -0.00000000000E+00 -0.00000000000E+00 -0.45593999997E+02  0.45594000000E+02  0.51100000000E-03 0. -1.
         23    2    1    2    0    0 -0.88817841970E-15  0.00000000000E+00  0.00000000000E+00  0.91188000000E+02  0.91188000000E+02 0.  0.
    9900012    2    3    3    0    0 -0.49727197660E+01  0.30741296922E+02 -0.19647494790E+02  0.54367091132E+02  0.40000015854E+02 0.  0.
        -12    1    3    3    0    0  0.49727197660E+01 -0.30741296922E+02  0.19647494790E+02  0.36820908868E+02  0.00000000000E+00 0.  1.
         11    1    4    4    0    0 -0.66734368895E+01 -0.13623561460E+01 -0.37820671228E+01  0.77906871436E+01  0.51100000000E-03 0. -1.
        -11    1    4    4    0    0  0.13959511837E+02  0.19128676626E+02 -0.16151590942E+01  0.23735689991E+02  0.51100000000E-03 0.  1.
         12    1    4    4    0    0 -0.12258794714E+02  0.12974976442E+02 -0.14250268573E+02  0.22840713997E+02  0.00000000000E+00 0. -1.
</event>
<event>
 8    1  0.2500956E-006  0.9118800E+02  0.7816164E-02  0.1184000E+00
        -11   -1    0    0    0    0  0.00000000000E+00  0.00000000000E+00  0.45593999997E+02  0.45594000000E+02  0.51100000000E-03 0.  1.
         11   -1    0    0    0    0 -0.00000000000E+00 -0.00000000000E+00 -0.45593999997E+02  0.45594000000E+02  0.51100000000E-03 0. -1.
         23    2    1    2    0    0  0.71054273576E-14 -0.17763568394E-14 -0.17763568394E-14  0.91188000000E+02  0.91188000000E+02 0.  0.
    9900012    2    3    3    0    0  0.35179697303E+02 -0.10662229841E+02 -0.21178428340E+01  0.54367088744E+02  0.40000010409E+02 0.  0.
         12    1    3    3    0    0 -0.35179697303E+02  0.10662229841E+02  0.21178428340E+01  0.36820911256E+02  0.00000000000E+00 0. -1.
         11    1    4    4    0    0  0.12473802260E+01  0.74059656923E-01  0.95365454374E+01  0.96180632875E+01  0.51100000000E-03 0. -1.
        -11    1    4    4    0    0  0.20612281325E+02 -0.18560437979E+02 -0.68397969404E+01  0.28568143479E+02  0.51100000000E-03 0.  1.
         12    1    4    4    0    0  0.13320035752E+02  0.78241484811E+01 -0.48145913310E+01  0.16180881977E+02  0.00000000000E+00 0. -1.
</event>
<event>
 8    1  0.2500956E-006  0.9118800E+02  0.7816164E-02  0.1184000E+00
        -11   -1    0    0    0    0  0.00000000000E+00  0.00000000000E+00  0.45593999997E+02  0.45594000000E+02  0.51100000000E-03 0.  1.
         11   -1    0    0    0    0 -0.00000000000E+00 -0.00000000000E+00 -0.45593999997E+02  0.45594000000E+02  0.51100000000E-03 0. -1.
         23    2    1    2    0    0  0.00000000000E+00  0.00000000000E+00  0.17763568394E-14  0.91188000000E+02  0.91188000000E+02 0.  0.
    9900012    2    3    3    0    0  0.32333667399E+02  0.82049575843E+01  0.15588262536E+02  0.54367064307E+02  0.39999954700E+02 0.  0.
         12    1    3    3    0    0 -0.32333667399E+02 -0.82049575843E+01 -0.15588262536E+02  0.36820935693E+02  0.00000000000E+00 0. -1.
         11    1    4    4    0    0 -0.24365100007E+01 -0.24301920055E+01  0.86521868154E+01  0.93114312067E+01  0.51100000000E-03 0. -1.
        -11    1    4    4    0    0  0.23438970765E+02 -0.21674046422E+01  0.13030609283E+02  0.26905013882E+02  0.51100000000E-03 0.  1.
        -12    1    4    4    0    0  0.11331206635E+02  0.12802554232E+02 -0.60945335624E+01  0.18150619218E+02  0.00000000000E+00 0.  1.
</event>
<event>
 8    1  0.2500956E-006  0.9118800E+02  0.7816164E-02  0.1184000E+00
        -11   -1    0    0    0    0  0.00000000000E+00  0.00000000000E+00  0.45593999997E+02  0.45594000000E+02  0.51100000000E-03 0.  1.
         11   -1    0    0    0    0 -0.00000000000E+00 -0.00000000000E+00 -0.45593999997E+02  0.45594000000E+02  0.51100000000E-03 0. -1.
         23    2    1    2    0    0  0.00000000000E+00  0.00000000000E+00 -0.88817841970E-15  0.91188000000E+02  0.91188000000E+02 0.  0.
    9900012    2    3    3    0    0  0.28512246843E+02  0.22400975659E+02 -0.64053303392E+01  0.54367079489E+02  0.39999989312E+02 0.  0.
        -12    1    3    3    0    0 -0.28512246843E+02 -0.22400975659E+02  0.64053303392E+01  0.36820920511E+02  0.00000000000E+00 0.  1.
         11    1    4    4    0    0  0.26166616347E+02  0.19791396606E+02 -0.11156585035E+02  0.34653435336E+02  0.51100000000E-03 0. -1.
        -11    1    4    4    0    0 -0.31653030261E-01  0.96775265765E+01  0.69783162954E+01  0.11931153387E+02  0.51100000000E-03 0.  1.
        -12    1    4    4    0    0  0.23772835268E+01 -0.70679475242E+01 -0.22270616000E+01  0.77824907672E+01  0.00000000000E+00 0.  1.
</event>
<event>
 8    1  0.2500956E-006  0.9118800E+02  0.7816164E-02  0.1184000E+00
        -11   -1    0    0    0    0  0.00000000000E+00  0.00000000000E+00  0.45593999997E+02  0.45594000000E+02  0.51100000000E-03 0. -1.
         11   -1    0    0    0    0 -0.00000000000E+00 -0.00000000000E+00 -0.45593999997E+02  0.45594000000E+02  0.51100000000E-03 0.  1.
         23    2    1    2    0    0  0.00000000000E+00  0.00000000000E+00  0.00000000000E+00  0.91188000000E+02  0.91188000000E+02 0.  0.
    9900012    2    3    3    0    0 -0.93332370335E+01  0.29618067060E+02  0.19784827262E+02  0.54367101047E+02  0.40000038457E+02 0.  0.
        -12    1    3    3    0    0  0.93332370335E+01 -0.29618067060E+02 -0.19784827262E+02  0.36820898953E+02  0.00000000000E+00 0.  1.
         11    1    4    4    0    0  0.30781706040E+01 -0.67640249194E+01  0.11666343881E+02  0.13832235799E+02  0.51100000000E-03 0. -1.
        -11    1    4    4    0    0  0.12795462780E+01  0.86027497880E+00 -0.23655470056E+00  0.15598942605E+01  0.51100000000E-03 0.  1.
         12    1    4    4    0    0 -0.13690953915E+02  0.35521817001E+02  0.83550380817E+01  0.38974970988E+02  0.00000000000E+00 0. -1.
</event>
<event>
 8    1  0.2500956E-006  0.9118800E+02  0.7816164E-02  0.1184000E+00
        -11   -1    0    0    0    0  0.00000000000E+00  0.00000000000E+00  0.45593999997E+02  0.45594000000E+02  0.51100000000E-03 0.  1.
         11   -1    0    0    0    0 -0.00000000000E+00 -0.00000000000E+00 -0.45593999997E+02  0.45594000000E+02  0.51100000000E-03 0. -1.
         23    2    1    2    0    0  0.17763568394E-14  0.00000000000E+00 -0.17763568394E-14  0.91188000000E+02  0.91188000000E+02 0.  0.
    9900012    2    3    3    0    0  0.45978983169E+01  0.35020095501E+02 -0.10403470533E+02  0.54367082616E+02  0.39999996440E+02 0.  0.
         12    1    3    3    0    0 -0.45978983169E+01 -0.35020095501E+02  0.10403470533E+02  0.36820917384E+02  0.00000000000E+00 0. -1.
         11    1    4    4    0    0 -0.11490248469E+02  0.14870279994E+02 -0.66340499329E+01  0.19928915067E+02  0.51100000000E-03 0. -1.
        -11    1    4    4    0    0 -0.87976342810E+00  0.16937134959E+02 -0.20496963960E+01  0.17083377297E+02  0.51100000000E-03 0.  1.
        -12    1    4    4    0    0  0.16967910214E+02  0.32126805481E+01 -0.17197242040E+01  0.17354790252E+02  0.00000000000E+00 0.  1.
</event>
<event>
 8    1  0.2500956E-006  0.9118800E+02  0.7816164E-02  0.1184000E+00
        -11   -1    0    0    0    0  0.00000000000E+00  0.00000000000E+00  0.45593999997E+02  0.45594000000E+02  0.51100000000E-03 0. -1.
         11   -1    0    0    0    0 -0.00000000000E+00 -0.00000000000E+00 -0.45593999997E+02  0.45594000000E+02  0.51100000000E-03 0.  1.
         23    2    1    2    0    0  0.00000000000E+00  0.00000000000E+00  0.00000000000E+00  0.91188000000E+02  0.91188000000E+02 0.  0.
    9900012    2    3    3    0    0 -0.10811654972E+02 -0.98613785512E+01  0.33788219360E+02  0.54367048930E+02  0.39999919645E+02 0.  0.
        -12    1    3    3    0    0  0.10811654972E+02  0.98613785512E+01 -0.33788219360E+02  0.36820951070E+02  0.00000000000E+00 0.  1.
         11    1    4    4    0    0 -0.16278504474E+02 -0.11007815014E+02  0.69404401603E+01  0.20840619213E+02  0.51100000000E-03 0. -1.
        -11    1    4    4    0    0  0.63064402963E-01 -0.68263978009E+00  0.27743175410E+02  0.27751644208E+02  0.51100000000E-03 0.  1.
         12    1    4    4    0    0  0.54037850997E+01  0.18290762425E+01 -0.89539620934E+00  0.57747855091E+01  0.00000000000E+00 0. -1.
</event>
<event>
 8    1  0.2500956E-006  0.9118800E+02  0.7816164E-02  0.1184000E+00
        -11   -1    0    0    0    0  0.00000000000E+00  0.00000000000E+00  0.45593999997E+02  0.45594000000E+02  0.51100000000E-03 0.  1.
         11   -1    0    0    0    0 -0.00000000000E+00 -0.00000000000E+00 -0.45593999997E+02  0.45594000000E+02  0.51100000000E-03 0. -1.
         23    2    1    2    0    0 -0.17763568394E-14 -0.17763568394E-14  0.00000000000E+00  0.91188000000E+02  0.91188000000E+02 0.  0.
    9900012    2    3    3    0    0  0.13327131303E+02  0.93704525568E+01 -0.33020614553E+02  0.54367098390E+02  0.40000032400E+02 0.  0.
        -12    1    3    3    0    0 -0.13327131303E+02 -0.93704525568E+01  0.33020614553E+02  0.36820901610E+02  0.00000000000E+00 0.  1.
         11    1    4    4    0    0  0.12317255838E+02 -0.54463360530E+01 -0.24848333463E+02  0.28263351605E+02  0.51100000000E-03 0. -1.
        -11    1    4    4    0    0  0.92535268908E+01  0.10132664232E+02 -0.21216839443E+00  0.13723835471E+02  0.51100000000E-03 0.  1.
        -12    1    4    4    0    0 -0.82436514258E+01  0.46841243780E+01 -0.79601126958E+01  0.12379911314E+02  0.00000000000E+00 0.  1.
</event>
<event>
 8    1  0.2500956E-006  0.9118800E+02  0.7816164E-02  0.1184000E+00
        -11   -1    0    0    0    0  0.00000000000E+00  0.00000000000E+00  0.45593999997E+02  0.45594000000E+02  0.51100000000E-03 0. -1.
         11   -1    0    0    0    0 -0.00000000000E+00 -0.00000000000E+00 -0.45593999997E+02  0.45594000000E+02  0.51100000000E-03 0.  1.
         23    2    1    2    0    0  0.35527136788E-14  0.66613381478E-15  0.00000000000E+00  0.91188000000E+02  0.91188000000E+02 0.  0.
    9900012    2    3    3    0    0  0.27840569623E+02  0.12306518468E+01  0.24065941396E+02  0.54367063616E+02  0.39999953126E+02 0.  0.
        -12    1    3    3    0    0 -0.27840569623E+02 -0.12306518468E+01 -0.24065941396E+02  0.36820936384E+02  0.00000000000E+00 0.  1.
         11    1    4    4    0    0  0.92042937230E+01 -0.28001683863E+01 -0.40728325934E+01  0.10447388742E+02  0.51100000000E-03 0. -1.
        -11    1    4    4    0    0  0.81742905374E+01  0.15204015598E+02  0.91740894548E+01  0.19548530218E+02  0.51100000000E-03 0.  1.
        -12    1    4    4    0    0  0.10461985363E+02 -0.11173195364E+02  0.18964684534E+02  0.24371144657E+02  0.00000000000E+00 0.  1.
</event>
<event>
 8    1  0.2500956E-006  0.9118800E+02  0.7816164E-02  0.1184000E+00
        -11   -1    0    0    0    0  0.00000000000E+00  0.00000000000E+00  0.45593999997E+02  0.45594000000E+02  0.51100000000E-03 0.  1.
         11   -1    0    0    0    0 -0.00000000000E+00 -0.00000000000E+00 -0.45593999997E+02  0.45594000000E+02  0.51100000000E-03 0. -1.
         23    2    1    2    0    0  0.11102230246E-14  0.71054273576E-14 -0.17763568394E-14  0.91188000000E+02  0.91188000000E+02 0.  0.
    9900012    2    3    3    0    0 -0.19485646577E+01 -0.35064868888E+02  0.11065149663E+02  0.54367089210E+02  0.40000011473E+02 0.  0.
         12    1    3    3    0    0  0.19485646577E+01  0.35064868888E+02 -0.11065149663E+02  0.36820910790E+02  0.00000000000E+00 0. -1.
         11    1    4    4    0    0  0.77749059743E+01  0.58342708319E+01  0.49393662162E+01  0.10903449818E+02  0.51100000000E-03 0. -1.
        -11    1    4    4    0    0 -0.50602344352E+00 -0.15908877790E+02 -0.81644917121E+00  0.15937849346E+02  0.51100000000E-03 0.  1.
         12    1    4    4    0    0 -0.92174471885E+01 -0.24990261929E+02  0.69422326175E+01  0.27525790046E+02  0.00000000000E+00 0. -1.
</event>
<event>
 8    1  0.2500956E-006  0.9118800E+02  0.7816164E-02  0.1184000E+00
        -11   -1    0    0    0    0  0.00000000000E+00  0.00000000000E+00  0.45593999997E+02  0.45594000000E+02  0.51100000000E-03 0.  1.
         11   -1    0    0    0    0 -0.00000000000E+00 -0.00000000000E+00 -0.45593999997E+02  0.45594000000E+02  0.51100000000E-03 0. -1.
         23    2    1    2    0    0  0.00000000000E+00  0.26645352591E-14  0.00000000000E+00  0.91188000000E+02  0.91188000000E+02 0.  0.
    9900012    2    3    3    0    0  0.92052092864E+01 -0.69327181576E+01 -0.34971151274E+02  0.54367083655E+02  0.39999998809E+02 0.  0.
        -12    1    3    3    0    0 -0.92052092864E+01  0.69327181576E+01  0.34971151274E+02  0.36820916345E+02  0.00000000000E+00 0.  1.
         11    1    4    4    0    0 -0.15478719147E+01 -0.13589031418E+02 -0.44375499186E+01  0.14378787566E+02  0.51100000000E-03 0. -1.
        -11    1    4    4    0    0  0.17657937931E+02  0.67660277769E+01 -0.22749975007E+02  0.29582820469E+02  0.51100000000E-03 0.  1.
        -12    1    4    4    0    0 -0.69048567297E+01 -0.10971451657E+00 -0.77836263483E+01  0.10405475619E+02  0.00000000000E+00 0.  1.
</event>
<event>
 8    1  0.2500956E-006  0.9118800E+02  0.7816164E-02  0.1184000E+00
        -11   -1    0    0    0    0  0.00000000000E+00  0.00000000000E+00  0.45593999997E+02  0.45594000000E+02  0.51100000000E-03 0. -1.
         11   -1    0    0    0    0 -0.00000000000E+00 -0.00000000000E+00 -0.45593999997E+02  0.45594000000E+02  0.51100000000E-03 0.  1.
         23    2    1    2    0    0  0.88817841970E-15  0.00000000000E+00  0.71054273576E-14  0.91188000000E+02  0.91188000000E+02 0.  0.
    9900012    2    3    3    0    0 -0.23756023332E+01 -0.49668106790E+01 -0.36406960196E+02  0.54367089562E+02  0.40000012274E+02 0.  0.
         12    1    3    3    0    0  0.23756023332E+01  0.49668106790E+01  0.36406960196E+02  0.36820910438E+02  0.00000000000E+00 0. -1.
         11    1    4    4    0    0 -0.11813925606E+02 -0.73313251596E+00 -0.92719329469E+01  0.15035792708E+02  0.51100000000E-03 0. -1.
        -11    1    4    4    0    0  0.16985352775E+02 -0.76008515447E-01 -0.25377675889E+02  0.30537426545E+02  0.51100000000E-03 0.  1.
        -12    1    4    4    0    0 -0.75470295022E+01 -0.41576696476E+01 -0.17573513605E+01  0.87938703089E+01  0.00000000000E+00 0.  1.
</event>
<event>
 8    1  0.2500956E-006  0.9118800E+02  0.7816164E-02  0.1184000E+00
        -11   -1    0    0    0    0  0.00000000000E+00  0.00000000000E+00  0.45593999997E+02  0.45594000000E+02  0.51100000000E-03 0.  1.
         11   -1    0    0    0    0 -0.00000000000E+00 -0.00000000000E+00 -0.45593999997E+02  0.45594000000E+02  0.51100000000E-03 0. -1.
         23    2    1    2    0    0  0.44408920985E-15  0.00000000000E+00 -0.88817841970E-15  0.91188000000E+02  0.91188000000E+02 0.  0.
    9900012    2    3    3    0    0  0.68354134324E+00  0.36745548428E+02  0.22531927185E+01  0.54367089698E+02  0.40000012584E+02 0.  0.
        -12    1    3    3    0    0 -0.68354134324E+00 -0.36745548428E+02 -0.22531927185E+01  0.36820910302E+02  0.00000000000E+00 0.  1.
         11    1    4    4    0    0 -0.85782501543E+01  0.43331005102E+01 -0.98137947417E+01  0.13735818259E+02  0.51100000000E-03 0. -1.
        -11    1    4    4    0    0  0.91838616097E+01  0.15604812191E+02  0.15069677963E+02  0.23557348573E+02  0.51100000000E-03 0.  1.
        -12    1    4    4    0    0  0.77929887812E-01  0.16807635727E+02 -0.30026905032E+01  0.17073922866E+02  0.00000000000E+00 0.  1.
</event>
<event>
 8    1  0.2500956E-006  0.9118800E+02  0.7816164E-02  0.1184000E+00
        -11   -1    0    0    0    0  0.00000000000E+00  0.00000000000E+00  0.45593999997E+02  0.45594000000E+02  0.51100000000E-03 0.  1.
         11   -1    0    0    0    0 -0.00000000000E+00 -0.00000000000E+00 -0.45593999997E+02  0.45594000000E+02  0.51100000000E-03 0. -1.
         23    2    1    2    0    0 -0.35527136788E-14 -0.17763568394E-14  0.00000000000E+00  0.91188000000E+02  0.91188000000E+02 0.  0.
    9900012    2    3    3    0    0  0.25997268583E+02 -0.10381842966E+02 -0.23919407892E+02  0.54367099535E+02  0.40000035010E+02 0.  0.
        -12    1    3    3    0    0 -0.25997268583E+02  0.10381842966E+02  0.23919407892E+02  0.36820900465E+02  0.00000000000E+00 0.  1.
         11    1    4    4    0    0 -0.12033797034E+01  0.48236898260E+00 -0.50775169383E+01  0.52404180240E+01  0.51100000000E-03 0. -1.
        -11    1    4    4    0    0  0.68011307725E+01 -0.13350856162E+02 -0.23672689680E+02  0.28016012867E+02  0.51100000000E-03 0.  1.
        -12    1    4    4    0    0  0.20399517514E+02  0.24866442130E+01  0.48307987263E+01  0.21110668643E+02  0.00000000000E+00 0.  1.
</event>
<event>
 8    1  0.2500956E-006  0.9118800E+02  0.7816164E-02  0.1184000E+00
        -11   -1    0    0    0    0  0.00000000000E+00  0.00000000000E+00  0.45593999997E+02  0.45594000000E+02  0.51100000000E-03 0.  1.
         11   -1    0    0    0    0 -0.00000000000E+00 -0.00000000000E+00 -0.45593999997E+02  0.45594000000E+02  0.51100000000E-03 0. -1.
         23    2    1    2    0    0  0.00000000000E+00  0.88817841970E-15  0.35527136788E-14  0.91188000000E+02  0.91188000000E+02 0.  0.
    9900012    2    3    3    0    0  0.23766428208E+02  0.56649243491E+01  0.27547129307E+02  0.54367098182E+02  0.40000031926E+02 0.  0.
         12    1    3    3    0    0 -0.23766428208E+02 -0.56649243491E+01 -0.27547129307E+02  0.36820901818E+02  0.00000000000E+00 0. -1.
         11    1    4    4    0    0  0.49435936264E+01 -0.12291332597E+02  0.39924917704E+01  0.13836761390E+02  0.51100000000E-03 0. -1.
        -11    1    4    4    0    0  0.36892958767E+01 -0.38151252392E+01  0.85540618225E+01  0.10066680614E+02  0.51100000000E-03 0.  1.
        -12    1    4    4    0    0  0.15133538704E+02  0.21771382186E+02  0.15000575714E+02  0.30463656178E+02  0.00000000000E+00 0.  1.
</event>
<event>
 8    1  0.2500956E-006  0.9118800E+02  0.7816164E-02  0.1184000E+00
        -11   -1    0    0    0    0  0.00000000000E+00  0.00000000000E+00  0.45593999997E+02  0.45594000000E+02  0.51100000000E-03 0.  1.
         11   -1    0    0    0    0 -0.00000000000E+00 -0.00000000000E+00 -0.45593999997E+02  0.45594000000E+02  0.51100000000E-03 0. -1.
         23    2    1    2    0    0  0.00000000000E+00  0.00000000000E+00  0.35527136788E-14  0.91188000000E+02  0.91188000000E+02 0.  0.
    9900012    2    3    3    0    0  0.11362012907E+02 -0.25664494129E+02 -0.23833123221E+02  0.54367090741E+02  0.40000014963E+02 0.  0.
        -12    1    3    3    0    0 -0.11362012907E+02  0.25664494129E+02  0.23833123221E+02  0.36820909259E+02  0.00000000000E+00 0.  1.
         11    1    4    4    0    0  0.11557389934E+01  0.98794992000E+01 -0.27779577272E+01  0.10327501463E+02  0.51100000000E-03 0. -1.
        -11    1    4    4    0    0  0.68492883470E+01 -0.81073517148E+01 -0.30186812599E+01  0.11034234885E+02  0.51100000000E-03 0.  1.
         12    1    4    4    0    0  0.33569855669E+01 -0.27436641614E+02 -0.18036484234E+02  0.33005354394E+02  0.00000000000E+00 0. -1.
</event>
<event>
 8    1  0.2500956E-006  0.9118800E+02  0.7816164E-02  0.1184000E+00
        -11   -1    0    0    0    0  0.00000000000E+00  0.00000000000E+00  0.45593999997E+02  0.45594000000E+02  0.51100000000E-03 0.  1.
         11   -1    0    0    0    0 -0.00000000000E+00 -0.00000000000E+00 -0.45593999997E+02  0.45594000000E+02  0.51100000000E-03 0. -1.
         23    2    1    2    0    0  0.00000000000E+00  0.44408920985E-15  0.00000000000E+00  0.91188000000E+02  0.91188000000E+02 0.  0.
    9900012    2    3    3    0    0  0.33966930168E+02  0.18392099960E+01 -0.14094155410E+02  0.54367078567E+02  0.39999987209E+02 0.  0.
         12    1    3    3    0    0 -0.33966930168E+02 -0.18392099960E+01  0.14094155410E+02  0.36820921433E+02  0.00000000000E+00 0. -1.
         11    1    4    4    0    0 -0.47794887132E+01 -0.90631849241E+01 -0.46957787403E+00  0.10256965290E+02  0.51100000000E-03 0. -1.
        -11    1    4    4    0    0  0.31188625927E+02  0.10878701387E+02 -0.63821203784E+01  0.33642354137E+02  0.51100000000E-03 0.  1.
         12    1    4    4    0    0  0.75577929544E+01  0.23693533205E-01 -0.72424571575E+01  0.10467759140E+02  0.00000000000E+00 0. -1.
</event>
<event>
 8    1  0.2500956E-006  0.9118800E+02  0.7816164E-02  0.1184000E+00
        -11   -1    0    0    0    0  0.00000000000E+00  0.00000000000E+00  0.45593999997E+02  0.45594000000E+02  0.51100000000E-03 0.  1.
         11   -1    0    0    0    0 -0.00000000000E+00 -0.00000000000E+00 -0.45593999997E+02  0.45594000000E+02  0.51100000000E-03 0. -1.
         23    2    1    2    0    0  0.00000000000E+00  0.00000000000E+00  0.00000000000E+00  0.91188000000E+02  0.91188000000E+02 0.  0.
    9900012    2    3    3    0    0 -0.90237239925E+01  0.35582825728E+02  0.28670711833E+01  0.54367011710E+02  0.39999834795E+02 0.  0.
        -12    1    3    3    0    0  0.90237239925E+01 -0.35582825728E+02 -0.28670711833E+01  0.36820988290E+02  0.00000000000E+00 0.  1.
         11    1    4    4    0    0  0.40984924402E+01 -0.83291678454E-01 -0.16689272943E+01  0.44260474874E+01  0.51100000000E-03 0. -1.
        -11    1    4    4    0    0  0.96294274259E+01  0.10660419725E+02  0.71238083039E+01  0.16034932687E+02  0.51100000000E-03 0.  1.
         12    1    4    4    0    0 -0.22751643859E+02  0.25005697681E+02 -0.25878098263E+01  0.33906031535E+02  0.00000000000E+00 0. -1.
</event>
<event>
 8    1  0.2500956E-006  0.9118800E+02  0.7816164E-02  0.1184000E+00
        -11   -1    0    0    0    0  0.00000000000E+00  0.00000000000E+00  0.45593999997E+02  0.45594000000E+02  0.51100000000E-03 0.  1.
         11   -1    0    0    0    0 -0.00000000000E+00 -0.00000000000E+00 -0.45593999997E+02  0.45594000000E+02  0.51100000000E-03 0. -1.
         23    2    1    2    0    0  0.74940054162E-15  0.17763568394E-14  0.00000000000E+00  0.91188000000E+02  0.91188000000E+02 0.  0.
    9900012    2    3    3    0    0 -0.20858456821E+00  0.15791924107E+02 -0.33261864592E+02  0.54367081887E+02  0.39999994779E+02 0.  0.
        -12    1    3    3    0    0  0.20858456821E+00 -0.15791924107E+02  0.33261864592E+02  0.36820918113E+02  0.00000000000E+00 0.  1.
         11    1    4    4    0    0  0.56784309202E+01  0.27261212141E+00 -0.21730937260E+02  0.22462246761E+02  0.51100000000E-03 0. -1.
        -11    1    4    4    0    0 -0.49628445345E+01  0.32386839631E+01 -0.17313386046E+02  0.18299514647E+02  0.51100000000E-03 0.  1.
        -12    1    4    4    0    0 -0.92417095389E+00  0.12280628022E+02  0.57824587138E+01  0.13605320479E+02  0.00000000000E+00 0.  1.
</event>
<event>
 8    1  0.2500956E-006  0.9118800E+02  0.7816164E-02  0.1184000E+00
        -11   -1    0    0    0    0  0.00000000000E+00  0.00000000000E+00  0.45593999997E+02  0.45594000000E+02  0.51100000000E-03 0.  1.
         11   -1    0    0    0    0 -0.00000000000E+00 -0.00000000000E+00 -0.45593999997E+02  0.45594000000E+02  0.51100000000E-03 0. -1.
         23    2    1    2    0    0  0.00000000000E+00  0.00000000000E+00  0.00000000000E+00  0.91188000000E+02  0.91188000000E+02 0.  0.
    9900012    2    3    3    0    0 -0.21039975164E+02 -0.25426457075E+02  0.16327735253E+02  0.54367079142E+02  0.39999988521E+02 0.  0.
         12    1    3    3    0    0  0.21039975164E+02  0.25426457075E+02 -0.16327735253E+02  0.36820920858E+02  0.00000000000E+00 0. -1.
         11    1    4    4    0    0  0.89755192925E+01 -0.29983408241E+01  0.23339508873E+01  0.97466569280E+01  0.51100000000E-03 0. -1.
        -11    1    4    4    0    0 -0.14127684810E+02 -0.20842683800E+02  0.13668807903E+02  0.28650397132E+02  0.51100000000E-03 0.  1.
         12    1    4    4    0    0 -0.15887809647E+02 -0.15854324511E+01  0.32497646345E+00  0.15970025082E+02  0.00000000000E+00 0. -1.
</event>
<event>
 8    1  0.2500956E-006  0.9118800E+02  0.7816164E-02  0.1184000E+00
        -11   -1    0    0    0    0  0.00000000000E+00  0.00000000000E+00  0.45593999997E+02  0.45594000000E+02  0.51100000000E-03 0. -1.
         11   -1    0    0    0    0 -0.00000000000E+00 -0.00000000000E+00 -0.45593999997E+02  0.45594000000E+02  0.51100000000E-03 0.  1.
         23    2    1    2    0    0 -0.35527136788E-14  0.44408920985E-15  0.00000000000E+00  0.91188000000E+02  0.91188000000E+02 0.  0.
    9900012    2    3    3    0    0 -0.27640636975E+02 -0.82404961532E+00 -0.24312460686E+02  0.54367087263E+02  0.40000007034E+02 0.  0.
         12    1    3    3    0    0  0.27640636975E+02  0.82404961532E+00  0.24312460686E+02  0.36820912737E+02  0.00000000000E+00 0. -1.
         11    1    4    4    0    0 -0.16249951497E+01  0.91595924286E+01  0.30034603765E+01  0.97754548329E+01  0.51100000000E-03 0. -1.
        -11    1    4    4    0    0 -0.26363029299E+02 -0.12366755741E+01 -0.19022343981E+02  0.32532879539E+02  0.51100000000E-03 0.  1.
        -12    1    4    4    0    0  0.34738747381E+00 -0.87469664699E+01 -0.82935770813E+01  0.12058752891E+02  0.00000000000E+00 0.  1.
</event>
<event>
 8    1  0.2500956E-006  0.9118800E+02  0.7816164E-02  0.1184000E+00
        -11   -1    0    0    0    0  0.00000000000E+00  0.00000000000E+00  0.45593999997E+02  0.45594000000E+02  0.51100000000E-03 0. -1.
         11   -1    0    0    0    0 -0.00000000000E+00 -0.00000000000E+00 -0.45593999997E+02  0.45594000000E+02  0.51100000000E-03 0.  1.
         23    2    1    2    0    0  0.00000000000E+00 -0.17763568394E-14  0.00000000000E+00  0.91188000000E+02  0.91188000000E+02 0.  0.
    9900012    2    3    3    0    0  0.31058383472E+02 -0.15780096685E+02 -0.11922299524E+02  0.54367138234E+02  0.40000123232E+02 0.  0.
         12    1    3    3    0    0 -0.31058383472E+02  0.15780096685E+02  0.11922299524E+02  0.36820861766E+02  0.00000000000E+00 0. -1.
         11    1    4    4    0    0  0.73237262829E+01 -0.30044259148E+00  0.30061320420E+01  0.79223773283E+01  0.51100000000E-03 0. -1.
        -11    1    4    4    0    0  0.19561762847E+02 -0.20742662487E+02 -0.22502237939E+02  0.36321774809E+02  0.51100000000E-03 0.  1.
        -12    1    4    4    0    0  0.41728943414E+01  0.52630083934E+01  0.75738063732E+01  0.10122986097E+02  0.00000000000E+00 0.  1.
</event>
<event>
 8    1  0.2500956E-006  0.9118800E+02  0.7816164E-02  0.1184000E+00
        -11   -1    0    0    0    0  0.00000000000E+00  0.00000000000E+00  0.45593999997E+02  0.45594000000E+02  0.51100000000E-03 0. -1.
         11   -1    0    0    0    0 -0.00000000000E+00 -0.00000000000E+00 -0.45593999997E+02  0.45594000000E+02  0.51100000000E-03 0.  1.
         23    2    1    2    0    0  0.00000000000E+00  0.00000000000E+00  0.00000000000E+00  0.91188000000E+02  0.91188000000E+02 0.  0.
    9900012    2    3    3    0    0 -0.31376536776E+02  0.11522603175E+02 -0.15444179596E+02  0.54367080302E+02  0.39999991164E+02 0.  0.
         12    1    3    3    0    0  0.31376536776E+02 -0.11522603175E+02  0.15444179596E+02  0.36820919698E+02  0.00000000000E+00 0. -1.
         11    1    4    4    0    0  0.60264548614E+01 -0.27857118063E+01 -0.31540391229E+00  0.66466403809E+01  0.51100000000E-03 0. -1.
        -11    1    4    4    0    0 -0.85374797704E+01  0.32216853995E+01 -0.14083605235E+02  0.16781410975E+02  0.51100000000E-03 0.  1.
        -12    1    4    4    0    0 -0.28865511867E+02  0.11086629582E+02 -0.10451704492E+01  0.30939028946E+02  0.00000000000E+00 0.  1.
</event>
<event>
 8    1  0.2500956E-006  0.9118800E+02  0.7816164E-02  0.1184000E+00
        -11   -1    0    0    0    0  0.00000000000E+00  0.00000000000E+00  0.45593999997E+02  0.45594000000E+02  0.51100000000E-03 0.  1.
         11   -1    0    0    0    0 -0.00000000000E+00 -0.00000000000E+00 -0.45593999997E+02  0.45594000000E+02  0.51100000000E-03 0. -1.
         23    2    1    2    0    0  0.00000000000E+00 -0.17763568394E-14  0.71054273576E-14  0.91188000000E+02  0.91188000000E+02 0.  0.
    9900012    2    3    3    0    0  0.15800096262E+02  0.66117208820E+01  0.32594732302E+02  0.54367157143E+02  0.40000166338E+02 0.  0.
         12    1    3    3    0    0 -0.15800096262E+02 -0.66117208820E+01 -0.32594732302E+02  0.36820842857E+02  0.00000000000E+00 0. -1.
         11    1    4    4    0    0  0.99962143794E+00  0.45624373668E+01 -0.17315018680E+01  0.49812826385E+01  0.51100000000E-03 0. -1.
        -11    1    4    4    0    0  0.10546743196E+01 -0.87056708570E+01 -0.20796627775E+01  0.90125490579E+01  0.51100000000E-03 0.  1.
        -12    1    4    4    0    0  0.13745800505E+02  0.10754954372E+02  0.36405896947E+02  0.40373325446E+02  0.00000000000E+00 0.  1.
</event>
<event>
 8    1  0.2500956E-006  0.9118800E+02  0.7816164E-02  0.1184000E+00
        -11   -1    0    0    0    0  0.00000000000E+00  0.00000000000E+00  0.45593999997E+02  0.45594000000E+02  0.51100000000E-03 0.  1.
         11   -1    0    0    0    0 -0.00000000000E+00 -0.00000000000E+00 -0.45593999997E+02  0.45594000000E+02  0.51100000000E-03 0. -1.
         23    2    1    2    0    0  0.00000000000E+00  0.00000000000E+00 -0.35527136788E-14  0.91188000000E+02  0.91188000000E+02 0.  0.
    9900012    2    3    3    0    0  0.94309378842E+01 -0.18943259385E+02 -0.30132881724E+02  0.54367078956E+02  0.39999988097E+02 0.  0.
        -12    1    3    3    0    0 -0.94309378842E+01  0.18943259385E+02  0.30132881724E+02  0.36820921044E+02  0.00000000000E+00 0.  1.
         11    1    4    4    0    0  0.42271908703E+01 -0.86656513901E+01 -0.35162462742E+02  0.36460409255E+02  0.51100000000E-03 0. -1.
        -11    1    4    4    0    0 -0.28440875255E+01 -0.75719766104E+01  0.10045010507E+00  0.80891133090E+01  0.51100000000E-03 0.  1.
        -12    1    4    4    0    0  0.80478345394E+01 -0.27056313846E+01  0.49291309130E+01  0.98175563925E+01  0.00000000000E+00 0.  1.
</event>
<event>
 8    1  0.2500956E-006  0.9118800E+02  0.7816164E-02  0.1184000E+00
        -11   -1    0    0    0    0  0.00000000000E+00  0.00000000000E+00  0.45593999997E+02  0.45594000000E+02  0.51100000000E-03 0. -1.
         11   -1    0    0    0    0 -0.00000000000E+00 -0.00000000000E+00 -0.45593999997E+02  0.45594000000E+02  0.51100000000E-03 0.  1.
         23    2    1    2    0    0 -0.31086244690E-14 -0.44408920985E-15  0.00000000000E+00  0.91188000000E+02  0.91188000000E+02 0.  0.
    9900012    2    3    3    0    0 -0.20775324985E+01  0.21432565838E+01  0.36699743429E+02  0.54367070383E+02  0.39999968553E+02 0.  0.
        -12    1    3    3    0    0  0.20775324985E+01 -0.21432565838E+01 -0.36699743429E+02  0.36820929617E+02  0.00000000000E+00 0.  1.
         11    1    4    4    0    0  0.15331957034E+02 -0.83705130318E+01  0.23672578480E+02  0.29419812492E+02  0.51100000000E-03 0. -1.
        -11    1    4    4    0    0 -0.10198128434E+02  0.30709778013E+01  0.85515822871E+01  0.13658780623E+02  0.51100000000E-03 0.  1.
         12    1    4    4    0    0 -0.72113610984E+01  0.74427918142E+01  0.44755826617E+01  0.11288477269E+02  0.00000000000E+00 0. -1.
</event>
<event>
 8    1  0.2500956E-006  0.9118800E+02  0.7816164E-02  0.1184000E+00
        -11   -1    0    0    0    0  0.00000000000E+00  0.00000000000E+00  0.45593999997E+02  0.45594000000E+02  0.51100000000E-03 0.  1.
         11   -1    0    0    0    0 -0.00000000000E+00 -0.00000000000E+00 -0.45593999997E+02  0.45594000000E+02  0.51100000000E-03 0. -1.
         23    2    1    2    0    0 -0.17763568394E-14  0.71054273576E-14 -0.88817841970E-15  0.91188000000E+02  0.91188000000E+02 0.  0.
    9900012    2    3    3    0    0 -0.84991021374E+01  0.35394806689E+02 -0.55454163527E+01  0.54367099411E+02  0.40000034727E+02 0.  0.
        -12    1    3    3    0    0  0.84991021374E+01 -0.35394806689E+02  0.55454163527E+01  0.36820900589E+02  0.00000000000E+00 0.  1.
         11    1    4    4    0    0  0.37694877001E+00 -0.27063355854E+01 -0.30892640188E+01  0.41243054100E+01  0.51100000000E-03 0. -1.
        -11    1    4    4    0    0 -0.74789898103E+01  0.31927359572E+01 -0.11565635523E+02  0.14138344202E+02  0.51100000000E-03 0.  1.
         12    1    4    4    0    0 -0.13970610972E+01  0.34908406317E+02  0.91094831886E+01  0.36104449799E+02  0.00000000000E+00 0. -1.
</event>
<event>
 8    1  0.2500956E-006  0.9118800E+02  0.7816164E-02  0.1184000E+00
        -11   -1    0    0    0    0  0.00000000000E+00  0.00000000000E+00  0.45593999997E+02  0.45594000000E+02  0.51100000000E-03 0. -1.
         11   -1    0    0    0    0 -0.00000000000E+00 -0.00000000000E+00 -0.45593999997E+02  0.45594000000E+02  0.51100000000E-03 0.  1.
         23    2    1    2    0    0  0.00000000000E+00  0.00000000000E+00  0.00000000000E+00  0.91188000000E+02  0.91188000000E+02 0.  0.
    9900012    2    3    3    0    0  0.17912523088E+02 -0.20872588394E+02 -0.24479729537E+02  0.54367074050E+02  0.39999976912E+02 0.  0.
         12    1    3    3    0    0 -0.17912523088E+02  0.20872588394E+02  0.24479729537E+02  0.36820925950E+02  0.00000000000E+00 0. -1.
         11    1    4    4    0    0 -0.40110060679E+00 -0.13814829966E+02  0.25416724717E+01  0.14052420002E+02  0.51100000000E-03 0. -1.
        -11    1    4    4    0    0  0.61438931397E+01  0.73958364686E+01 -0.15328867435E+02  0.18094750539E+02  0.51100000000E-03 0.  1.
         12    1    4    4    0    0  0.12169730555E+02 -0.14453594896E+02 -0.11692534574E+02  0.22219903509E+02  0.00000000000E+00 0. -1.
</event>
<event>
 8    1  0.2500956E-006  0.9118800E+02  0.7816164E-02  0.1184000E+00
        -11   -1    0    0    0    0  0.00000000000E+00  0.00000000000E+00  0.45593999997E+02  0.45594000000E+02  0.51100000000E-03 0.  1.
         11   -1    0    0    0    0 -0.00000000000E+00 -0.00000000000E+00 -0.45593999997E+02  0.45594000000E+02  0.51100000000E-03 0. -1.
         23    2    1    2    0    0  0.17763568394E-14  0.00000000000E+00  0.00000000000E+00  0.91188000000E+02  0.91188000000E+02 0.  0.
    9900012    2    3    3    0    0  0.15715326279E+02  0.23053480795E+02 -0.24028012839E+02  0.54367083963E+02  0.39999999510E+02 0.  0.
        -12    1    3    3    0    0 -0.15715326279E+02 -0.23053480795E+02  0.24028012839E+02  0.36820916037E+02  0.00000000000E+00 0.  1.
         11    1    4    4    0    0  0.59346815059E+01  0.65599712732E+00 -0.62564739626E+01  0.86483665229E+01  0.51100000000E-03 0. -1.
        -11    1    4    4    0    0 -0.71765131692E+01  0.32510138540E+01 -0.18525903488E+02  0.20131580480E+02  0.51100000000E-03 0.  1.
         12    1    4    4    0    0  0.16957157943E+02  0.19146469814E+02  0.75436461149E+00  0.25587136960E+02  0.00000000000E+00 0. -1.
</event>
<event>
 8    1  0.2500956E-006  0.9118800E+02  0.7816164E-02  0.1184000E+00
        -11   -1    0    0    0    0  0.00000000000E+00  0.00000000000E+00  0.45593999997E+02  0.45594000000E+02  0.51100000000E-03 0. -1.
         11   -1    0    0    0    0 -0.00000000000E+00 -0.00000000000E+00 -0.45593999997E+02  0.45594000000E+02  0.51100000000E-03 0.  1.
         23    2    1    2    0    0 -0.66613381478E-15  0.00000000000E+00  0.35527136788E-14  0.91188000000E+02  0.91188000000E+02 0.  0.
    9900012    2    3    3    0    0 -0.12649243634E+01  0.26124615581E+02  0.25916984531E+02  0.54367005173E+02  0.39999819892E+02 0.  0.
        -12    1    3    3    0    0  0.12649243634E+01 -0.26124615581E+02 -0.25916984531E+02  0.36820994827E+02  0.00000000000E+00 0.  1.
         11    1    4    4    0    0  0.59624428560E+01  0.76215235009E+01  0.10339896257E+00  0.96772432486E+01  0.51100000000E-03 0. -1.
        -11    1    4    4    0    0 -0.14390928438E+01 -0.40891177407E+01 -0.46281146499E+01  0.63412394360E+01  0.51100000000E-03 0.  1.
        -12    1    4    4    0    0 -0.57882743757E+01  0.22592209821E+02  0.30441700218E+02  0.38348522488E+02  0.00000000000E+00 0.  1.
</event>
<event>
 8    1  0.2500956E-006  0.9118800E+02  0.7816164E-02  0.1184000E+00
        -11   -1    0    0    0    0  0.00000000000E+00  0.00000000000E+00  0.45593999997E+02  0.45594000000E+02  0.51100000000E-03 0.  1.
         11   -1    0    0    0    0 -0.00000000000E+00 -0.00000000000E+00 -0.45593999997E+02  0.45594000000E+02  0.51100000000E-03 0. -1.
         23    2    1    2    0    0  0.35527136788E-14  0.17763568394E-14  0.00000000000E+00  0.91188000000E+02  0.91188000000E+02 0.  0.
    9900012    2    3    3    0    0 -0.27767319270E+02 -0.13273193179E+02 -0.20213256255E+02  0.54367117270E+02  0.40000075440E+02 0.  0.
        -12    1    3    3    0    0  0.27767319270E+02  0.13273193179E+02  0.20213256255E+02  0.36820882730E+02  0.00000000000E+00 0.  1.
         11    1    4    4    0    0 -0.72569565970E+01 -0.24942434689E+02 -0.80926221158E+01  0.27208068661E+02  0.51100000000E-03 0.  1.
        -11    1    4    4    0    0 -0.96222112181E+01  0.86953568006E+01 -0.73332727752E+01  0.14898760635E+02  0.51100000000E-03 0. -1.
        -12    1    4    4    0    0 -0.10888151455E+02  0.29738847097E+01 -0.47873613643E+01  0.12260287974E+02  0.00000000000E+00 0.  1.
</event>
<event>
 8    1  0.2500956E-006  0.9118800E+02  0.7816164E-02  0.1184000E+00
        -11   -1    0    0    0    0  0.00000000000E+00  0.00000000000E+00  0.45593999997E+02  0.45594000000E+02  0.51100000000E-03 0. -1.
         11   -1    0    0    0    0 -0.00000000000E+00 -0.00000000000E+00 -0.45593999997E+02  0.45594000000E+02  0.51100000000E-03 0.  1.
         23    2    1    2    0    0 -0.35527136788E-14 -0.35527136788E-14  0.00000000000E+00  0.91188000000E+02  0.91188000000E+02 0.  0.
    9900012    2    3    3    0    0 -0.28924691472E+02  0.20952038793E+02  0.89528996205E+01  0.54367080430E+02  0.39999991456E+02 0.  0.
        -12    1    3    3    0    0  0.28924691472E+02 -0.20952038793E+02 -0.89528996205E+01  0.36820919570E+02  0.00000000000E+00 0.  1.
         11    1    4    4    0    0 -0.24550069071E+02  0.13296561053E+02  0.19273137178E+02  0.33925775513E+02  0.51100000000E-03 0. -1.
        -11    1    4    4    0    0 -0.15382497560E+01  0.26450613785E+01 -0.13514825632E+02  0.13856878224E+02  0.51100000000E-03 0.  1.
        -12    1    4    4    0    0 -0.28363726457E+01  0.50104163621E+01  0.31945880744E+01  0.65844266928E+01  0.00000000000E+00 0.  1.
</event>
<event>
 8    1  0.2500956E-006  0.9118800E+02  0.7816164E-02  0.1184000E+00
        -11   -1    0    0    0    0  0.00000000000E+00  0.00000000000E+00  0.45593999997E+02  0.45594000000E+02  0.51100000000E-03 0.  1.
         11   -1    0    0    0    0 -0.00000000000E+00 -0.00000000000E+00 -0.45593999997E+02  0.45594000000E+02  0.51100000000E-03 0. -1.
         23    2    1    2    0    0  0.35527136788E-14  0.00000000000E+00  0.17763568394E-14  0.91188000000E+02  0.91188000000E+02 0.  0.
    9900012    2    3    3    0    0 -0.30759303218E+02 -0.15031766713E+02  0.13553251197E+02  0.54367090683E+02  0.40000014830E+02 0.  0.
         12    1    3    3    0    0  0.30759303218E+02  0.15031766713E+02 -0.13553251197E+02  0.36820909317E+02  0.00000000000E+00 0. -1.
         11    1    4    4    0    0  0.38765490711E+01 -0.51775509672E+00 -0.12702673585E+01  0.41120897928E+01  0.51100000000E-03 0. -1.
        -11    1    4    4    0    0 -0.39802357393E+01  0.81042485861E+01  0.68490196510E+01  0.11332704537E+02  0.51100000000E-03 0.  1.
        -12    1    4    4    0    0 -0.30655616549E+02 -0.22618260202E+02  0.79744989043E+01  0.38922296353E+02  0.00000000000E+00 0.  1.
</event>
<event>
 8    1  0.2500956E-006  0.9118800E+02  0.7816164E-02  0.1184000E+00
        -11   -1    0    0    0    0  0.00000000000E+00  0.00000000000E+00  0.45593999997E+02  0.45594000000E+02  0.51100000000E-03 0.  1.
         11   -1    0    0    0    0 -0.00000000000E+00 -0.00000000000E+00 -0.45593999997E+02  0.45594000000E+02  0.51100000000E-03 0. -1.
         23    2    1    2    0    0  0.35527136788E-14 -0.35527136788E-14 -0.88817841970E-15  0.91188000000E+02  0.91188000000E+02 0.  0.
    9900012    2    3    3    0    0 -0.28625128916E+02  0.22937843529E+02  0.31991489240E+01  0.54367119714E+02  0.40000081011E+02 0.  0.
         12    1    3    3    0    0  0.28625128916E+02 -0.22937843529E+02 -0.31991489240E+01  0.36820880286E+02  0.00000000000E+00 0. -1.
         11    1    4    4    0    0 -0.13786549228E+02 -0.70819157871E+01 -0.96366666719E+01  0.18250693566E+02  0.51100000000E-03 0. -1.
        -11    1    4    4    0    0 -0.75727677199E+01  0.15126472423E+02  0.87673730252E+01  0.19053183695E+02  0.51100000000E-03 0.  1.
         12    1    4    4    0    0 -0.72658119683E+01  0.14893286893E+02  0.40684425706E+01  0.17063242453E+02  0.00000000000E+00 0. -1.
</event>
<event>
 8    1  0.2500956E-006  0.9118800E+02  0.7816164E-02  0.1184000E+00
        -11   -1    0    0    0    0  0.00000000000E+00  0.00000000000E+00  0.45593999997E+02  0.45594000000E+02  0.51100000000E-03 0. -1.
         11   -1    0    0    0    0 -0.00000000000E+00 -0.00000000000E+00 -0.45593999997E+02  0.45594000000E+02  0.51100000000E-03 0.  1.
         23    2    1    2    0    0  0.00000000000E+00  0.00000000000E+00 -0.35527136788E-14  0.91188000000E+02  0.91188000000E+02 0.  0.
    9900012    2    3    3    0    0 -0.17465781198E+02  0.18780782395E+02  0.26419926950E+02  0.54367029884E+02  0.39999876226E+02 0.  0.
        -12    1    3    3    0    0  0.17465781198E+02 -0.18780782395E+02 -0.26419926950E+02  0.36820970116E+02  0.00000000000E+00 0.  1.
         11    1    4    4    0    0 -0.10671055142E+02  0.97877995099E+01  0.13454845438E+02  0.19766266798E+02  0.51100000000E-03 0. -1.
        -11    1    4    4    0    0 -0.39884345358E+01  0.20155042853E+02  0.76574476361E+01  0.21926464992E+02  0.51100000000E-03 0.  1.
        -12    1    4    4    0    0 -0.28062915204E+01 -0.11162059968E+02  0.53076338759E+01  0.12674298094E+02  0.00000000000E+00 0.  1.
</event>
<event>
 8    1  0.2500956E-006  0.9118800E+02  0.7816164E-02  0.1184000E+00
        -11   -1    0    0    0    0  0.00000000000E+00  0.00000000000E+00  0.45593999997E+02  0.45594000000E+02  0.51100000000E-03 0.  1.
         11   -1    0    0    0    0 -0.00000000000E+00 -0.00000000000E+00 -0.45593999997E+02  0.45594000000E+02  0.51100000000E-03 0. -1.
         23    2    1    2    0    0  0.35527136788E-14 -0.35527136788E-14  0.00000000000E+00  0.91188000000E+02  0.91188000000E+02 0.  0.
    9900012    2    3    3    0    0 -0.27755269221E+02  0.21266011506E+02  0.11540576749E+02  0.54367039575E+02  0.39999898319E+02 0.  0.
         12    1    3    3    0    0  0.27755269221E+02 -0.21266011506E+02 -0.11540576749E+02  0.36820960425E+02  0.00000000000E+00 0. -1.
         11    1    4    4    0    0 -0.12811680458E+02  0.19639441822E+02  0.20774563541E+01  0.23540659642E+02  0.51100000000E-03 0. -1.
        -11    1    4    4    0    0 -0.21827793131E+02  0.36468304677E+01  0.77704645644E+01  0.23454893844E+02  0.51100000000E-03 0.  1.
         12    1    4    4    0    0  0.68842043670E+01 -0.20202607838E+01  0.16926558306E+01  0.73714860891E+01  0.00000000000E+00 0. -1.
</event>
<event>
 8    1  0.2500956E-006  0.9118800E+02  0.7816164E-02  0.1184000E+00
        -11   -1    0    0    0    0  0.00000000000E+00  0.00000000000E+00  0.45593999997E+02  0.45594000000E+02  0.51100000000E-03 0. -1.
         11   -1    0    0    0    0 -0.00000000000E+00 -0.00000000000E+00 -0.45593999997E+02  0.45594000000E+02  0.51100000000E-03 0.  1.
         23    2    1    2    0    0 -0.77715611724E-15  0.00000000000E+00  0.00000000000E+00  0.91188000000E+02  0.91188000000E+02 0.  0.
    9900012    2    3    3    0    0 -0.57732716902E+00  0.36536379378E+02 -0.45321350530E+01  0.54367074254E+02  0.39999977376E+02 0.  0.
         12    1    3    3    0    0  0.57732716902E+00 -0.36536379378E+02  0.45321350530E+01  0.36820925746E+02  0.00000000000E+00 0. -1.
         11    1    4    4    0    0 -0.54047792730E+01  0.79510104192E+01 -0.79098126163E+00  0.96465463921E+01  0.51100000000E-03 0.  1.
        -11    1    4    4    0    0 -0.85750705485E+01  0.28913714399E+02  0.18041256147E+01  0.30212407795E+02  0.51100000000E-03 0. -1.
         12    1    4    4    0    0  0.13402522652E+02 -0.32834544070E+00 -0.55452794061E+01  0.14508120067E+02  0.00000000000E+00 0. -1.
</event>
<event>
 8    1  0.2500956E-006  0.9118800E+02  0.7816164E-02  0.1184000E+00
        -11   -1    0    0    0    0  0.00000000000E+00  0.00000000000E+00  0.45593999997E+02  0.45594000000E+02  0.51100000000E-03 0. -1.
         11   -1    0    0    0    0 -0.00000000000E+00 -0.00000000000E+00 -0.45593999997E+02  0.45594000000E+02  0.51100000000E-03 0.  1.
         23    2    1    2    0    0  0.00000000000E+00  0.00000000000E+00  0.00000000000E+00  0.91188000000E+02  0.91188000000E+02 0.  0.
    9900012    2    3    3    0    0 -0.17871059108E+02 -0.22433187948E+02 -0.23090191479E+02  0.54367087224E+02  0.40000006944E+02 0.  0.
         12    1    3    3    0    0  0.17871059108E+02  0.22433187948E+02  0.23090191479E+02  0.36820912776E+02  0.00000000000E+00 0. -1.
         11    1    4    4    0    0 -0.16755432311E+02  0.28440866176E+01 -0.13081451604E+02  0.21446624839E+02  0.51100000000E-03 0.  1.
        -11    1    4    4    0    0 -0.78697235902E+01 -0.40326106380E+01 -0.10883589885E+01  0.89094906416E+01  0.51100000000E-03 0. -1.
         12    1    4    4    0    0  0.67540967940E+01 -0.21244663928E+02 -0.89203808863E+01  0.24010971743E+02  0.00000000000E+00 0. -1.
</event>
<event>
 8    1  0.2500956E-006  0.9118800E+02  0.7816164E-02  0.1184000E+00
        -11   -1    0    0    0    0  0.00000000000E+00  0.00000000000E+00  0.45593999997E+02  0.45594000000E+02  0.51100000000E-03 0.  1.
         11   -1    0    0    0    0 -0.00000000000E+00 -0.00000000000E+00 -0.45593999997E+02  0.45594000000E+02  0.51100000000E-03 0. -1.
         23    2    1    2    0    0  0.35527136788E-14  0.00000000000E+00  0.00000000000E+00  0.91188000000E+02  0.91188000000E+02 0.  0.
    9900012    2    3    3    0    0  0.31593720901E+02  0.17528950209E+02 -0.70959358351E+01  0.54367087448E+02  0.40000007455E+02 0.  0.
        -12    1    3    3    0    0 -0.31593720901E+02 -0.17528950209E+02  0.70959358351E+01  0.36820912552E+02  0.00000000000E+00 0.  1.
         11    1    4    4    0    0  0.25219783799E+02  0.20192762268E+02  0.74451858494E+01  0.33154425579E+02  0.51100000000E-03 0. -1.
        -11    1    4    4    0    0  0.75745098329E+01 -0.14919513785E+01 -0.12554266315E+01  0.78214585861E+01  0.51100000000E-03 0.  1.
         12    1    4    4    0    0 -0.12005727307E+01 -0.11718606806E+01 -0.13285695053E+02  0.13391203283E+02  0.00000000000E+00 0. -1.
</event>
<event>
 8    1  0.2500956E-006  0.9118800E+02  0.7816164E-02  0.1184000E+00
        -11   -1    0    0    0    0  0.00000000000E+00  0.00000000000E+00  0.45593999997E+02  0.45594000000E+02  0.51100000000E-03 0. -1.
         11   -1    0    0    0    0 -0.00000000000E+00 -0.00000000000E+00 -0.45593999997E+02  0.45594000000E+02  0.51100000000E-03 0.  1.
         23    2    1    2    0    0  0.00000000000E+00  0.00000000000E+00  0.00000000000E+00  0.91188000000E+02  0.91188000000E+02 0.  0.
    9900012    2    3    3    0    0  0.15296696271E+02 -0.21419273584E+02  0.25748952452E+02  0.54367044688E+02  0.39999909976E+02 0.  0.
        -12    1    3    3    0    0 -0.15296696271E+02  0.21419273584E+02 -0.25748952452E+02  0.36820955312E+02  0.00000000000E+00 0.  1.
         11    1    4    4    0    0  0.99324094926E+00 -0.92173688014E+01  0.10526163507E+02  0.14026636576E+02  0.51100000000E-03 0. -1.
        -11    1    4    4    0    0 -0.52859089340E+01 -0.15799775151E+02  0.11047284239E+02  0.19990403132E+02  0.51100000000E-03 0.  1.
        -12    1    4    4    0    0  0.19589364256E+02  0.35978703683E+01  0.41755047072E+01  0.20350004980E+02  0.00000000000E+00 0.  1.
</event>
<event>
 8    1  0.2500956E-006  0.9118800E+02  0.7816164E-02  0.1184000E+00
        -11   -1    0    0    0    0  0.00000000000E+00  0.00000000000E+00  0.45593999997E+02  0.45594000000E+02  0.51100000000E-03 0. -1.
         11   -1    0    0    0    0 -0.00000000000E+00 -0.00000000000E+00 -0.45593999997E+02  0.45594000000E+02  0.51100000000E-03 0.  1.
         23    2    1    2    0    0 -0.71054273576E-14 -0.35527136788E-14  0.17763568394E-14  0.91188000000E+02  0.91188000000E+02 0.  0.
    9900012    2    3    3    0    0 -0.30247131988E+02 -0.18507286886E+02  0.99182333648E+01  0.54367081836E+02  0.39999994662E+02 0.  0.
         12    1    3    3    0    0  0.30247131988E+02  0.18507286886E+02 -0.99182333648E+01  0.36820918164E+02  0.00000000000E+00 0. -1.
         11    1    4    4    0    0 -0.73054842900E+01 -0.12668786110E+02 -0.95855947957E+01  0.17485761924E+02  0.51100000000E-03 0.  1.
        -11    1    4    4    0    0 -0.88506210007E+01  0.49491519075E+01 -0.48437808909E+00  0.10151956417E+02  0.51100000000E-03 0. -1.
         12    1    4    4    0    0 -0.14091026697E+02 -0.10787652683E+02  0.19988206250E+02  0.26729363495E+02  0.00000000000E+00 0. -1.
</event>
<event>
 8    1  0.2500956E-006  0.9118800E+02  0.7816164E-02  0.1184000E+00
        -11   -1    0    0    0    0  0.00000000000E+00  0.00000000000E+00  0.45593999997E+02  0.45594000000E+02  0.51100000000E-03 0.  1.
         11   -1    0    0    0    0 -0.00000000000E+00 -0.00000000000E+00 -0.45593999997E+02  0.45594000000E+02  0.51100000000E-03 0. -1.
         23    2    1    2    0    0 -0.35527136788E-14 -0.17763568394E-14 -0.35527136788E-14  0.91188000000E+02  0.91188000000E+02 0.  0.
    9900012    2    3    3    0    0 -0.26978233490E+02  0.14916098990E+02 -0.20136160088E+02  0.54367081565E+02  0.39999994043E+02 0.  0.
        -12    1    3    3    0    0  0.26978233490E+02 -0.14916098990E+02  0.20136160088E+02  0.36820918435E+02  0.00000000000E+00 0.  1.
         11    1    4    4    0    0  0.19778741803E+01  0.70788621346E+01 -0.93466594170E+01  0.11890429677E+02  0.51100000000E-03 0. -1.
        -11    1    4    4    0    0  0.47311776775E+01  0.41229010349E+01  0.14534975297E+01  0.64416620906E+01  0.51100000000E-03 0.  1.
         12    1    4    4    0    0 -0.33687285348E+02  0.37143358205E+01 -0.12242998201E+02  0.36034989797E+02  0.00000000000E+00 0. -1.
</event>
<event>
 8    1  0.2500956E-006  0.9118800E+02  0.7816164E-02  0.1184000E+00
        -11   -1    0    0    0    0  0.00000000000E+00  0.00000000000E+00  0.45593999997E+02  0.45594000000E+02  0.51100000000E-03 0.  1.
         11   -1    0    0    0    0 -0.00000000000E+00 -0.00000000000E+00 -0.45593999997E+02  0.45594000000E+02  0.51100000000E-03 0. -1.
         23    2    1    2    0    0  0.00000000000E+00  0.35527136788E-14  0.44408920985E-15  0.91188000000E+02  0.91188000000E+02 0.  0.
    9900012    2    3    3    0    0 -0.25539016410E+02  0.26484148444E+02 -0.14585972632E+01  0.54367095829E+02  0.40000026561E+02 0.  0.
        -12    1    3    3    0    0  0.25539016410E+02 -0.26484148444E+02  0.14585972632E+01  0.36820904171E+02  0.00000000000E+00 0.  1.
         11    1    4    4    0    0 -0.16963561274E+01  0.14072556038E+02 -0.88893397842E+01  0.16731252780E+02  0.51100000000E-03 0. -1.
        -11    1    4    4    0    0 -0.10093289699E+02 -0.16183313060E+01 -0.77349650329E+01  0.12818860225E+02  0.51100000000E-03 0.  1.
        -12    1    4    4    0    0 -0.13749370584E+02  0.14029923712E+02  0.15165707554E+02  0.24816982823E+02  0.00000000000E+00 0.  1.
</event>
<event>
 8    1  0.2500956E-006  0.9118800E+02  0.7816164E-02  0.1184000E+00
        -11   -1    0    0    0    0  0.00000000000E+00  0.00000000000E+00  0.45593999997E+02  0.45594000000E+02  0.51100000000E-03 0. -1.
         11   -1    0    0    0    0 -0.00000000000E+00 -0.00000000000E+00 -0.45593999997E+02  0.45594000000E+02  0.51100000000E-03 0.  1.
         23    2    1    2    0    0  0.71054273576E-14  0.00000000000E+00  0.00000000000E+00  0.91188000000E+02  0.91188000000E+02 0.  0.
    9900012    2    3    3    0    0  0.28204786591E+02 -0.14633610000E+02  0.18604533740E+02  0.54367065683E+02  0.39999957838E+02 0.  0.
        -12    1    3    3    0    0 -0.28204786591E+02  0.14633610000E+02 -0.18604533740E+02  0.36820934317E+02  0.00000000000E+00 0.  1.
         11    1    4    4    0    0  0.10554684010E+02  0.69843206821E+01  0.19024039553E+02  0.22849423868E+02  0.51100000000E-03 0. -1.
        -11    1    4    4    0    0  0.12456539985E+01 -0.10699440990E+02 -0.39976505616E+01  0.11489599717E+02  0.51100000000E-03 0.  1.
        -12    1    4    4    0    0  0.16404448583E+02 -0.10918489692E+02  0.35781447486E+01  0.20028042098E+02  0.00000000000E+00 0.  1.
</event>
<event>
 8    1  0.2500956E-006  0.9118800E+02  0.7816164E-02  0.1184000E+00
        -11   -1    0    0    0    0  0.00000000000E+00  0.00000000000E+00  0.45593999997E+02  0.45594000000E+02  0.51100000000E-03 0. -1.
         11   -1    0    0    0    0 -0.00000000000E+00 -0.00000000000E+00 -0.45593999997E+02  0.45594000000E+02  0.51100000000E-03 0.  1.
         23    2    1    2    0    0 -0.88817841970E-15  0.00000000000E+00  0.00000000000E+00  0.91188000000E+02  0.91188000000E+02 0.  0.
    9900012    2    3    3    0    0 -0.54035708260E+01 -0.33196366392E+02 -0.14986069224E+02  0.54367087599E+02  0.40000007798E+02 0.  0.
         12    1    3    3    0    0  0.54035708260E+01  0.33196366392E+02  0.14986069224E+02  0.36820912401E+02  0.00000000000E+00 0. -1.
         11    1    4    4    0    0 -0.11923580843E+01 -0.80394708040E+01 -0.42250718919E+01  0.91600240918E+01  0.51100000000E-03 0.  1.
        -11    1    4    4    0    0 -0.57775278041E+01 -0.22554612114E+02 -0.22921853631E+02  0.32672644969E+02  0.51100000000E-03 0. -1.
         12    1    4    4    0    0  0.15663150623E+01 -0.26022834736E+01  0.12160856299E+02  0.12534418538E+02  0.00000000000E+00 0. -1.
</event>
<event>
 8    1  0.2500956E-006  0.9118800E+02  0.7816164E-02  0.1184000E+00
        -11   -1    0    0    0    0  0.00000000000E+00  0.00000000000E+00  0.45593999997E+02  0.45594000000E+02  0.51100000000E-03 0. -1.
         11   -1    0    0    0    0 -0.00000000000E+00 -0.00000000000E+00 -0.45593999997E+02  0.45594000000E+02  0.51100000000E-03 0.  1.
         23    2    1    2    0    0  0.00000000000E+00  0.00000000000E+00  0.00000000000E+00  0.91188000000E+02  0.91188000000E+02 0.  0.
    9900012    2    3    3    0    0 -0.15309775326E+02 -0.66105160422E+01  0.32828125651E+02  0.54367163825E+02  0.40000181572E+02 0.  0.
        -12    1    3    3    0    0  0.15309775326E+02  0.66105160422E+01 -0.32828125651E+02  0.36820836175E+02  0.00000000000E+00 0.  1.
         11    1    4    4    0    0 -0.92988050086E+01  0.14634284144E+02  0.16479869562E+02  0.23921039861E+02  0.51100000000E-03 0. -1.
        -11    1    4    4    0    0  0.39713357750E+01 -0.37305753876E+01  0.44700584582E+01  0.70477034161E+01  0.51100000000E-03 0.  1.
         12    1    4    4    0    0 -0.99823060926E+01 -0.17514224798E+02  0.11878197631E+02  0.23398420548E+02  0.00000000000E+00 0. -1.
</event>
<event>
 8    1  0.2500956E-006  0.9118800E+02  0.7816164E-02  0.1184000E+00
        -11   -1    0    0    0    0  0.00000000000E+00  0.00000000000E+00  0.45593999997E+02  0.45594000000E+02  0.51100000000E-03 0.  1.
         11   -1    0    0    0    0 -0.00000000000E+00 -0.00000000000E+00 -0.45593999997E+02  0.45594000000E+02  0.51100000000E-03 0. -1.
         23    2    1    2    0    0  0.00000000000E+00  0.00000000000E+00  0.35527136788E-14  0.91188000000E+02  0.91188000000E+02 0.  0.
    9900012    2    3    3    0    0 -0.22084095088E+02 -0.14592610534E+02  0.25595470153E+02  0.54367087051E+02  0.40000006550E+02 0.  0.
         12    1    3    3    0    0  0.22084095088E+02  0.14592610534E+02 -0.25595470153E+02  0.36820912949E+02  0.00000000000E+00 0. -1.
         11    1    4    4    0    0 -0.13942115777E+01  0.33987359370E+00 -0.63965382136E+01  0.65555351698E+01  0.51100000000E-03 0. -1.
        -11    1    4    4    0    0 -0.54491599620E+01 -0.18623757842E+02  0.13899846812E+02  0.23869299154E+02  0.51100000000E-03 0.  1.
        -12    1    4    4    0    0 -0.15240723549E+02  0.36912737144E+01  0.18092161555E+02  0.23942252727E+02  0.00000000000E+00 0.  1.
</event>
<event>
 8    1  0.2500956E-006  0.9118800E+02  0.7816164E-02  0.1184000E+00
        -11   -1    0    0    0    0  0.00000000000E+00  0.00000000000E+00  0.45593999997E+02  0.45594000000E+02  0.51100000000E-03 0. -1.
         11   -1    0    0    0    0 -0.00000000000E+00 -0.00000000000E+00 -0.45593999997E+02  0.45594000000E+02  0.51100000000E-03 0.  1.
         23    2    1    2    0    0  0.14210854715E-13  0.00000000000E+00  0.00000000000E+00  0.91188000000E+02  0.91188000000E+02 0.  0.
    9900012    2    3    3    0    0 -0.32485157291E+02 -0.14009006559E+02  0.10209785032E+02  0.54367117075E+02  0.40000074996E+02 0.  0.
        -12    1    3    3    0    0  0.32485157291E+02  0.14009006559E+02 -0.10209785032E+02  0.36820882925E+02  0.00000000000E+00 0.  1.
         11    1    4    4    0    0 -0.16384014458E+02 -0.29788200882E+01  0.67080448370E+01  0.17952915213E+02  0.51100000000E-03 0. -1.
        -11    1    4    4    0    0  0.10434441218E+01 -0.30975476395E+01 -0.11711570904E+02  0.12159131149E+02  0.51100000000E-03 0.  1.
        -12    1    4    4    0    0 -0.17144586955E+02 -0.79326388314E+01  0.15213311098E+02  0.24255070712E+02  0.00000000000E+00 0.  1.
</event>
<event>
 8    1  0.2500956E-006  0.9118800E+02  0.7816164E-02  0.1184000E+00
        -11   -1    0    0    0    0  0.00000000000E+00  0.00000000000E+00  0.45593999997E+02  0.45594000000E+02  0.51100000000E-03 0. -1.
         11   -1    0    0    0    0 -0.00000000000E+00 -0.00000000000E+00 -0.45593999997E+02  0.45594000000E+02  0.51100000000E-03 0.  1.
         23    2    1    2    0    0 -0.71054273576E-14 -0.88817841970E-15 -0.35527136788E-14  0.91188000000E+02  0.91188000000E+02 0.  0.
    9900012    2    3    3    0    0 -0.31317220103E+02 -0.57199965849E+01 -0.18501151403E+02  0.54367092364E+02  0.40000018662E+02 0.  0.
        -12    1    3    3    0    0  0.31317220103E+02  0.57199965849E+01  0.18501151403E+02  0.36820907636E+02  0.00000000000E+00 0.  1.
         11    1    4    4    0    0 -0.11383460777E+02 -0.96311371726E+01 -0.62134667868E+01  0.16153920647E+02  0.51100000000E-03 0. -1.
        -11    1    4    4    0    0 -0.17323832990E+02 -0.42197843641E+00  0.66880389817E+01  0.18574798005E+02  0.51100000000E-03 0.  1.
        -12    1    4    4    0    0 -0.26099263361E+01  0.43331190241E+01 -0.18975723598E+02  0.19638373711E+02  0.00000000000E+00 0.  1.
</event>
<event>
 8    1  0.2500956E-006  0.9118800E+02  0.7816164E-02  0.1184000E+00
        -11   -1    0    0    0    0  0.00000000000E+00  0.00000000000E+00  0.45593999997E+02  0.45594000000E+02  0.51100000000E-03 0.  1.
         11   -1    0    0    0    0 -0.00000000000E+00 -0.00000000000E+00 -0.45593999997E+02  0.45594000000E+02  0.51100000000E-03 0. -1.
         23    2    1    2    0    0 -0.71054273576E-14  0.00000000000E+00 -0.88817841970E-15  0.91188000000E+02  0.91188000000E+02 0.  0.
    9900012    2    3    3    0    0 -0.34676316448E+02  0.12283683924E+02  0.15597538121E+01  0.54367236224E+02  0.40000346617E+02 0.  0.
        -12    1    3    3    0    0  0.34676316448E+02 -0.12283683924E+02 -0.15597538121E+01  0.36820763776E+02  0.00000000000E+00 0.  1.
         11    1    4    4    0    0 -0.53303956920E+01  0.15882327464E+01 -0.14874243778E+02  0.15880136326E+02  0.51100000000E-03 0.  1.
        -11    1    4    4    0    0 -0.13048810213E+02  0.12194312689E+02  0.50795107488E+01  0.18568094669E+02  0.51100000000E-03 0. -1.
         12    1    4    4    0    0 -0.16297110543E+02 -0.14988615115E+01  0.11354486841E+02  0.19919005229E+02  0.00000000000E+00 0. -1.
</event>
<event>
 8    1  0.2500956E-006  0.9118800E+02  0.7816164E-02  0.1184000E+00
        -11   -1    0    0    0    0  0.00000000000E+00  0.00000000000E+00  0.45593999997E+02  0.45594000000E+02  0.51100000000E-03 0.  1.
         11   -1    0    0    0    0 -0.00000000000E+00 -0.00000000000E+00 -0.45593999997E+02  0.45594000000E+02  0.51100000000E-03 0. -1.
         23    2    1    2    0    0  0.35527136788E-14  0.17763568394E-14  0.35527136788E-14  0.91188000000E+02  0.91188000000E+02 0.  0.
    9900012    2    3    3    0    0  0.18987904934E+02  0.86022403925E+01  0.30351985993E+02  0.54367053145E+02  0.39999929254E+02 0.  0.
         12    1    3    3    0    0 -0.18987904934E+02 -0.86022403925E+01 -0.30351985993E+02  0.36820946855E+02  0.00000000000E+00 0. -1.
         11    1    4    4    0    0 -0.43804522589E+01 -0.29414588384E+01 -0.43627367437E+00  0.52944194271E+01  0.51100000000E-03 0. -1.
        -11    1    4    4    0    0  0.11392059928E+02 -0.27180505318E+01  0.27858503081E+02  0.30220241930E+02  0.51100000000E-03 0.  1.
        -12    1    4    4    0    0  0.11976297265E+02  0.14261749763E+02  0.29297565868E+01  0.18852391788E+02  0.00000000000E+00 0.  1.
</event>
<event>
 8    1  0.2500956E-006  0.9118800E+02  0.7816164E-02  0.1184000E+00
        -11   -1    0    0    0    0  0.00000000000E+00  0.00000000000E+00  0.45593999997E+02  0.45594000000E+02  0.51100000000E-03 0.  1.
         11   -1    0    0    0    0 -0.00000000000E+00 -0.00000000000E+00 -0.45593999997E+02  0.45594000000E+02  0.51100000000E-03 0. -1.
         23    2    1    2    0    0  0.00000000000E+00  0.35527136788E-14  0.00000000000E+00  0.91188000000E+02  0.91188000000E+02 0.  0.
    9900012    2    3    3    0    0 -0.13901461820E+02 -0.30019821676E+02  0.16165992222E+02  0.54367086939E+02  0.40000006294E+02 0.  0.
         12    1    3    3    0    0  0.13901461820E+02  0.30019821676E+02 -0.16165992222E+02  0.36820913061E+02  0.00000000000E+00 0. -1.
         11    1    4    4    0    0 -0.99492017978E+01 -0.70126481949E+01  0.30063359846E+01  0.12538018481E+02  0.51100000000E-03 0. -1.
        -11    1    4    4    0    0 -0.79694969607E+01 -0.26695310602E+02  0.19089954613E+02  0.33772457081E+02  0.51100000000E-03 0.  1.
         12    1    4    4    0    0  0.40172369390E+01  0.36881371213E+01 -0.59302983752E+01  0.80566113763E+01  0.00000000000E+00 0. -1.
</event>
<event>
 8    1  0.2500956E-006  0.9118800E+02  0.7816164E-02  0.1184000E+00
        -11   -1    0    0    0    0  0.00000000000E+00  0.00000000000E+00  0.45593999997E+02  0.45594000000E+02  0.51100000000E-03 0. -1.
         11   -1    0    0    0    0 -0.00000000000E+00 -0.00000000000E+00 -0.45593999997E+02  0.45594000000E+02  0.51100000000E-03 0.  1.
         23    2    1    2    0    0  0.00000000000E+00 -0.44408920985E-15  0.00000000000E+00  0.91188000000E+02  0.91188000000E+02 0.  0.
    9900012    2    3    3    0    0  0.17764157516E+02 -0.98565167105E+00 -0.32237299515E+02  0.54367078209E+02  0.39999986393E+02 0.  0.
         12    1    3    3    0    0 -0.17764157516E+02  0.98565167105E+00  0.32237299515E+02  0.36820921791E+02  0.00000000000E+00 0. -1.
         11    1    4    4    0    0  0.22690871065E+02  0.45938776824E+01 -0.55442276852E+01  0.23805835477E+02  0.51100000000E-03 0. -1.
        -11    1    4    4    0    0  0.13521379556E+00  0.92202816974E+00  0.11755091564E+01  0.15000802493E+01  0.51100000000E-03 0.  1.
         12    1    4    4    0    0 -0.50619273442E+01 -0.65015575232E+01 -0.27868580987E+02  0.29061162483E+02  0.00000000000E+00 0. -1.
</event>
<event>
 8    1  0.2500956E-006  0.9118800E+02  0.7816164E-02  0.1184000E+00
        -11   -1    0    0    0    0  0.00000000000E+00  0.00000000000E+00  0.45593999997E+02  0.45594000000E+02  0.51100000000E-03 0.  1.
         11   -1    0    0    0    0 -0.00000000000E+00 -0.00000000000E+00 -0.45593999997E+02  0.45594000000E+02  0.51100000000E-03 0. -1.
         23    2    1    2    0    0  0.35527136788E-14  0.00000000000E+00  0.00000000000E+00  0.91188000000E+02  0.91188000000E+02 0.  0.
    9900012    2    3    3    0    0 -0.28910324181E+02  0.16970428815E+02  0.15230787966E+02  0.54367092889E+02  0.40000019859E+02 0.  0.
         12    1    3    3    0    0  0.28910324181E+02 -0.16970428815E+02 -0.15230787966E+02  0.36820907111E+02  0.00000000000E+00 0. -1.
         11    1    4    4    0    0 -0.11488867889E+02  0.96251602753E+01 -0.32308287948E+01  0.15332190015E+02  0.51100000000E-03 0. -1.
        -11    1    4    4    0    0 -0.16721317055E+02  0.14709338365E+02  0.21576771022E+02  0.31008452512E+02  0.51100000000E-03 0.  1.
         12    1    4    4    0    0 -0.70013923700E+00 -0.73640698253E+01 -0.31151542610E+01  0.80264503619E+01  0.00000000000E+00 0. -1.
</event>
<event>
 8    1  0.2500956E-006  0.9118800E+02  0.7816164E-02  0.1184000E+00
        -11   -1    0    0    0    0  0.00000000000E+00  0.00000000000E+00  0.45593999997E+02  0.45594000000E+02  0.51100000000E-03 0.  1.
         11   -1    0    0    0    0 -0.00000000000E+00 -0.00000000000E+00 -0.45593999997E+02  0.45594000000E+02  0.51100000000E-03 0. -1.
         23    2    1    2    0    0  0.00000000000E+00  0.44408920985E-15 -0.17763568394E-14  0.91188000000E+02  0.91188000000E+02 0.  0.
    9900012    2    3    3    0    0  0.35485376294E+02 -0.22753109459E+01  0.95597752416E+01  0.54367105479E+02  0.40000048561E+02 0.  0.
         12    1    3    3    0    0 -0.35485376294E+02  0.22753109459E+01 -0.95597752416E+01  0.36820894521E+02  0.00000000000E+00 0. -1.
         11    1    4    4    0    0  0.85895101607E+01 -0.53176464672E+01 -0.51259318061E+01  0.11328381433E+02  0.51100000000E-03 0. -1.
        -11    1    4    4    0    0  0.20455199833E+02  0.11794387551E+02 -0.13697970400E+01  0.23651619862E+02  0.51100000000E-03 0.  1.
        -12    1    4    4    0    0  0.64406663003E+01 -0.87520520299E+01  0.16055504088E+02  0.19387104184E+02  0.00000000000E+00 0.  1.
</event>
<event>
 8    1  0.2500956E-006  0.9118800E+02  0.7816164E-02  0.1184000E+00
        -11   -1    0    0    0    0  0.00000000000E+00  0.00000000000E+00  0.45593999997E+02  0.45594000000E+02  0.51100000000E-03 0. -1.
         11   -1    0    0    0    0 -0.00000000000E+00 -0.00000000000E+00 -0.45593999997E+02  0.45594000000E+02  0.51100000000E-03 0.  1.
         23    2    1    2    0    0  0.00000000000E+00  0.00000000000E+00  0.35527136788E-14  0.91188000000E+02  0.91188000000E+02 0.  0.
    9900012    2    3    3    0    0 -0.93678512703E+01 -0.18442928969E+02  0.30461158407E+02  0.54367076086E+02  0.39999981553E+02 0.  0.
        -12    1    3    3    0    0  0.93678512703E+01  0.18442928969E+02 -0.30461158407E+02  0.36820923914E+02  0.00000000000E+00 0.  1.
         11    1    4    4    0    0 -0.15818249769E+02 -0.60790209698E+01  0.32463996485E+02  0.36620794499E+02  0.51100000000E-03 0. -1.
        -11    1    4    4    0    0  0.60323084047E+01 -0.14257739508E+02 -0.88240404079E+00  0.15506466965E+02  0.51100000000E-03 0.  1.
         12    1    4    4    0    0  0.41809009412E+00  0.18938315085E+01 -0.11204340374E+01  0.22398146222E+01  0.00000000000E+00 0. -1.
</event>
<event>
 8    1  0.2500956E-006  0.9118800E+02  0.7816164E-02  0.1184000E+00
        -11   -1    0    0    0    0  0.00000000000E+00  0.00000000000E+00  0.45593999997E+02  0.45594000000E+02  0.51100000000E-03 0. -1.
         11   -1    0    0    0    0 -0.00000000000E+00 -0.00000000000E+00 -0.45593999997E+02  0.45594000000E+02  0.51100000000E-03 0.  1.
         23    2    1    2    0    0  0.00000000000E+00  0.35527136788E-14 -0.17763568394E-14  0.91188000000E+02  0.91188000000E+02 0.  0.
    9900012    2    3    3    0    0  0.13743113914E+02 -0.31291790035E+02 -0.13701443743E+02  0.54367097455E+02  0.40000030267E+02 0.  0.
         12    1    3    3    0    0 -0.13743113914E+02  0.31291790035E+02  0.13701443743E+02  0.36820902545E+02  0.00000000000E+00 0. -1.
         11    1    4    4    0    0  0.37160320359E-01 -0.99869865050E+01  0.17958675711E+01  0.10147237108E+02  0.51100000000E-03 0. -1.
        -11    1    4    4    0    0  0.39647244723E+01 -0.28684342790E+02 -0.86995017475E+01  0.30235606366E+02  0.51100000000E-03 0.  1.
        -12    1    4    4    0    0  0.97412291209E+01  0.73795392599E+01 -0.67978095663E+01  0.13984253980E+02  0.00000000000E+00 0.  1.
</event>
