<event>
 4    1  0.4043938E+000  0.2606632E+03  0.7546771E-02  0.1106745E+00
         21   -1    0    0  501  502  0.00000000000E+00  0.00000000000E+00  0.68414282857E+02  0.68414282857E+02  0.00000000000E+00 0. -1.
         21   -1    0    0  502  503 -0.00000000000E+00 -0.00000000000E+00 -0.10023942198E+04  0.10023942198E+04  0.00000000000E+00 0.  1.
          6    1    1    2  501    0  0.13365284356E+03 -0.14196204760E+03 -0.51841969282E+03  0.58026225403E+03  0.17300000000E+03 0. -1.
         -6    1    1    2    0  503 -0.13365284356E+03  0.14196204760E+03 -0.41556024415E+03  0.49054624865E+03  0.17300000000E+03 0.  1.
<mgrwt>
<rscale>  2 0.26066320E+03</rscale>
<asrwt>0</asrwt>
<pdfrwt beam="1">  1       21 0.10525274E-01 0.26066320E+03</pdfrwt>
<pdfrwt beam="2">  1       21 0.15421450E+00 0.26066320E+03</pdfrwt>
<totfact> 0.19760944E+04</totfact>
</mgrwt>
</event>
<event>
 4    1  0.4043938E+000  0.2095881E+03  0.7546771E-02  0.1141893E+00
         21   -1    0    0  503  502  0.00000000000E+00  0.00000000000E+00  0.63829330302E+03  0.63829330302E+03  0.00000000000E+00 0.  1.
         21   -1    0    0  501  503 -0.00000000000E+00 -0.00000000000E+00 -0.15041595102E+03  0.15041595102E+03  0.00000000000E+00 0.  1.
          6    1    1    2  501    0 -0.10656761490E+03  0.51395571964E+02  0.53439113947E+03  0.57402182128E+03  0.17300000000E+03 0.  1.
         -6    1    1    2    0  502  0.10656761490E+03 -0.51395571964E+02 -0.46513787459E+02  0.21468743276E+03  0.17300000000E+03 0.  1.
<mgrwt>
<rscale>  2 0.20958808E+03</rscale>
<asrwt>0</asrwt>
<pdfrwt beam="1">  1       21 0.98198968E-01 0.20958808E+03</pdfrwt>
<pdfrwt beam="2">  1       21 0.23140916E-01 0.20958808E+03</pdfrwt>
<totfact> 0.14871175E+04</totfact>
</mgrwt>
</event>
<event>
 4    1  0.4043938E+000  0.1842798E+03  0.7546771E-02  0.1163724E+00
         21   -1    0    0  501  502  0.00000000000E+00  0.00000000000E+00  0.89918218766E+02  0.89918218766E+02  0.00000000000E+00 0.  1.
         21   -1    0    0  502  503 -0.00000000000E+00 -0.00000000000E+00 -0.46810302435E+03  0.46810302435E+03  0.00000000000E+00 0.  1.
          6    1    1    2  501    0 -0.61110821549E+02  0.17190599693E+02 -0.31172989832E+03  0.36212508714E+03  0.17300000000E+03 0.  1.
         -6    1    1    2    0  503  0.61110821549E+02 -0.17190599693E+02 -0.66454907266E+02  0.19589615598E+03  0.17300000000E+03 0.  1.
<mgrwt>
<rscale>  2 0.18427981E+03</rscale>
<asrwt>0</asrwt>
<pdfrwt beam="1">  1       21 0.13833572E-01 0.18427981E+03</pdfrwt>
<pdfrwt beam="2">  1       21 0.72015848E-01 0.18427981E+03</pdfrwt>
<totfact> 0.79346197E+04</totfact>
</mgrwt>
</event>
<event>
 4    1  0.4043938E+000  0.2002554E+03  0.7546771E-02  0.1149524E+00
         21   -1    0    0  503  502  0.00000000000E+00  0.00000000000E+00  0.64369912685E+03  0.64369912685E+03  0.00000000000E+00 0.  1.
         21   -1    0    0  501  503 -0.00000000000E+00 -0.00000000000E+00 -0.63306557754E+02  0.63306557754E+02  0.00000000000E+00 0.  1.
          6    1    1    2  501    0 -0.45981067611E+01 -0.10075751169E+03  0.24561349122E+03  0.31690409562E+03  0.17300000000E+03 0. -1.
         -6    1    1    2    0  502  0.45981067611E+01  0.10075751169E+03  0.33477907788E+03  0.39010158899E+03  0.17300000000E+03 0. -1.
<mgrwt>
<rscale>  2 0.20025538E+03</rscale>
<asrwt>0</asrwt>
<pdfrwt beam="1">  1       21 0.99030630E-01 0.20025538E+03</pdfrwt>
<pdfrwt beam="2">  1       21 0.97394709E-02 0.20025538E+03</pdfrwt>
<totfact> 0.71166132E+04</totfact>
</mgrwt>
</event>
<event>
 4    1  0.4043938E+000  0.1938582E+03  0.7546771E-02  0.1155027E+00
         21   -1    0    0  501  502  0.00000000000E+00  0.00000000000E+00  0.15580353645E+03  0.15580353645E+03  0.00000000000E+00 0.  1.
         21   -1    0    0  502  503 -0.00000000000E+00 -0.00000000000E+00 -0.24591669992E+03  0.24591669992E+03  0.00000000000E+00 0.  1.
          6    1    1    2  501    0 -0.66273331732E+02  0.57095041905E+02 -0.17261478120E+02  0.19462517036E+03  0.17300000000E+03 0.  1.
         -6    1    1    2    0  503  0.66273331732E+02 -0.57095041905E+02 -0.72851685352E+02  0.20709506601E+03  0.17300000000E+03 0.  1.
<mgrwt>
<rscale>  2 0.19385819E+03</rscale>
<asrwt>0</asrwt>
<pdfrwt beam="1">  1       21 0.23969775E-01 0.19385819E+03</pdfrwt>
<pdfrwt beam="2">  1       21 0.37833339E-01 0.19385819E+03</pdfrwt>
<totfact> 0.11052844E+05</totfact>
</mgrwt>
</event>
<event>
 4    1  0.4043938E+000  0.1853273E+03  0.7546771E-02  0.1162745E+00
         21   -1    0    0  503  502  0.00000000000E+00  0.00000000000E+00  0.11775909784E+03  0.11775909784E+03  0.00000000000E+00 0.  1.
         21   -1    0    0  501  503 -0.00000000000E+00 -0.00000000000E+00 -0.31920169789E+03  0.31920169789E+03  0.00000000000E+00 0.  1.
          6    1    1    2  501    0 -0.62689550617E+02 -0.22073668793E+02 -0.16489166606E+03  0.24806347604E+03  0.17300000000E+03 0.  1.
         -6    1    1    2    0  502  0.62689550617E+02  0.22073668793E+02 -0.36550933987E+02  0.18889731969E+03  0.17300000000E+03 0.  1.
<mgrwt>
<rscale>  2 0.18532735E+03</rscale>
<asrwt>0</asrwt>
<pdfrwt beam="1">  1       21 0.18116784E-01 0.18532735E+03</pdfrwt>
<pdfrwt beam="2">  1       21 0.49107953E-01 0.18532735E+03</pdfrwt>
<totfact> 0.11003963E+05</totfact>
</mgrwt>
</event>
<event>
 4    1  0.4043938E+000  0.1977795E+03  0.7546771E-02  0.1151626E+00
         21   -1    0    0  503  502  0.00000000000E+00  0.00000000000E+00  0.50367402222E+03  0.50367402222E+03  0.00000000000E+00 0.  1.
         21   -1    0    0  501  503 -0.00000000000E+00 -0.00000000000E+00 -0.81864400162E+02  0.81864400162E+02  0.00000000000E+00 0.  1.
          6    1    1    2  501    0 -0.34558744815E+02  0.89405846226E+02  0.14457823973E+03  0.24498893768E+03  0.17300000000E+03 0.  1.
         -6    1    1    2    0  502  0.34558744815E+02 -0.89405846226E+02  0.27723138233E+03  0.34054948471E+03  0.17300000000E+03 0.  1.
<mgrwt>
<rscale>  2 0.19777945E+03</rscale>
<asrwt>0</asrwt>
<pdfrwt beam="1">  1       21 0.77488309E-01 0.19777945E+03</pdfrwt>
<pdfrwt beam="2">  1       21 0.12594523E-01 0.19777945E+03</pdfrwt>
<totfact> 0.79344244E+04</totfact>
</mgrwt>
</event>
<event>
 4    1  0.4043938E+000  0.3302331E+03  0.7546771E-02  0.1071034E+00
         21   -1    0    0  503  502  0.00000000000E+00  0.00000000000E+00  0.28192152975E+03  0.28192152975E+03  0.00000000000E+00 0.  1.
         21   -1    0    0  501  503 -0.00000000000E+00 -0.00000000000E+00 -0.40012504526E+03  0.40012504526E+03  0.00000000000E+00 0. -1.
          6    1    1    2  501    0 -0.10353944547E+03 -0.26154248356E+03  0.30761881305E+01  0.33024740788E+03  0.17300000000E+03 0.  1.
         -6    1    1    2    0  502  0.10353944547E+03  0.26154248356E+03 -0.12127970365E+03  0.35179916713E+03  0.17300000000E+03 0. -1.
<mgrwt>
<rscale>  2 0.33023308E+03</rscale>
<asrwt>0</asrwt>
<pdfrwt beam="1">  1       21 0.43372543E-01 0.33023308E+03</pdfrwt>
<pdfrwt beam="2">  1       21 0.61557699E-01 0.33023308E+03</pdfrwt>
<totfact> 0.11669141E+04</totfact>
</mgrwt>
</event>
<event>
 4    1  0.4043938E+000  0.2570331E+03  0.7546771E-02  0.1108939E+00
         21   -1    0    0  501  502  0.00000000000E+00  0.00000000000E+00  0.13131745288E+04  0.13131745288E+04  0.00000000000E+00 0.  1.
         21   -1    0    0  502  503 -0.00000000000E+00 -0.00000000000E+00 -0.54632822528E+02  0.54632822528E+02  0.00000000000E+00 0.  1.
          6    1    1    2  501    0  0.31581411565E+02  0.18745572688E+03  0.82164346069E+03  0.86090882885E+03  0.17300000000E+03 0.  1.
         -6    1    1    2    0  503 -0.31581411565E+02 -0.18745572688E+03  0.43689824556E+03  0.50689852246E+03  0.17300000000E+03 0.  1.
<mgrwt>
<rscale>  2 0.25703314E+03</rscale>
<asrwt>0</asrwt>
<pdfrwt beam="1">  1       21 0.20202683E+00 0.25703314E+03</pdfrwt>
<pdfrwt beam="2">  1       21 0.84050506E-02 0.25703314E+03</pdfrwt>
<totfact> 0.13701091E+04</totfact>
</mgrwt>
</event>
<event>
 4    1  0.4043938E+000  0.2693637E+03  0.7546771E-02  0.1101644E+00
         21   -1    0    0  503  502  0.00000000000E+00  0.00000000000E+00  0.71141480349E+02  0.71141480349E+02  0.00000000000E+00 0. -1.
         21   -1    0    0  501  503 -0.00000000000E+00 -0.00000000000E+00 -0.10473784734E+04  0.10473784734E+04  0.00000000000E+00 0.  1.
          6    1    1    2  501    0 -0.14844321751E+03 -0.14350049616E+03 -0.39752348875E+03  0.48018923909E+03  0.17300000000E+03 0.  1.
         -6    1    1    2    0  502  0.14844321751E+03  0.14350049616E+03 -0.57871350431E+03  0.63833071467E+03  0.17300000000E+03 0.  1.
<mgrwt>
<rscale>  2 0.26936366E+03</rscale>
<asrwt>0</asrwt>
<pdfrwt beam="1">  1       21 0.10944844E-01 0.26936366E+03</pdfrwt>
<pdfrwt beam="2">  1       21 0.16113514E+00 0.26936366E+03</pdfrwt>
<totfact> 0.16280296E+04</totfact>
</mgrwt>
</event>
<event>
 4    1  0.4043938E+000  0.1733455E+03  0.7546771E-02  0.1174403E+00
         21   -1    0    0  503  502  0.00000000000E+00  0.00000000000E+00  0.76903513710E+02  0.76903513710E+02  0.00000000000E+00 0. -1.
         21   -1    0    0  501  503 -0.00000000000E+00 -0.00000000000E+00 -0.39176221252E+03  0.39176221252E+03  0.00000000000E+00 0. -1.
          6    1    1    2  501    0 -0.13562074108E+01  0.10854495146E+02 -0.16944638298E+03  0.24240613868E+03  0.17300000000E+03 0.  1.
         -6    1    1    2    0  502  0.13562074108E+01 -0.10854495146E+02 -0.14541231583E+03  0.22625958755E+03  0.17300000000E+03 0.  1.
<mgrwt>
<rscale>  2 0.17334549E+03</rscale>
<asrwt>0</asrwt>
<pdfrwt beam="1">  1       21 0.11831310E-01 0.17334549E+03</pdfrwt>
<pdfrwt beam="2">  1       21 0.60271109E-01 0.17334549E+03</pdfrwt>
<totfact> 0.15543897E+05</totfact>
</mgrwt>
</event>
<event>
 4    1  0.4043938E+000  0.2073637E+03  0.7546771E-02  0.1143671E+00
         21   -1    0    0  503  502  0.00000000000E+00  0.00000000000E+00  0.60969303058E+03  0.60969303058E+03  0.00000000000E+00 0. -1.
         21   -1    0    0  501  503 -0.00000000000E+00 -0.00000000000E+00 -0.77798782977E+02  0.77798782977E+02  0.00000000000E+00 0.  1.
          6    1    1    2  501    0  0.10857103203E+03  0.35819298259E+02  0.16085312471E+03  0.26243745703E+03  0.17300000000E+03 0.  1.
         -6    1    1    2    0  502 -0.10857103203E+03 -0.35819298259E+02  0.37104112289E+03  0.42505435653E+03  0.17300000000E+03 0. -1.
<mgrwt>
<rscale>  2 0.20736367E+03</rscale>
<asrwt>0</asrwt>
<pdfrwt beam="1">  1       21 0.93798924E-01 0.20736367E+03</pdfrwt>
<pdfrwt beam="2">  1       21 0.11969044E-01 0.20736367E+03</pdfrwt>
<totfact> 0.55854037E+04</totfact>
</mgrwt>
</event>
<event>
 4    1  0.4043938E+000  0.2024294E+03  0.7546771E-02  0.1147705E+00
         21   -1    0    0  503  502  0.00000000000E+00  0.00000000000E+00  0.10082409673E+03  0.10082409673E+03  0.00000000000E+00 0. -1.
         21   -1    0    0  501  503 -0.00000000000E+00 -0.00000000000E+00 -0.42991297403E+03  0.42991297403E+03  0.00000000000E+00 0.  1.
          6    1    1    2  501    0  0.19061280395E+02 -0.10336992965E+03 -0.22656844395E+03  0.30382714586E+03  0.17300000000E+03 0.  1.
         -6    1    1    2    0  502 -0.19061280395E+02  0.10336992965E+03 -0.10252043336E+03  0.22690992491E+03  0.17300000000E+03 0. -1.
<mgrwt>
<rscale>  2 0.20242943E+03</rscale>
<asrwt>0</asrwt>
<pdfrwt beam="1">  1       21 0.15511399E-01 0.20242943E+03</pdfrwt>
<pdfrwt beam="2">  1       21 0.66140458E-01 0.20242943E+03</pdfrwt>
<totfact> 0.77101869E+04</totfact>
</mgrwt>
</event>
<event>
 4    1  0.4043938E+000  0.3280496E+03  0.7546771E-02  0.1072003E+00
         21   -1    0    0  501  502  0.00000000000E+00  0.00000000000E+00  0.31591528602E+03  0.31591528602E+03  0.00000000000E+00 0.  1.
         21   -1    0    0  502  503 -0.00000000000E+00 -0.00000000000E+00 -0.39705273696E+03  0.39705273696E+03  0.00000000000E+00 0.  1.
          6    1    1    2  501    0  0.25660050144E+02  0.27754113874E+03  0.93790130173E+02  0.34119365525E+03  0.17300000000E+03 0.  1.
         -6    1    1    2    0  503 -0.25660050144E+02 -0.27754113874E+03 -0.17492758111E+03  0.37177436773E+03  0.17300000000E+03 0.  1.
<mgrwt>
<rscale>  2 0.32804957E+03</rscale>
<asrwt>0</asrwt>
<pdfrwt beam="1">  1       21 0.48602352E-01 0.32804957E+03</pdfrwt>
<pdfrwt beam="2">  1       21 0.61085037E-01 0.32804957E+03</pdfrwt>
<totfact> 0.93666855E+03</totfact>
</mgrwt>
</event>
<event>
 4    1  0.4043938E+000  0.3685096E+03  0.7546771E-02  0.1055264E+00
         21   -1    0    0  501  502  0.00000000000E+00  0.00000000000E+00  0.25156798488E+03  0.25156798488E+03  0.00000000000E+00 0.  1.
         21   -1    0    0  502  503 -0.00000000000E+00 -0.00000000000E+00 -0.95374160262E+03  0.95374160262E+03  0.00000000000E+00 0.  1.
          6    1    1    2  501    0 -0.16432008338E+03  0.28083669590E+03  0.45937096226E+02  0.37136175944E+03  0.17300000000E+03 0.  1.
         -6    1    1    2    0  503  0.16432008338E+03 -0.28083669590E+03 -0.74811071397E+03  0.83394782806E+03  0.17300000000E+03 0.  1.
<mgrwt>
<rscale>  2 0.36850962E+03</rscale>
<asrwt>0</asrwt>
<pdfrwt beam="1">  1       21 0.38702767E-01 0.36850962E+03</pdfrwt>
<pdfrwt beam="2">  1       21 0.14672948E+00 0.36850962E+03</pdfrwt>
<totfact> 0.18064219E+03</totfact>
</mgrwt>
</event>
<event>
 4    1  0.4043938E+000  0.2133987E+03  0.7546771E-02  0.1138903E+00
         21   -1    0    0  503  502  0.00000000000E+00  0.00000000000E+00  0.71719906438E+03  0.71719906438E+03  0.00000000000E+00 0. -1.
         21   -1    0    0  501  503 -0.00000000000E+00 -0.00000000000E+00 -0.71480067776E+02  0.71480067776E+02  0.00000000000E+00 0. -1.
          6    1    1    2  501    0  0.10966201848E+03  0.59868589697E+02  0.19106415961E+03  0.28643414499E+03  0.17300000000E+03 0. -1.
         -6    1    1    2    0  502 -0.10966201848E+03 -0.59868589697E+02  0.45465483699E+03  0.50224498716E+03  0.17300000000E+03 0. -1.
<mgrwt>
<rscale>  2 0.21339870E+03</rscale>
<asrwt>0</asrwt>
<pdfrwt beam="1">  1       21 0.11033831E+00 0.21339870E+03</pdfrwt>
<pdfrwt beam="2">  1       21 0.10996934E-01 0.21339870E+03</pdfrwt>
<totfact> 0.43965350E+04</totfact>
</mgrwt>
</event>
<event>
 4    1  0.4043938E+000  0.1767865E+03  0.7546771E-02  0.1170950E+00
         21   -1    0    0  501  502  0.00000000000E+00  0.00000000000E+00  0.20523482113E+03  0.20523482113E+03  0.00000000000E+00 0.  1.
         21   -1    0    0  502  503 -0.00000000000E+00 -0.00000000000E+00 -0.40825106278E+03  0.40825106278E+03  0.00000000000E+00 0.  1.
          6    1    1    2  501    0 -0.12405165029E+02  0.34213558562E+02  0.14137935643E+03  0.22636602690E+03  0.17300000000E+03 0.  1.
         -6    1    1    2    0  503  0.12405165029E+02 -0.34213558562E+02 -0.34439559808E+03  0.38711985701E+03  0.17300000000E+03 0.  1.
<mgrwt>
<rscale>  2 0.17678647E+03</rscale>
<asrwt>0</asrwt>
<pdfrwt beam="1">  1       21 0.31574588E-01 0.17678647E+03</pdfrwt>
<pdfrwt beam="2">  1       21 0.62807855E-01 0.17678647E+03</pdfrwt>
<totfact> 0.22850261E+04</totfact>
</mgrwt>
</event>
<event>
 4    1  0.4043938E+000  0.1834416E+03  0.7546771E-02  0.1164513E+00
         21   -1    0    0  503  502  0.00000000000E+00  0.00000000000E+00  0.21413435170E+03  0.21413435170E+03  0.00000000000E+00 0.  1.
         21   -1    0    0  501  503 -0.00000000000E+00 -0.00000000000E+00 -0.20760432518E+03  0.20760432518E+03  0.00000000000E+00 0.  1.
          6    1    1    2  501    0  0.10130483585E+02  0.60159675237E+02 -0.10069168563E+03  0.20925971609E+03  0.17300000000E+03 0.  1.
         -6    1    1    2    0  502 -0.10130483585E+02 -0.60159675237E+02  0.10722171216E+03  0.21247896079E+03  0.17300000000E+03 0.  1.
<mgrwt>
<rscale>  2 0.18344158E+03</rscale>
<asrwt>0</asrwt>
<pdfrwt beam="1">  1       21 0.32943746E-01 0.18344158E+03</pdfrwt>
<pdfrwt beam="2">  1       21 0.31939127E-01 0.18344158E+03</pdfrwt>
<totfact> 0.83931578E+04</totfact>
</mgrwt>
</event>
<event>
 4    1  0.4043938E+000  0.1912608E+03  0.7546771E-02  0.1157329E+00
         21   -1    0    0  503  502  0.00000000000E+00  0.00000000000E+00  0.54111290795E+03  0.54111290795E+03  0.00000000000E+00 0.  1.
         21   -1    0    0  501  503 -0.00000000000E+00 -0.00000000000E+00 -0.10351385137E+03  0.10351385137E+03  0.00000000000E+00 0. -1.
          6    1    1    2  501    0  0.23047879681E+02  0.78233527486E+02  0.28956868550E+02  0.19344040379E+03  0.17300000000E+03 0. -1.
         -6    1    1    2    0  502 -0.23047879681E+02 -0.78233527486E+02  0.40864218803E+03  0.45118635553E+03  0.17300000000E+03 0.  1.
<mgrwt>
<rscale>  2 0.19126079E+03</rscale>
<asrwt>0</asrwt>
<pdfrwt beam="1">  1       21 0.83248138E-01 0.19126079E+03</pdfrwt>
<pdfrwt beam="2">  1       21 0.15925208E-01 0.19126079E+03</pdfrwt>
<totfact> 0.44225015E+04</totfact>
</mgrwt>
</event>
<event>
 4    1  0.4043938E+000  0.2092449E+03  0.7546771E-02  0.1142165E+00
         21   -1    0    0  501  502  0.00000000000E+00  0.00000000000E+00  0.38650021920E+03  0.38650021920E+03  0.00000000000E+00 0. -1.
         21   -1    0    0  502  503 -0.00000000000E+00 -0.00000000000E+00 -0.11594253724E+03  0.11594253724E+03  0.00000000000E+00 0.  1.
          6    1    1    2  501    0 -0.11105869517E+03  0.38992277197E+02  0.17333615249E+03  0.27171465403E+03  0.17300000000E+03 0. -1.
         -6    1    1    2    0  503  0.11105869517E+03 -0.38992277197E+02  0.97221529469E+02  0.23072810242E+03  0.17300000000E+03 0.  1.
<mgrwt>
<rscale>  2 0.20924491E+03</rscale>
<asrwt>0</asrwt>
<pdfrwt beam="1">  1       21 0.59461571E-01 0.20924491E+03</pdfrwt>
<pdfrwt beam="2">  1       21 0.17837314E-01 0.20924491E+03</pdfrwt>
<totfact> 0.74877780E+04</totfact>
</mgrwt>
</event>
<event>
 4    1  0.4043938E+000  0.2025391E+03  0.7546771E-02  0.1147614E+00
         21   -1    0    0  501  502  0.00000000000E+00  0.00000000000E+00  0.26432702116E+03  0.26432702116E+03  0.00000000000E+00 0. -1.
         21   -1    0    0  502  503 -0.00000000000E+00 -0.00000000000E+00 -0.20822781935E+03  0.20822781935E+03  0.00000000000E+00 0. -1.
          6    1    1    2  501    0  0.56065983681E+02 -0.89161055196E+02  0.14729110067E+03  0.25043313803E+03  0.17300000000E+03 0. -1.
         -6    1    1    2    0  503 -0.56065983681E+02  0.89161055196E+02 -0.91191898858E+02  0.22212170247E+03  0.17300000000E+03 0. -1.
<mgrwt>
<rscale>  2 0.20253910E+03</rscale>
<asrwt>0</asrwt>
<pdfrwt beam="1">  1       21 0.40665696E-01 0.20253910E+03</pdfrwt>
<pdfrwt beam="2">  1       21 0.32035049E-01 0.20253910E+03</pdfrwt>
<totfact> 0.54342226E+04</totfact>
</mgrwt>
</event>
<event>
 4    1  0.4043938E+000  0.2045996E+03  0.7546771E-02  0.1145915E+00
         21   -1    0    0  503  502  0.00000000000E+00  0.00000000000E+00  0.33834722411E+03  0.33834722411E+03  0.00000000000E+00 0.  1.
         21   -1    0    0  501  503 -0.00000000000E+00 -0.00000000000E+00 -0.14302154209E+03  0.14302154209E+03  0.00000000000E+00 0. -1.
          6    1    1    2  501    0  0.10861879893E+03 -0.11573384787E+02  0.92488550712E+01  0.20480851554E+03  0.17300000000E+03 0. -1.
         -6    1    1    2    0  502 -0.10861879893E+03  0.11573384787E+02  0.18607682695E+03  0.27656025066E+03  0.17300000000E+03 0.  1.
<mgrwt>
<rscale>  2 0.20459958E+03</rscale>
<asrwt>0</asrwt>
<pdfrwt beam="1">  1       21 0.52053419E-01 0.20459958E+03</pdfrwt>
<pdfrwt beam="2">  1       21 0.22003314E-01 0.20459958E+03</pdfrwt>
<totfact> 0.67231217E+04</totfact>
</mgrwt>
</event>
<event>
 4    1  0.4043938E+000  0.1876518E+03  0.7546771E-02  0.1160596E+00
         21   -1    0    0  501  502  0.00000000000E+00  0.00000000000E+00  0.26965933264E+03  0.26965933264E+03  0.00000000000E+00 0.  1.
         21   -1    0    0  502  503 -0.00000000000E+00 -0.00000000000E+00 -0.20949963121E+03  0.20949963121E+03  0.00000000000E+00 0.  1.
          6    1    1    2  501    0  0.22774223417E+02  0.69032946493E+02  0.17712114505E+03  0.25804091338E+03  0.17300000000E+03 0.  1.
         -6    1    1    2    0  503 -0.22774223417E+02 -0.69032946493E+02 -0.11696144362E+03  0.22111805048E+03  0.17300000000E+03 0.  1.
<mgrwt>
<rscale>  2 0.18765184E+03</rscale>
<asrwt>0</asrwt>
<pdfrwt beam="1">  1       21 0.41486051E-01 0.18765184E+03</pdfrwt>
<pdfrwt beam="2">  1       21 0.32230713E-01 0.18765184E+03</pdfrwt>
<totfact> 0.51928789E+04</totfact>
</mgrwt>
</event>
<event>
 4    1  0.4043938E+000  0.2017053E+03  0.7546771E-02  0.1148308E+00
         21   -1    0    0  501  502  0.00000000000E+00  0.00000000000E+00  0.78156609950E+02  0.78156609950E+02  0.00000000000E+00 0.  1.
         21   -1    0    0  502  503 -0.00000000000E+00 -0.00000000000E+00 -0.86380211858E+03  0.86380211858E+03  0.00000000000E+00 0.  1.
          6    1    1    2  501    0 -0.79340608007E+02  0.66791327606E+02 -0.95932061930E+02  0.22335615959E+03  0.17300000000E+03 0.  1.
         -6    1    1    2    0  503  0.79340608007E+02 -0.66791327606E+02 -0.68971344670E+03  0.71860256894E+03  0.17300000000E+03 0.  1.
<mgrwt>
<rscale>  2 0.20170526E+03</rscale>
<asrwt>0</asrwt>
<pdfrwt beam="1">  1       21 0.12024094E-01 0.20170526E+03</pdfrwt>
<pdfrwt beam="2">  1       21 0.13289264E+00 0.20170526E+03</pdfrwt>
<totfact> 0.23769694E+04</totfact>
</mgrwt>
</event>
<event>
 4    1  0.4043938E+000  0.2123653E+03  0.7546771E-02  0.1139706E+00
         21   -1    0    0  501  502  0.00000000000E+00  0.00000000000E+00  0.85601014910E+03  0.85601014910E+03  0.00000000000E+00 0. -1.
         21   -1    0    0  502  503 -0.00000000000E+00 -0.00000000000E+00 -0.11833095797E+03  0.11833095797E+03  0.00000000000E+00 0.  1.
          6    1    1    2  501    0  0.16501945983E+02  0.12205620564E+03  0.73169642888E+03  0.76189152482E+03  0.17300000000E+03 0. -1.
         -6    1    1    2    0  503 -0.16501945983E+02 -0.12205620564E+03  0.59827622514E+01  0.21244958225E+03  0.17300000000E+03 0.  1.
<mgrwt>
<rscale>  2 0.21236533E+03</rscale>
<asrwt>0</asrwt>
<pdfrwt beam="1">  1       21 0.13169387E+00 0.21236533E+03</pdfrwt>
<pdfrwt beam="2">  1       21 0.18204763E-01 0.21236533E+03</pdfrwt>
<totfact> 0.11343143E+04</totfact>
</mgrwt>
</event>
<event>
 4    1  0.4043938E+000  0.2171280E+03  0.7546771E-02  0.1136043E+00
         21   -1    0    0  501  502  0.00000000000E+00  0.00000000000E+00  0.22698616806E+03  0.22698616806E+03  0.00000000000E+00 0.  1.
         21   -1    0    0  502  503 -0.00000000000E+00 -0.00000000000E+00 -0.27215076650E+03  0.27215076650E+03  0.00000000000E+00 0. -1.
          6    1    1    2  501    0  0.12019386742E+03 -0.52621269329E+02  0.98870031016E+02  0.23857880623E+03  0.17300000000E+03 0.  1.
         -6    1    1    2    0  503 -0.12019386742E+03  0.52621269329E+02 -0.14403462946E+03  0.26055812832E+03  0.17300000000E+03 0. -1.
<mgrwt>
<rscale>  2 0.21712799E+03</rscale>
<asrwt>0</asrwt>
<pdfrwt beam="1">  1       21 0.34920949E-01 0.21712799E+03</pdfrwt>
<pdfrwt beam="2">  1       21 0.41869349E-01 0.21712799E+03</pdfrwt>
<totfact> 0.42882617E+04</totfact>
</mgrwt>
</event>
<event>
 4    1  0.4043938E+000  0.2007392E+03  0.7546771E-02  0.1149117E+00
         21   -1    0    0  503  502  0.00000000000E+00  0.00000000000E+00  0.33386614722E+03  0.33386614722E+03  0.00000000000E+00 0.  1.
         21   -1    0    0  501  503 -0.00000000000E+00 -0.00000000000E+00 -0.15807720303E+03  0.15807720303E+03  0.00000000000E+00 0.  1.
          6    1    1    2  501    0  0.23672282555E+01 -0.10179202006E+03 -0.31718606819E+02  0.20322964630E+03  0.17300000000E+03 0.  1.
         -6    1    1    2    0  502 -0.23672282555E+01  0.10179202006E+03  0.20750755101E+03  0.28871370394E+03  0.17300000000E+03 0.  1.
<mgrwt>
<rscale>  2 0.20073918E+03</rscale>
<asrwt>0</asrwt>
<pdfrwt beam="1">  1       21 0.51364022E-01 0.20073918E+03</pdfrwt>
<pdfrwt beam="2">  1       21 0.24319570E-01 0.20073918E+03</pdfrwt>
<totfact> 0.57287039E+04</totfact>
</mgrwt>
</event>
<event>
 4    1  0.4043938E+000  0.2386187E+03  0.7546771E-02  0.1120716E+00
         21   -1    0    0  503  502  0.00000000000E+00  0.00000000000E+00  0.23677329886E+03  0.23677329886E+03  0.00000000000E+00 0.  1.
         21   -1    0    0  501  503 -0.00000000000E+00 -0.00000000000E+00 -0.30545083249E+03  0.30545083249E+03  0.00000000000E+00 0.  1.
          6    1    1    2  501    0  0.23289023261E+00 -0.16434664566E+03 -0.15937693716E+03  0.28694926777E+03  0.17300000000E+03 0.  1.
         -6    1    1    2    0  502 -0.23289023261E+00  0.16434664566E+03  0.90699403518E+02  0.25527486358E+03  0.17300000000E+03 0.  1.
<mgrwt>
<rscale>  2 0.23861868E+03</rscale>
<asrwt>0</asrwt>
<pdfrwt beam="1">  1       21 0.36426661E-01 0.23861868E+03</pdfrwt>
<pdfrwt beam="2">  1       21 0.46992436E-01 0.23861868E+03</pdfrwt>
<totfact> 0.30770365E+04</totfact>
</mgrwt>
</event>
<event>
 4    1  0.4043938E+000  0.1774694E+03  0.7546771E-02  0.1170275E+00
         21   -1    0    0  501  502  0.00000000000E+00  0.00000000000E+00  0.16091520616E+03  0.16091520616E+03  0.00000000000E+00 0.  1.
         21   -1    0    0  502  503 -0.00000000000E+00 -0.00000000000E+00 -0.19574014096E+03  0.19574014096E+03  0.00000000000E+00 0.  1.
          6    1    1    2  501    0  0.33558152027E+02 -0.20981578757E+02 -0.15925863203E+02  0.17818251691E+03  0.17300000000E+03 0. -1.
         -6    1    1    2    0  503 -0.33558152027E+02  0.20981578757E+02 -0.18899071603E+02  0.17847283021E+03  0.17300000000E+03 0. -1.
<mgrwt>
<rscale>  2 0.17746937E+03</rscale>
<asrwt>0</asrwt>
<pdfrwt beam="1">  1       21 0.24756186E-01 0.17746937E+03</pdfrwt>
<pdfrwt beam="2">  1       21 0.30113868E-01 0.17746937E+03</pdfrwt>
<totfact> 0.16401353E+05</totfact>
</mgrwt>
</event>
<event>
 4    1  0.4043938E+000  0.2197247E+03  0.7546771E-02  0.1134088E+00
         21   -1    0    0  503  502  0.00000000000E+00  0.00000000000E+00  0.24994066505E+03  0.24994066505E+03  0.00000000000E+00 0.  1.
         21   -1    0    0  501  503 -0.00000000000E+00 -0.00000000000E+00 -0.20266199071E+03  0.20266199071E+03  0.00000000000E+00 0. -1.
          6    1    1    2  501    0 -0.13496514169E+03 -0.11590296299E+02 -0.25358058134E+02  0.22118308152E+03  0.17300000000E+03 0.  1.
         -6    1    1    2    0  502  0.13496514169E+03  0.11590296299E+02  0.72636732466E+02  0.23141957424E+03  0.17300000000E+03 0.  1.
<mgrwt>
<rscale>  2 0.21972466E+03</rscale>
<asrwt>0</asrwt>
<pdfrwt beam="1">  1       21 0.38452410E-01 0.21972466E+03</pdfrwt>
<pdfrwt beam="2">  1       21 0.31178768E-01 0.21972466E+03</pdfrwt>
<totfact> 0.63686643E+04</totfact>
</mgrwt>
</event>
<event>
 4    1  0.4043938E+000  0.1839365E+03  0.7546771E-02  0.1164047E+00
         21   -1    0    0  501  502  0.00000000000E+00  0.00000000000E+00  0.98590947103E+03  0.98590947103E+03  0.00000000000E+00 0. -1.
         21   -1    0    0  502  503 -0.00000000000E+00 -0.00000000000E+00 -0.34461826707E+02  0.34461826707E+02  0.00000000000E+00 0. -1.
          6    1    1    2  501    0 -0.61929821792E+02  0.82653225112E+01  0.50889435916E+03  0.54111559501E+03  0.17300000000E+03 0. -1.
         -6    1    1    2    0  503  0.61929821792E+02 -0.82653225112E+01  0.44255328517E+03  0.47925570272E+03  0.17300000000E+03 0. -1.
<mgrwt>
<rscale>  2 0.18393645E+03</rscale>
<asrwt>0</asrwt>
<pdfrwt beam="1">  1       21 0.15167836E+00 0.18393645E+03</pdfrwt>
<pdfrwt beam="2">  1       21 0.53018202E-02 0.18393645E+03</pdfrwt>
<totfact> 0.71001485E+04</totfact>
</mgrwt>
</event>
<event>
 4    1  0.4043938E+000  0.2343017E+03  0.7546771E-02  0.1123648E+00
         21   -1    0    0  501  502  0.00000000000E+00  0.00000000000E+00  0.76747908080E+02  0.76747908080E+02  0.00000000000E+00 0.  1.
         21   -1    0    0  502  503 -0.00000000000E+00 -0.00000000000E+00 -0.91793625105E+03  0.91793625105E+03  0.00000000000E+00 0.  1.
          6    1    1    2  501    0 -0.29769610760E+02  0.15518401641E+03 -0.65427015452E+03  0.69495808778E+03  0.17300000000E+03 0.  1.
         -6    1    1    2    0  503  0.29769610760E+02 -0.15518401641E+03 -0.18691818844E+03  0.29972607134E+03  0.17300000000E+03 0.  1.
<mgrwt>
<rscale>  2 0.23430175E+03</rscale>
<asrwt>0</asrwt>
<pdfrwt beam="1">  1       21 0.11807370E-01 0.23430175E+03</pdfrwt>
<pdfrwt beam="2">  1       21 0.14122097E+00 0.23430175E+03</pdfrwt>
<totfact> 0.20595549E+04</totfact>
</mgrwt>
</event>
<event>
 4    1  0.4043938E+000  0.1749197E+03  0.7546771E-02  0.1172812E+00
         21   -1    0    0  501  502  0.00000000000E+00  0.00000000000E+00  0.59839682633E+02  0.59839682633E+02  0.00000000000E+00 0. -1.
         21   -1    0    0  502  503 -0.00000000000E+00 -0.00000000000E+00 -0.51962095390E+03  0.51962095390E+03  0.00000000000E+00 0. -1.
          6    1    1    2  501    0 -0.12746535019E+02 -0.22481827922E+02 -0.26652210728E+03  0.31879607967E+03  0.17300000000E+03 0.  1.
         -6    1    1    2    0  503  0.12746535019E+02  0.22481827922E+02 -0.19325916399E+03  0.26066455687E+03  0.17300000000E+03 0.  1.
<mgrwt>
<rscale>  2 0.17491972E+03</rscale>
<asrwt>0</asrwt>
<pdfrwt beam="1">  1       21 0.92061046E-02 0.17491972E+03</pdfrwt>
<pdfrwt beam="2">  1       21 0.79941689E-01 0.17491972E+03</pdfrwt>
<totfact> 0.13016237E+05</totfact>
</mgrwt>
</event>
<event>
 4    1  0.4043938E+000  0.2722880E+03  0.7546771E-02  0.1099977E+00
         21   -1    0    0  503  502  0.00000000000E+00  0.00000000000E+00  0.38321429371E+03  0.38321429371E+03  0.00000000000E+00 0. -1.
         21   -1    0    0  501  503 -0.00000000000E+00 -0.00000000000E+00 -0.53801811380E+03  0.53801811380E+03  0.00000000000E+00 0.  1.
          6    1    1    2  501    0 -0.17060734475E+03  0.12290188385E+03 -0.44601033533E+03  0.52255713406E+03  0.17300000000E+03 0.  1.
         -6    1    1    2    0  502  0.17060734475E+03 -0.12290188385E+03  0.29120651525E+03  0.39867527345E+03  0.17300000000E+03 0. -1.
<mgrwt>
<rscale>  2 0.27228797E+03</rscale>
<asrwt>0</asrwt>
<pdfrwt beam="1">  1       21 0.58956046E-01 0.27228797E+03</pdfrwt>
<pdfrwt beam="2">  1       21 0.82772017E-01 0.27228797E+03</pdfrwt>
<totfact> 0.32347160E+03</totfact>
</mgrwt>
</event>
<event>
 4    1  0.4043938E+000  0.1901948E+03  0.7546771E-02  0.1158286E+00
         21   -1    0    0  503  502  0.00000000000E+00  0.00000000000E+00  0.31503762600E+03  0.31503762600E+03  0.00000000000E+00 0. -1.
         21   -1    0    0  501  503 -0.00000000000E+00 -0.00000000000E+00 -0.20133608601E+03  0.20133608601E+03  0.00000000000E+00 0. -1.
          6    1    1    2  501    0 -0.40353527324E+02 -0.67945972939E+02 -0.11239205263E+03  0.22092088154E+03  0.17300000000E+03 0. -1.
         -6    1    1    2    0  502  0.40353527324E+02  0.67945972939E+02  0.22609359262E+03  0.29545283047E+03  0.17300000000E+03 0. -1.
<mgrwt>
<rscale>  2 0.19019480E+03</rscale>
<asrwt>0</asrwt>
<pdfrwt beam="1">  1       21 0.48467327E-01 0.19019480E+03</pdfrwt>
<pdfrwt beam="2">  1       21 0.30974783E-01 0.19019480E+03</pdfrwt>
<totfact> 0.40750173E+04</totfact>
</mgrwt>
</event>
<event>
 4    1  0.4043938E+000  0.2610102E+03  0.7546771E-02  0.1106538E+00
         21   -1    0    0  503  502  0.00000000000E+00  0.00000000000E+00  0.91308448497E+02  0.91308448497E+02  0.00000000000E+00 0.  1.
         21   -1    0    0  501  503 -0.00000000000E+00 -0.00000000000E+00 -0.75517861366E+03  0.75517861366E+03  0.00000000000E+00 0. -1.
          6    1    1    2  501    0  0.15606586533E+03  0.11764682793E+03 -0.28555967958E+03  0.38687292623E+03  0.17300000000E+03 0.  1.
         -6    1    1    2    0  502 -0.15606586533E+03 -0.11764682793E+03 -0.37831048558E+03  0.45961413593E+03  0.17300000000E+03 0.  1.
<mgrwt>
<rscale>  2 0.26101021E+03</rscale>
<asrwt>0</asrwt>
<pdfrwt beam="1">  1       21 0.14047454E-01 0.26101021E+03</pdfrwt>
<pdfrwt beam="2">  1       21 0.11618132E+00 0.26101021E+03</pdfrwt>
<totfact> 0.24350099E+04</totfact>
</mgrwt>
</event>
<event>
 4    1  0.4043938E+000  0.1867554E+03  0.7546771E-02  0.1161421E+00
         21   -1    0    0  503  502  0.00000000000E+00  0.00000000000E+00  0.26483304601E+02  0.26483304601E+02  0.00000000000E+00 0.  1.
         21   -1    0    0  501  503 -0.00000000000E+00 -0.00000000000E+00 -0.13335573004E+04  0.13335573004E+04  0.00000000000E+00 0.  1.
          6    1    1    2  501    0 -0.55886127773E+00  0.70343919360E+02 -0.57768408414E+03  0.60712147087E+03  0.17300000000E+03 0.  1.
         -6    1    1    2    0  502  0.55886127773E+00 -0.70343919360E+02 -0.72938991167E+03  0.75291913414E+03  0.17300000000E+03 0.  1.
<mgrwt>
<rscale>  2 0.18675540E+03</rscale>
<asrwt>0</asrwt>
<pdfrwt beam="1">  1       21 0.40743536E-02 0.18675540E+03</pdfrwt>
<pdfrwt beam="2">  1       21 0.20516271E+00 0.18675540E+03</pdfrwt>
<totfact> 0.47477370E+04</totfact>
</mgrwt>
</event>
<event>
 4    1  0.4043938E+000  0.2255460E+03  0.7546771E-02  0.1129815E+00
         21   -1    0    0  503  502  0.00000000000E+00  0.00000000000E+00  0.65869230746E+02  0.65869230746E+02  0.00000000000E+00 0.  1.
         21   -1    0    0  501  503 -0.00000000000E+00 -0.00000000000E+00 -0.77719258586E+03  0.77719258586E+03  0.00000000000E+00 0. -1.
          6    1    1    2  501    0 -0.14130924882E+03  0.31203861349E+02 -0.32222566716E+03  0.39331967322E+03  0.17300000000E+03 0.  1.
         -6    1    1    2    0  502  0.14130924882E+03 -0.31203861349E+02 -0.38909768796E+03  0.44974214339E+03  0.17300000000E+03 0. -1.
<mgrwt>
<rscale>  2 0.22554597E+03</rscale>
<asrwt>0</asrwt>
<pdfrwt beam="1">  1       21 0.10133728E-01 0.22554597E+03</pdfrwt>
<pdfrwt beam="2">  1       21 0.11956809E+00 0.22554597E+03</pdfrwt>
<totfact> 0.41503616E+04</totfact>
</mgrwt>
</event>
<event>
 4    1  0.4043938E+000  0.1857281E+03  0.7546771E-02  0.1162372E+00
         21   -1    0    0  501  502  0.00000000000E+00  0.00000000000E+00  0.15611556127E+03  0.15611556127E+03  0.00000000000E+00 0. -1.
         21   -1    0    0  502  503 -0.00000000000E+00 -0.00000000000E+00 -0.30138029978E+03  0.30138029978E+03  0.00000000000E+00 0.  1.
          6    1    1    2  501    0  0.11211856852E+02  0.66634871678E+02  0.45532724501E+02  0.19122798137E+03  0.17300000000E+03 0. -1.
         -6    1    1    2    0  503 -0.11211856852E+02 -0.66634871678E+02 -0.19079746302E+03  0.26626787968E+03  0.17300000000E+03 0.  1.
<mgrwt>
<rscale>  2 0.18572806E+03</rscale>
<asrwt>0</asrwt>
<pdfrwt beam="1">  1       21 0.24017779E-01 0.18572806E+03</pdfrwt>
<pdfrwt beam="2">  1       21 0.46366200E-01 0.18572806E+03</pdfrwt>
<totfact> 0.73057179E+04</totfact>
</mgrwt>
</event>
<event>
 4    1  0.4043938E+000  0.1737778E+03  0.7546771E-02  0.1173965E+00
         21   -1    0    0  501  502  0.00000000000E+00  0.00000000000E+00  0.24885567758E+02  0.24885567758E+02  0.00000000000E+00 0.  1.
         21   -1    0    0  502  503 -0.00000000000E+00 -0.00000000000E+00 -0.16992002141E+04  0.16992002141E+04  0.00000000000E+00 0.  1.
          6    1    1    2  501    0 -0.20617162110E+01  0.16293299827E+02 -0.12980387463E+04  0.13096195284E+04  0.17300000000E+03 0.  1.
         -6    1    1    2    0  503  0.20617162110E+01 -0.16293299827E+02 -0.37627590000E+03  0.41446625340E+03  0.17300000000E+03 0.  1.
<mgrwt>
<rscale>  2 0.17377780E+03</rscale>
<asrwt>0</asrwt>
<pdfrwt beam="1">  1       21 0.38285474E-02 0.17377780E+03</pdfrwt>
<pdfrwt beam="2">  1       21 0.26141552E+00 0.17377780E+03</pdfrwt>
<totfact> 0.24460605E+04</totfact>
</mgrwt>
</event>
<event>
 4    1  0.4043938E+000  0.1751302E+03  0.7546771E-02  0.1172601E+00
         21   -1    0    0  501  502  0.00000000000E+00  0.00000000000E+00  0.62976977630E+03  0.62976977630E+03  0.00000000000E+00 0. -1.
         21   -1    0    0  502  503 -0.00000000000E+00 -0.00000000000E+00 -0.76908657582E+02  0.76908657582E+02  0.00000000000E+00 0. -1.
          6    1    1    2  501    0  0.71180207652E+01 -0.26285373203E+02  0.49041671186E+03  0.52074863258E+03  0.17300000000E+03 0. -1.
         -6    1    1    2    0  503 -0.71180207652E+01  0.26285373203E+02  0.62444406858E+02  0.18592980130E+03  0.17300000000E+03 0. -1.
<mgrwt>
<rscale>  2 0.17513020E+03</rscale>
<asrwt>0</asrwt>
<pdfrwt beam="1">  1       21 0.96887655E-01 0.17513020E+03</pdfrwt>
<pdfrwt beam="2">  1       21 0.11832102E-01 0.17513020E+03</pdfrwt>
<totfact> 0.53693449E+04</totfact>
</mgrwt>
</event>
<event>
 4    1  0.4043938E+000  0.2018889E+03  0.7546771E-02  0.1148155E+00
         21   -1    0    0  501  502  0.00000000000E+00  0.00000000000E+00  0.10538154697E+03  0.10538154697E+03  0.00000000000E+00 0. -1.
         21   -1    0    0  502  503 -0.00000000000E+00 -0.00000000000E+00 -0.51301475537E+03  0.51301475537E+03  0.00000000000E+00 0. -1.
          6    1    1    2  501    0 -0.69165845953E+02  0.77757353168E+02 -0.50437139259E+02  0.20809378952E+03  0.17300000000E+03 0. -1.
         -6    1    1    2    0  503  0.69165845953E+02 -0.77757353168E+02 -0.35719606914E+03  0.41030251282E+03  0.17300000000E+03 0. -1.
<mgrwt>
<rscale>  2 0.20188888E+03</rscale>
<asrwt>0</asrwt>
<pdfrwt beam="1">  1       21 0.16212546E-01 0.20188888E+03</pdfrwt>
<pdfrwt beam="2">  1       21 0.78925347E-01 0.20188888E+03</pdfrwt>
<totfact> 0.48037624E+04</totfact>
</mgrwt>
</event>
<event>
 4    1  0.4043938E+000  0.2010493E+03  0.7546771E-02  0.1148857E+00
         21   -1    0    0  503  502  0.00000000000E+00  0.00000000000E+00  0.15905259829E+04  0.15905259829E+04  0.00000000000E+00 0.  1.
         21   -1    0    0  501  503 -0.00000000000E+00 -0.00000000000E+00 -0.51032832435E+02  0.51032832435E+02  0.00000000000E+00 0. -1.
          6    1    1    2  501    0 -0.76744027509E+02  0.67839473765E+02  0.18819869393E+03  0.27538988427E+03  0.17300000000E+03 0. -1.
         -6    1    1    2    0  502  0.76744027509E+02 -0.67839473765E+02  0.13512944566E+04  0.13661689311E+04  0.17300000000E+03 0. -1.
<mgrwt>
<rscale>  2 0.20104935E+03</rscale>
<asrwt>0</asrwt>
<pdfrwt beam="1">  1       21 0.24469627E+00 0.20104935E+03</pdfrwt>
<pdfrwt beam="2">  1       21 0.78512062E-02 0.20104935E+03</pdfrwt>
<totfact> 0.87896259E+03</totfact>
</mgrwt>
</event>
<event>
 4    1  0.4043938E+000  0.2029321E+03  0.7546771E-02  0.1147289E+00
         21   -1    0    0  501  502  0.00000000000E+00  0.00000000000E+00  0.25422055308E+04  0.25422055308E+04  0.00000000000E+00 0.  1.
         21   -1    0    0  502  503 -0.00000000000E+00 -0.00000000000E+00 -0.27289446337E+02  0.27289446337E+02  0.00000000000E+00 0.  1.
          6    1    1    2  501    0  0.10357776961E+03 -0.22892471468E+02  0.20764754621E+04  0.20863680798E+04  0.17300000000E+03 0.  1.
         -6    1    1    2    0  503 -0.10357776961E+03  0.22892471468E+02  0.43844062228E+03  0.48312689727E+03  0.17300000000E+03 0.  1.
<mgrwt>
<rscale>  2 0.20293206E+03</rscale>
<asrwt>0</asrwt>
<pdfrwt beam="1">  1       21 0.39110836E+00 0.20293206E+03</pdfrwt>
<pdfrwt beam="2">  1       21 0.41983784E-02 0.20293206E+03</pdfrwt>
<totfact> 0.35235521E+03</totfact>
</mgrwt>
</event>
<event>
 4    1  0.4043938E+000  0.1763206E+03  0.7546771E-02  0.1171412E+00
         21   -1    0    0  501  502  0.00000000000E+00  0.00000000000E+00  0.12166761892E+03  0.12166761892E+03  0.00000000000E+00 0. -1.
         21   -1    0    0  502  503 -0.00000000000E+00 -0.00000000000E+00 -0.84212341605E+03  0.84212341605E+03  0.00000000000E+00 0. -1.
          6    1    1    2  501    0 -0.34017773185E+02 -0.16535336089E+01  0.41966475224E+02  0.18124604301E+03  0.17300000000E+03 0. -1.
         -6    1    1    2    0  503  0.34017773185E+02  0.16535336089E+01 -0.76242227235E+03  0.78254499196E+03  0.17300000000E+03 0. -1.
<mgrwt>
<rscale>  2 0.17632057E+03</rscale>
<asrwt>0</asrwt>
<pdfrwt beam="1">  1       21 0.18718095E-01 0.17632057E+03</pdfrwt>
<pdfrwt beam="2">  1       21 0.12955745E+00 0.17632057E+03</pdfrwt>
<totfact> 0.11521220E+04</totfact>
</mgrwt>
</event>
<event>
 4    1  0.4043938E+000  0.2156795E+03  0.7546771E-02  0.1137146E+00
         21   -1    0    0  501  502  0.00000000000E+00  0.00000000000E+00  0.21843615176E+03  0.21843615176E+03  0.00000000000E+00 0. -1.
         21   -1    0    0  502  503 -0.00000000000E+00 -0.00000000000E+00 -0.31176922651E+03  0.31176922651E+03  0.00000000000E+00 0. -1.
          6    1    1    2  501    0  0.10785309754E+03 -0.70401435150E+02  0.10257901329E+03  0.23883070717E+03  0.17300000000E+03 0. -1.
         -6    1    1    2    0  503 -0.10785309754E+03  0.70401435150E+02 -0.19591208804E+03  0.29137467110E+03  0.17300000000E+03 0. -1.
<mgrwt>
<rscale>  2 0.21567951E+03</rscale>
<asrwt>0</asrwt>
<pdfrwt beam="1">  1       21 0.33605562E-01 0.21567951E+03</pdfrwt>
<pdfrwt beam="2">  1       21 0.47964496E-01 0.21567951E+03</pdfrwt>
<totfact> 0.35009908E+04</totfact>
</mgrwt>
</event>
<event>
 4    1  0.4043938E+000  0.1966094E+03  0.7546771E-02  0.1152632E+00
         21   -1    0    0  503  502  0.00000000000E+00  0.00000000000E+00  0.25888826218E+04  0.25888826218E+04  0.00000000000E+00 0.  1.
         21   -1    0    0  501  503 -0.00000000000E+00 -0.00000000000E+00 -0.24919742214E+02  0.24919742214E+02  0.00000000000E+00 0.  1.
          6    1    1    2  501    0 -0.37059772296E+01  0.93340890434E+02  0.45457113537E+03  0.49526777929E+03  0.17300000000E+03 0.  1.
         -6    1    1    2    0  502  0.37059772296E+01 -0.93340890434E+02  0.21093917442E+04  0.21185345847E+04  0.17300000000E+03 0.  1.
<mgrwt>
<rscale>  2 0.19660940E+03</rscale>
<asrwt>0</asrwt>
<pdfrwt beam="1">  1       21 0.39828942E+00 0.19660940E+03</pdfrwt>
<pdfrwt beam="2">  1       21 0.38338085E-02 0.19660940E+03</pdfrwt>
<totfact> 0.37356612E+03</totfact>
</mgrwt>
</event>
<event>
 4    1  0.4043938E+000  0.2681489E+03  0.7546771E-02  0.1102344E+00
         21   -1    0    0  501  502  0.00000000000E+00  0.00000000000E+00  0.74193562144E+03  0.74193562144E+03  0.00000000000E+00 0.  1.
         21   -1    0    0  502  503 -0.00000000000E+00 -0.00000000000E+00 -0.50269983475E+03  0.50269983475E+03  0.00000000000E+00 0. -1.
          6    1    1    2  501    0 -0.82547285421E+02 -0.18751206821E+03  0.67873956857E+03  0.72978848442E+03  0.17300000000E+03 0.  1.
         -6    1    1    2    0  503  0.82547285421E+02  0.18751206821E+03 -0.43950378188E+03  0.51484697177E+03  0.17300000000E+03 0. -1.
<mgrwt>
<rscale>  2 0.26814890E+03</rscale>
<asrwt>0</asrwt>
<pdfrwt beam="1">  1       21 0.11414394E+00 0.26814890E+03</pdfrwt>
<pdfrwt beam="2">  1       21 0.77338436E-01 0.26814890E+03</pdfrwt>
<totfact> 0.82856180E+02</totfact>
</mgrwt>
</event>
<event>
 4    1  0.4043938E+000  0.1765012E+03  0.7546771E-02  0.1171233E+00
         21   -1    0    0  501  502  0.00000000000E+00  0.00000000000E+00  0.21203456780E+03  0.21203456780E+03  0.00000000000E+00 0.  1.
         21   -1    0    0  502  503 -0.00000000000E+00 -0.00000000000E+00 -0.15245688917E+03  0.15245688917E+03  0.00000000000E+00 0. -1.
          6    1    1    2  501    0 -0.42273541568E+01  0.34724868483E+02 -0.49337100917E+01  0.17657018013E+03  0.17300000000E+03 0. -1.
         -6    1    1    2    0  503  0.42273541568E+01 -0.34724868483E+02  0.64511388729E+02  0.18792127684E+03  0.17300000000E+03 0.  1.
<mgrwt>
<rscale>  2 0.17650124E+03</rscale>
<asrwt>0</asrwt>
<pdfrwt beam="1">  1       21 0.32620703E-01 0.17650124E+03</pdfrwt>
<pdfrwt beam="2">  1       21 0.23454906E-01 0.17650124E+03</pdfrwt>
<totfact> 0.15546852E+05</totfact>
</mgrwt>
</event>
<event>
 4    1  0.4043938E+000  0.2549410E+03  0.7546771E-02  0.1110221E+00
         21   -1    0    0  501  502  0.00000000000E+00  0.00000000000E+00  0.16960439500E+04  0.16960439500E+04  0.00000000000E+00 0.  1.
         21   -1    0    0  502  503 -0.00000000000E+00 -0.00000000000E+00 -0.44721678544E+02  0.44721678544E+02  0.00000000000E+00 0. -1.
          6    1    1    2  501    0 -0.16108145182E+03  0.95491785738E+02  0.11549279514E+04  0.11827313677E+04  0.17300000000E+03 0. -1.
         -6    1    1    2    0  503  0.16108145182E+03 -0.95491785738E+02  0.49639432000E+03  0.55803426077E+03  0.17300000000E+03 0. -1.
<mgrwt>
<rscale>  2 0.25494100E+03</rscale>
<asrwt>0</asrwt>
<pdfrwt beam="1">  1       21 0.26092979E+00 0.25494100E+03</pdfrwt>
<pdfrwt beam="2">  1       21 0.68802596E-02 0.25494100E+03</pdfrwt>
<totfact> 0.84663982E+03</totfact>
</mgrwt>
</event>
<event>
 4    1  0.4043938E+000  0.2719371E+03  0.7546771E-02  0.1100176E+00
         21   -1    0    0  501  502  0.00000000000E+00  0.00000000000E+00  0.94609891583E+02  0.94609891583E+02  0.00000000000E+00 0.  1.
         21   -1    0    0  502  503 -0.00000000000E+00 -0.00000000000E+00 -0.14359791831E+04  0.14359791831E+04  0.00000000000E+00 0.  1.
          6    1    1    2  501    0  0.10918040737E+03 -0.17916590299E+03 -0.15407817620E+03  0.31255378182E+03  0.17300000000E+03 0.  1.
         -6    1    1    2    0  503 -0.10918040737E+03  0.17916590299E+03 -0.11872911153E+04  0.12180352929E+04  0.17300000000E+03 0.  1.
<mgrwt>
<rscale>  2 0.27193709E+03</rscale>
<asrwt>0</asrwt>
<pdfrwt beam="1">  1       21 0.14555367E-01 0.27193709E+03</pdfrwt>
<pdfrwt beam="2">  1       21 0.22091988E+00 0.27193709E+03</pdfrwt>
<totfact> 0.38456610E+03</totfact>
</mgrwt>
</event>
<event>
 4    1  0.4043938E+000  0.2273110E+03  0.7546771E-02  0.1128547E+00
         21   -1    0    0  503  502  0.00000000000E+00  0.00000000000E+00  0.10510293280E+03  0.10510293280E+03  0.00000000000E+00 0. -1.
         21   -1    0    0  501  503 -0.00000000000E+00 -0.00000000000E+00 -0.49642288182E+03  0.49642288182E+03  0.00000000000E+00 0. -1.
          6    1    1    2  501    0  0.16431469017E+02 -0.14653080186E+03 -0.22525619576E+03  0.32001659769E+03  0.17300000000E+03 0. -1.
         -6    1    1    2    0  502 -0.16431469017E+02  0.14653080186E+03 -0.16606375327E+03  0.28150921693E+03  0.17300000000E+03 0. -1.
<mgrwt>
<rscale>  2 0.22731095E+03</rscale>
<asrwt>0</asrwt>
<pdfrwt beam="1">  1       21 0.16169682E-01 0.22731095E+03</pdfrwt>
<pdfrwt beam="2">  1       21 0.76372750E-01 0.22731095E+03</pdfrwt>
<totfact> 0.51365757E+04</totfact>
</mgrwt>
</event>
<event>
 4    1  0.4043938E+000  0.1740129E+03  0.7546771E-02  0.1173726E+00
         21   -1    0    0  503  502  0.00000000000E+00  0.00000000000E+00  0.37651156466E+03  0.37651156466E+03  0.00000000000E+00 0. -1.
         21   -1    0    0  501  503 -0.00000000000E+00 -0.00000000000E+00 -0.16527395112E+03  0.16527395112E+03  0.00000000000E+00 0. -1.
          6    1    1    2  501    0  0.14976479162E+02  0.11278358835E+02 -0.88479372847E+02  0.19521551098E+03  0.17300000000E+03 0. -1.
         -6    1    1    2    0  502 -0.14976479162E+02 -0.11278358835E+02  0.29971698638E+03  0.34657000481E+03  0.17300000000E+03 0. -1.
<mgrwt>
<rscale>  2 0.17401292E+03</rscale>
<asrwt>0</asrwt>
<pdfrwt beam="1">  1       21 0.57924856E-01 0.17401292E+03</pdfrwt>
<pdfrwt beam="2">  1       21 0.25426762E-01 0.17401292E+03</pdfrwt>
<totfact> 0.41361388E+04</totfact>
</mgrwt>
</event>
<event>
 4    1  0.4043938E+000  0.3128316E+03  0.7546771E-02  0.1078996E+00
         21   -1    0    0  501  502  0.00000000000E+00  0.00000000000E+00  0.67316678523E+03  0.67316678523E+03  0.00000000000E+00 0. -1.
         21   -1    0    0  502  503 -0.00000000000E+00 -0.00000000000E+00 -0.15974686540E+03  0.15974686540E+03  0.00000000000E+00 0.  1.
          6    1    1    2  501    0  0.13545132119E+03  0.22268268295E+03  0.13180918819E+03  0.33946619830E+03  0.17300000000E+03 0.  1.
         -6    1    1    2    0  503 -0.13545132119E+03 -0.22268268295E+03  0.38161073164E+03  0.49344745232E+03  0.17300000000E+03 0.  1.
<mgrwt>
<rscale>  2 0.31283164E+03</rscale>
<asrwt>0</asrwt>
<pdfrwt beam="1">  1       21 0.10356412E+00 0.31283164E+03</pdfrwt>
<pdfrwt beam="2">  1       21 0.24576441E-01 0.31283164E+03</pdfrwt>
<totfact> 0.11054301E+04</totfact>
</mgrwt>
</event>
<event>
 4    1  0.4043938E+000  0.1856403E+03  0.7546771E-02  0.1162453E+00
         21   -1    0    0  503  502  0.00000000000E+00  0.00000000000E+00  0.50625598209E+02  0.50625598209E+02  0.00000000000E+00 0. -1.
         21   -1    0    0  501  503 -0.00000000000E+00 -0.00000000000E+00 -0.92902146116E+03  0.92902146116E+03  0.00000000000E+00 0. -1.
          6    1    1    2  501    0 -0.35401393811E+02 -0.57271700704E+02 -0.69242413764E+03  0.71687759957E+03  0.17300000000E+03 0. -1.
         -6    1    1    2    0  502  0.35401393811E+02  0.57271700704E+02 -0.18597172531E+03  0.26276945979E+03  0.17300000000E+03 0. -1.
<mgrwt>
<rscale>  2 0.18564026E+03</rscale>
<asrwt>0</asrwt>
<pdfrwt beam="1">  1       21 0.77885542E-02 0.18564026E+03</pdfrwt>
<pdfrwt beam="2">  1       21 0.14292637E+00 0.18564026E+03</pdfrwt>
<totfact> 0.42809412E+04</totfact>
</mgrwt>
</event>
<event>
 4    1  0.4043938E+000  0.1748185E+03  0.7546771E-02  0.1172914E+00
         21   -1    0    0  501  502  0.00000000000E+00  0.00000000000E+00  0.15644631407E+03  0.15644631407E+03  0.00000000000E+00 0. -1.
         21   -1    0    0  502  503 -0.00000000000E+00 -0.00000000000E+00 -0.51684783693E+03  0.51684783693E+03  0.00000000000E+00 0. -1.
          6    1    1    2  501    0  0.23687266709E+02 -0.84510944036E+01  0.85310979510E+02  0.19452370248E+03  0.17300000000E+03 0. -1.
         -6    1    1    2    0  503 -0.23687266709E+02  0.84510944036E+01 -0.44571250237E+03  0.47877044852E+03  0.17300000000E+03 0. -1.
<mgrwt>
<rscale>  2 0.17481850E+03</rscale>
<asrwt>0</asrwt>
<pdfrwt beam="1">  1       21 0.24068664E-01 0.17481850E+03</pdfrwt>
<pdfrwt beam="2">  1       21 0.79515051E-01 0.17481850E+03</pdfrwt>
<totfact> 0.22946366E+04</totfact>
</mgrwt>
</event>
<event>
 4    1  0.4043938E+000  0.2185980E+03  0.7546771E-02  0.1134933E+00
         21   -1    0    0  503  502  0.00000000000E+00  0.00000000000E+00  0.18523576658E+03  0.18523576658E+03  0.00000000000E+00 0. -1.
         21   -1    0    0  501  503 -0.00000000000E+00 -0.00000000000E+00 -0.30071159384E+03  0.30071159384E+03  0.00000000000E+00 0. -1.
          6    1    1    2  501    0  0.10505220449E+03 -0.82583962158E+02 -0.14934199611E+03  0.26474158774E+03  0.17300000000E+03 0. -1.
         -6    1    1    2    0  502 -0.10505220449E+03  0.82583962158E+02  0.33866168851E+02  0.22120577268E+03  0.17300000000E+03 0. -1.
<mgrwt>
<rscale>  2 0.21859798E+03</rscale>
<asrwt>0</asrwt>
<pdfrwt beam="1">  1       21 0.28497810E-01 0.21859798E+03</pdfrwt>
<pdfrwt beam="2">  1       21 0.46263322E-01 0.21859798E+03</pdfrwt>
<totfact> 0.52067841E+04</totfact>
</mgrwt>
</event>
<event>
 4    1  0.4043938E+000  0.2482717E+03  0.7546771E-02  0.1114402E+00
         21   -1    0    0  501  502  0.00000000000E+00  0.00000000000E+00  0.55557895312E+03  0.55557895312E+03  0.00000000000E+00 0. -1.
         21   -1    0    0  502  503 -0.00000000000E+00 -0.00000000000E+00 -0.13174283560E+03  0.13174283560E+03  0.00000000000E+00 0. -1.
          6    1    1    2  501    0 -0.92244020443E+02  0.15231826972E+03  0.34846238538E+03  0.42786078183E+03  0.17300000000E+03 0. -1.
         -6    1    1    2    0  503  0.92244020443E+02 -0.15231826972E+03  0.75373732135E+02  0.25946100689E+03  0.17300000000E+03 0. -1.
<mgrwt>
<rscale>  2 0.24827165E+03</rscale>
<asrwt>0</asrwt>
<pdfrwt beam="1">  1       21 0.85473684E-01 0.24827165E+03</pdfrwt>
<pdfrwt beam="2">  1       21 0.20268129E-01 0.24827165E+03</pdfrwt>
<totfact> 0.25865069E+04</totfact>
</mgrwt>
</event>
<event>
 4    1  0.4043938E+000  0.1789304E+03  0.7546771E-02  0.1168842E+00
         21   -1    0    0  501  502  0.00000000000E+00  0.00000000000E+00  0.16139029484E+03  0.16139029484E+03  0.00000000000E+00 0. -1.
         21   -1    0    0  502  503 -0.00000000000E+00 -0.00000000000E+00 -0.40886206411E+03  0.40886206411E+03  0.00000000000E+00 0. -1.
          6    1    1    2  501    0 -0.45667988303E+02 -0.12403553099E+01  0.80842360598E+02  0.19634559049E+03  0.17300000000E+03 0. -1.
         -6    1    1    2    0  503  0.45667988303E+02  0.12403553099E+01 -0.32831412986E+03  0.37390676846E+03  0.17300000000E+03 0. -1.
<mgrwt>
<rscale>  2 0.17893044E+03</rscale>
<asrwt>0</asrwt>
<pdfrwt beam="1">  1       21 0.24829276E-01 0.17893044E+03</pdfrwt>
<pdfrwt beam="2">  1       21 0.62901856E-01 0.17893044E+03</pdfrwt>
<totfact> 0.36172528E+04</totfact>
</mgrwt>
</event>
<event>
 4    1  0.4043938E+000  0.2154405E+03  0.7546771E-02  0.1137329E+00
         21   -1    0    0  501  502  0.00000000000E+00  0.00000000000E+00  0.18288268705E+03  0.18288268705E+03  0.00000000000E+00 0.  1.
         21   -1    0    0  502  503 -0.00000000000E+00 -0.00000000000E+00 -0.26560002262E+03  0.26560002262E+03  0.00000000000E+00 0.  1.
          6    1    1    2  501    0 -0.95071947213E+02 -0.86295517534E+02  0.59180309558E+01  0.21552172648E+03  0.17300000000E+03 0.  1.
         -6    1    1    2    0  503  0.95071947213E+02  0.86295517534E+02 -0.88635366522E+02  0.23296098320E+03  0.17300000000E+03 0.  1.
<mgrwt>
<rscale>  2 0.21544046E+03</rscale>
<asrwt>0</asrwt>
<pdfrwt beam="1">  1       21 0.28135798E-01 0.21544046E+03</pdfrwt>
<pdfrwt beam="2">  1       21 0.40861542E-01 0.21544046E+03</pdfrwt>
<totfact> 0.68941622E+04</totfact>
</mgrwt>
</event>
<event>
 4    1  0.4043938E+000  0.1865377E+03  0.7546771E-02  0.1161622E+00
         21   -1    0    0  501  502  0.00000000000E+00  0.00000000000E+00  0.64176406560E+02  0.64176406560E+02  0.00000000000E+00 0. -1.
         21   -1    0    0  502  503 -0.00000000000E+00 -0.00000000000E+00 -0.64604035371E+03  0.64604035371E+03  0.00000000000E+00 0. -1.
          6    1    1    2  501    0 -0.61131528765E+02  0.33619350257E+02 -0.14856207056E+03  0.23846805516E+03  0.17300000000E+03 0. -1.
         -6    1    1    2    0  503  0.61131528765E+02 -0.33619350257E+02 -0.43330187659E+03  0.47174870511E+03  0.17300000000E+03 0. -1.
<mgrwt>
<rscale>  2 0.18653773E+03</rscale>
<asrwt>0</asrwt>
<pdfrwt beam="1">  1       21 0.98732935E-02 0.18653773E+03</pdfrwt>
<pdfrwt beam="2">  1       21 0.99390821E-01 0.18653773E+03</pdfrwt>
<totfact> 0.69319501E+04</totfact>
</mgrwt>
</event>
<event>
 4    1  0.4043938E+000  0.1837677E+03  0.7546771E-02  0.1164206E+00
         21   -1    0    0  503  502  0.00000000000E+00  0.00000000000E+00  0.12004127734E+03  0.12004127734E+03  0.00000000000E+00 0. -1.
         21   -1    0    0  501  503 -0.00000000000E+00 -0.00000000000E+00 -0.32764283449E+03  0.32764283449E+03  0.00000000000E+00 0. -1.
          6    1    1    2  501    0 -0.61977499664E+02 -0.59853775926E+00 -0.18796299733E+03  0.26287003838E+03  0.17300000000E+03 0.  1.
         -6    1    1    2    0  502  0.61977499664E+02  0.59853775926E+00 -0.19638559819E+02  0.18481407345E+03  0.17300000000E+03 0.  1.
<mgrwt>
<rscale>  2 0.18376770E+03</rscale>
<asrwt>0</asrwt>
<pdfrwt beam="1">  1       21 0.18467888E-01 0.18376770E+03</pdfrwt>
<pdfrwt beam="2">  1       21 0.50406591E-01 0.18376770E+03</pdfrwt>
<totfact> 0.10064434E+05</totfact>
</mgrwt>
</event>
<event>
 4    1  0.4043938E+000  0.2098945E+03  0.7546771E-02  0.1141650E+00
         21   -1    0    0  503  502  0.00000000000E+00  0.00000000000E+00  0.57725523288E+03  0.57725523288E+03  0.00000000000E+00 0. -1.
         21   -1    0    0  501  503 -0.00000000000E+00 -0.00000000000E+00 -0.10289874706E+03  0.10289874706E+03  0.00000000000E+00 0.  1.
          6    1    1    2  501    0 -0.68682650299E+02 -0.97001971212E+02  0.64337728706E+02  0.21953366987E+03  0.17300000000E+03 0.  1.
         -6    1    1    2    0  502  0.68682650299E+02  0.97001971212E+02  0.41001875711E+03  0.46062031007E+03  0.17300000000E+03 0.  1.
<mgrwt>
<rscale>  2 0.20989447E+03</rscale>
<asrwt>0</asrwt>
<pdfrwt beam="1">  1       21 0.88808496E-01 0.20989447E+03</pdfrwt>
<pdfrwt beam="2">  1       21 0.15830577E-01 0.20989447E+03</pdfrwt>
<totfact> 0.38169505E+04</totfact>
</mgrwt>
</event>
<event>
 4    1  0.4043938E+000  0.3231767E+03  0.7546771E-02  0.1074197E+00
         21   -1    0    0  501  502  0.00000000000E+00  0.00000000000E+00  0.48957981286E+03  0.48957981286E+03  0.00000000000E+00 0. -1.
         21   -1    0    0  502  503 -0.00000000000E+00 -0.00000000000E+00 -0.22000237286E+03  0.22000237286E+03  0.00000000000E+00 0.  1.
          6    1    1    2  501    0  0.27228900426E+03 -0.19309771662E+02  0.19656553836E+03  0.37826073017E+03  0.17300000000E+03 0.  1.
         -6    1    1    2    0  503 -0.27228900426E+03  0.19309771662E+02  0.73011901640E+02  0.33132145554E+03  0.17300000000E+03 0. -1.
<mgrwt>
<rscale>  2 0.32317668E+03</rscale>
<asrwt>0</asrwt>
<pdfrwt beam="1">  1       21 0.75319971E-01 0.32317668E+03</pdfrwt>
<pdfrwt beam="2">  1       21 0.33846519E-01 0.32317668E+03</pdfrwt>
<totfact> 0.12372048E+04</totfact>
</mgrwt>
</event>
<event>
 4    1  0.4043938E+000  0.2099965E+03  0.7546771E-02  0.1141569E+00
         21   -1    0    0  501  502  0.00000000000E+00  0.00000000000E+00  0.85216716942E+03  0.85216716942E+03  0.00000000000E+00 0.  1.
         21   -1    0    0  502  503 -0.00000000000E+00 -0.00000000000E+00 -0.62979790540E+02  0.62979790540E+02  0.00000000000E+00 0.  1.
          6    1    1    2  501    0 -0.11828529133E+03  0.13346847753E+02  0.20136523332E+03  0.29094072537E+03  0.17300000000E+03 0.  1.
         -6    1    1    2    0  503  0.11828529133E+03 -0.13346847753E+02  0.58782214556E+03  0.62420623459E+03  0.17300000000E+03 0.  1.
<mgrwt>
<rscale>  2 0.20999654E+03</rscale>
<asrwt>0</asrwt>
<pdfrwt beam="1">  1       21 0.13110263E+00 0.20999654E+03</pdfrwt>
<pdfrwt beam="2">  1       21 0.96891992E-02 0.20999654E+03</pdfrwt>
<totfact> 0.35941836E+04</totfact>
</mgrwt>
</event>
<event>
 4    1  0.4043938E+000  0.1884324E+03  0.7546771E-02  0.1159883E+00
         21   -1    0    0  501  502  0.00000000000E+00  0.00000000000E+00  0.69742658007E+02  0.69742658007E+02  0.00000000000E+00 0. -1.
         21   -1    0    0  502  503 -0.00000000000E+00 -0.00000000000E+00 -0.72530560635E+03  0.72530560635E+03  0.00000000000E+00 0.  1.
          6    1    1    2  501    0  0.62569014564E+02  0.40778457912E+02 -0.11074872758E+03  0.21856816986E+03  0.17300000000E+03 0. -1.
         -6    1    1    2    0  503 -0.62569014564E+02 -0.40778457912E+02 -0.54481422076E+03  0.57648009450E+03  0.17300000000E+03 0.  1.
<mgrwt>
<rscale>  2 0.18843239E+03</rscale>
<asrwt>0</asrwt>
<pdfrwt beam="1">  1       21 0.10729640E-01 0.18843239E+03</pdfrwt>
<pdfrwt beam="2">  1       21 0.11158548E+00 0.18843239E+03</pdfrwt>
<totfact> 0.45287838E+04</totfact>
</mgrwt>
</event>
<event>
 4    1  0.4043938E+000  0.2914426E+03  0.7546771E-02  0.1089598E+00
         21   -1    0    0  501  502  0.00000000000E+00  0.00000000000E+00  0.70631544877E+02  0.70631544877E+02  0.00000000000E+00 0. -1.
         21   -1    0    0  502  503 -0.00000000000E+00 -0.00000000000E+00 -0.12900349038E+04  0.12900349038E+04  0.00000000000E+00 0. -1.
          6    1    1    2  501    0  0.22718184934E+03  0.58293827973E+02 -0.78685913649E+03  0.83909836355E+03  0.17300000000E+03 0. -1.
         -6    1    1    2    0  503 -0.22718184934E+03 -0.58293827973E+02 -0.43254422241E+03  0.52156808509E+03  0.17300000000E+03 0. -1.
<mgrwt>
<rscale>  2 0.29144256E+03</rscale>
<asrwt>0</asrwt>
<pdfrwt beam="1">  1       21 0.10866391E-01 0.29144256E+03</pdfrwt>
<pdfrwt beam="2">  1       21 0.19846692E+00 0.29144256E+03</pdfrwt>
<totfact> 0.89749444E+03</totfact>
</mgrwt>
</event>
<event>
 4    1  0.4043938E+000  0.2278566E+03  0.7546771E-02  0.1128158E+00
         21   -1    0    0  501  502  0.00000000000E+00  0.00000000000E+00  0.75679003468E+03  0.75679003468E+03  0.00000000000E+00 0. -1.
         21   -1    0    0  502  503 -0.00000000000E+00 -0.00000000000E+00 -0.69081449805E+02  0.69081449805E+02  0.00000000000E+00 0. -1.
          6    1    1    2  501    0  0.12903860247E+03  0.73066242584E+02  0.37819251804E+03  0.44152940722E+03  0.17300000000E+03 0. -1.
         -6    1    1    2    0  503 -0.12903860247E+03 -0.73066242584E+02  0.30951606683E+03  0.38434207727E+03  0.17300000000E+03 0. -1.
<mgrwt>
<rscale>  2 0.22785661E+03</rscale>
<asrwt>0</asrwt>
<pdfrwt beam="1">  1       21 0.11642923E+00 0.22785661E+03</pdfrwt>
<pdfrwt beam="2">  1       21 0.10627916E-01 0.22785661E+03</pdfrwt>
<totfact> 0.40679709E+04</totfact>
</mgrwt>
</event>
<event>
 4    1  0.4043938E+000  0.1827460E+03  0.7546771E-02  0.1165172E+00
         21   -1    0    0  503  502  0.00000000000E+00  0.00000000000E+00  0.58727720272E+03  0.58727720272E+03  0.00000000000E+00 0. -1.
         21   -1    0    0  501  503 -0.00000000000E+00 -0.00000000000E+00 -0.62856441204E+02  0.62856441204E+02  0.00000000000E+00 0. -1.
          6    1    1    2  501    0  0.46133368354E+02 -0.36589968838E+02  0.16185823642E+03  0.24411923765E+03  0.17300000000E+03 0. -1.
         -6    1    1    2    0  502 -0.46133368354E+02  0.36589968838E+02  0.36256252510E+03  0.40601440627E+03  0.17300000000E+03 0. -1.
<mgrwt>
<rscale>  2 0.18274604E+03</rscale>
<asrwt>0</asrwt>
<pdfrwt beam="1">  1       21 0.90350335E-01 0.18274604E+03</pdfrwt>
<pdfrwt beam="2">  1       21 0.96702221E-02 0.18274604E+03</pdfrwt>
<totfact> 0.90005116E+04</totfact>
</mgrwt>
</event>
<event>
 4    1  0.4043938E+000  0.1798009E+03  0.7546771E-02  0.1167996E+00
         21   -1    0    0  501  502  0.00000000000E+00  0.00000000000E+00  0.98065106377E+02  0.98065106377E+02  0.00000000000E+00 0. -1.
         21   -1    0    0  502  503 -0.00000000000E+00 -0.00000000000E+00 -0.40532000193E+03  0.40532000193E+03  0.00000000000E+00 0. -1.
          6    1    1    2  501    0  0.38635158589E+02 -0.30111457380E+02 -0.44885345968E+02  0.18531883236E+03  0.17300000000E+03 0. -1.
         -6    1    1    2    0  503 -0.38635158589E+02  0.30111457380E+02 -0.26236954958E+03  0.31806627594E+03  0.17300000000E+03 0. -1.
<mgrwt>
<rscale>  2 0.17980093E+03</rscale>
<asrwt>0</asrwt>
<pdfrwt beam="1">  1       21 0.15086939E-01 0.17980093E+03</pdfrwt>
<pdfrwt beam="2">  1       21 0.62356925E-01 0.17980093E+03</pdfrwt>
<totfact> 0.93042044E+04</totfact>
</mgrwt>
</event>
<event>
 4    1  0.4043938E+000  0.2520305E+03  0.7546771E-02  0.1112028E+00
         21   -1    0    0  503  502  0.00000000000E+00  0.00000000000E+00  0.22215375725E+03  0.22215375725E+03  0.00000000000E+00 0. -1.
         21   -1    0    0  501  503 -0.00000000000E+00 -0.00000000000E+00 -0.29290893595E+03  0.29290893595E+03  0.00000000000E+00 0. -1.
          6    1    1    2  501    0  0.11236202110E+03 -0.14479353542E+03  0.43875862634E+01  0.25206872594E+03  0.17300000000E+03 0. -1.
         -6    1    1    2    0  502 -0.11236202110E+03  0.14479353542E+03 -0.75142764964E+02  0.26299396725E+03  0.17300000000E+03 0. -1.
<mgrwt>
<rscale>  2 0.25203054E+03</rscale>
<asrwt>0</asrwt>
<pdfrwt beam="1">  1       21 0.34177501E-01 0.25203054E+03</pdfrwt>
<pdfrwt beam="2">  1       21 0.45062913E-01 0.25203054E+03</pdfrwt>
<totfact> 0.37900122E+04</totfact>
</mgrwt>
</event>
<event>
 4    1  0.4043938E+000  0.3057454E+03  0.7546771E-02  0.1082403E+00
         21   -1    0    0  503  502  0.00000000000E+00  0.00000000000E+00  0.26038189276E+03  0.26038189276E+03  0.00000000000E+00 0.  1.
         21   -1    0    0  501  503 -0.00000000000E+00 -0.00000000000E+00 -0.36246936008E+03  0.36246936008E+03  0.00000000000E+00 0. -1.
          6    1    1    2  501    0  0.56476163951E+02  0.24568614463E+03 -0.81458708655E+02  0.31641074567E+03  0.17300000000E+03 0. -1.
         -6    1    1    2    0  502 -0.56476163951E+02 -0.24568614463E+03 -0.20628758666E+02  0.30644050718E+03  0.17300000000E+03 0. -1.
<mgrwt>
<rscale>  2 0.30574538E+03</rscale>
<asrwt>0</asrwt>
<pdfrwt beam="1">  1       21 0.40058753E-01 0.30574538E+03</pdfrwt>
<pdfrwt beam="2">  1       21 0.55764517E-01 0.30574538E+03</pdfrwt>
<totfact> 0.17188029E+04</totfact>
</mgrwt>
</event>
<event>
 4    1  0.4043938E+000  0.3671090E+03  0.7546771E-02  0.1055804E+00
         21   -1    0    0  503  502  0.00000000000E+00  0.00000000000E+00  0.79324462504E+02  0.79324462504E+02  0.00000000000E+00 0. -1.
         21   -1    0    0  501  503 -0.00000000000E+00 -0.00000000000E+00 -0.18156144051E+04  0.18156144051E+04  0.00000000000E+00 0.  1.
          6    1    1    2  501    0  0.94657302974E+02  0.30964498170E+03 -0.62798225225E+03  0.72741372605E+03  0.17300000000E+03 0. -1.
         -6    1    1    2    0  502 -0.94657302974E+02 -0.30964498170E+03 -0.11083076904E+04  0.11675251416E+04  0.17300000000E+03 0.  1.
<mgrwt>
<rscale>  2 0.36710900E+03</rscale>
<asrwt>0</asrwt>
<pdfrwt beam="1">  1       21 0.12203764E-01 0.36710900E+03</pdfrwt>
<pdfrwt beam="2">  1       21 0.27932528E+00 0.36710900E+03</pdfrwt>
<totfact> 0.22052737E+03</totfact>
</mgrwt>
</event>
<event>
 4    1  0.4043938E+000  0.2044697E+03  0.7546771E-02  0.1146022E+00
         21   -1    0    0  503  502  0.00000000000E+00  0.00000000000E+00  0.50493759748E+02  0.50493759748E+02  0.00000000000E+00 0.  1.
         21   -1    0    0  501  503 -0.00000000000E+00 -0.00000000000E+00 -0.11539724996E+04  0.11539724996E+04  0.00000000000E+00 0. -1.
          6    1    1    2  501    0 -0.10667992678E+03 -0.22321494711E+02 -0.87182802811E+03  0.89548420785E+03  0.17300000000E+03 0. -1.
         -6    1    1    2    0  502  0.10667992678E+03  0.22321494711E+02 -0.23165071178E+03  0.30898205153E+03  0.17300000000E+03 0.  1.
<mgrwt>
<rscale>  2 0.20446969E+03</rscale>
<asrwt>0</asrwt>
<pdfrwt beam="1">  1       21 0.77682720E-02 0.20446969E+03</pdfrwt>
<pdfrwt beam="2">  1       21 0.17753420E+00 0.20446969E+03</pdfrwt>
<totfact> 0.23694765E+04</totfact>
</mgrwt>
</event>
<event>
 4    1  0.4043938E+000  0.2212196E+03  0.7546771E-02  0.1132977E+00
         21   -1    0    0  501  502  0.00000000000E+00  0.00000000000E+00  0.30138307103E+02  0.30138307103E+02  0.00000000000E+00 0. -1.
         21   -1    0    0  502  503 -0.00000000000E+00 -0.00000000000E+00 -0.16594363810E+04  0.16594363810E+04  0.00000000000E+00 0.  1.
          6    1    1    2  501    0 -0.12991850001E+03 -0.46155090956E+02 -0.69082364627E+03  0.72537950020E+03  0.17300000000E+03 0.  1.
         -6    1    1    2    0  503  0.12991850001E+03  0.46155090956E+02 -0.93847442764E+03  0.96419518791E+03  0.17300000000E+03 0. -1.
<mgrwt>
<rscale>  2 0.22121959E+03</rscale>
<asrwt>0</asrwt>
<pdfrwt beam="1">  1       21 0.46366632E-02 0.22121959E+03</pdfrwt>
<pdfrwt beam="2">  1       21 0.25529787E+00 0.22121959E+03</pdfrwt>
<totfact> 0.18461659E+04</totfact>
</mgrwt>
</event>
<event>
 4    1  0.4043938E+000  0.1862317E+03  0.7546771E-02  0.1161905E+00
         21   -1    0    0  503  502  0.00000000000E+00  0.00000000000E+00  0.39745082764E+02  0.39745082764E+02  0.00000000000E+00 0. -1.
         21   -1    0    0  501  503 -0.00000000000E+00 -0.00000000000E+00 -0.88583457354E+03  0.88583457354E+03  0.00000000000E+00 0. -1.
          6    1    1    2  501    0  0.44799980995E+02 -0.52404311765E+02 -0.36651499942E+03  0.41111494133E+03  0.17300000000E+03 0.  1.
         -6    1    1    2    0  502 -0.44799980995E+02  0.52404311765E+02 -0.47957449135E+03  0.51446471497E+03  0.17300000000E+03 0.  1.
<mgrwt>
<rscale>  2 0.18623171E+03</rscale>
<asrwt>0</asrwt>
<pdfrwt beam="1">  1       21 0.61146285E-02 0.18623171E+03</pdfrwt>
<pdfrwt beam="2">  1       21 0.13628223E+00 0.18623171E+03</pdfrwt>
<totfact> 0.73435438E+04</totfact>
</mgrwt>
</event>
<event>
 4    1  0.4043938E+000  0.1803438E+03  0.7546771E-02  0.1167471E+00
         21   -1    0    0  501  502  0.00000000000E+00  0.00000000000E+00  0.21424998976E+04  0.21424998976E+04  0.00000000000E+00 0.  1.
         21   -1    0    0  502  503 -0.00000000000E+00 -0.00000000000E+00 -0.18211333256E+02  0.18211333256E+02  0.00000000000E+00 0.  1.
          6    1    1    2  501    0 -0.18261028571E+02  0.47554222498E+02  0.15028905097E+04  0.15136722741E+04  0.17300000000E+03 0.  1.
         -6    1    1    2    0  503  0.18261028571E+02 -0.47554222498E+02  0.62139805466E+03  0.64703895677E+03  0.17300000000E+03 0.  1.
<mgrwt>
<rscale>  2 0.18034375E+03</rscale>
<asrwt>0</asrwt>
<pdfrwt beam="1">  1       21 0.32961517E+00 0.18034375E+03</pdfrwt>
<pdfrwt beam="2">  1       21 0.28017453E-02 0.18034375E+03</pdfrwt>
<totfact> 0.16535088E+04</totfact>
</mgrwt>
</event>
<event>
 4    1  0.4043938E+000  0.1885382E+03  0.7546771E-02  0.1159786E+00
         21   -1    0    0  503  502  0.00000000000E+00  0.00000000000E+00  0.74786826236E+03  0.74786826236E+03  0.00000000000E+00 0. -1.
         21   -1    0    0  501  503 -0.00000000000E+00 -0.00000000000E+00 -0.78513127667E+02  0.78513127667E+02  0.00000000000E+00 0. -1.
          6    1    1    2  501    0 -0.48662263105E+02  0.57005530972E+02  0.75117644211E+02  0.20295148899E+03  0.17300000000E+03 0. -1.
         -6    1    1    2    0  502  0.48662263105E+02 -0.57005530972E+02  0.59423749048E+03  0.62342990103E+03  0.17300000000E+03 0. -1.
<mgrwt>
<rscale>  2 0.18853818E+03</rscale>
<asrwt>0</asrwt>
<pdfrwt beam="1">  1       21 0.11505665E+00 0.18853818E+03</pdfrwt>
<pdfrwt beam="2">  1       21 0.12078943E-01 0.18853818E+03</pdfrwt>
<totfact> 0.34039273E+04</totfact>
</mgrwt>
</event>
<event>
 4    1  0.4043938E+000  0.2785666E+03  0.7546771E-02  0.1096474E+00
         21   -1    0    0  503  502  0.00000000000E+00  0.00000000000E+00  0.28896916759E+03  0.28896916759E+03  0.00000000000E+00 0. -1.
         21   -1    0    0  501  503 -0.00000000000E+00 -0.00000000000E+00 -0.27995978811E+03  0.27995978811E+03  0.00000000000E+00 0.  1.
          6    1    1    2  501    0  0.21063191394E+03  0.57485383378E+02 -0.52951400424E+02  0.28355462133E+03  0.17300000000E+03 0. -1.
         -6    1    1    2    0  502 -0.21063191394E+03 -0.57485383378E+02  0.61960779907E+02  0.28537433437E+03  0.17300000000E+03 0. -1.
<mgrwt>
<rscale>  2 0.27856664E+03</rscale>
<asrwt>0</asrwt>
<pdfrwt beam="1">  1       21 0.44456795E-01 0.27856664E+03</pdfrwt>
<pdfrwt beam="2">  1       21 0.43070736E-01 0.27856664E+03</pdfrwt>
<totfact> 0.24135513E+04</totfact>
</mgrwt>
</event>
<event>
 4    1  0.4043938E+000  0.2541190E+03  0.7546771E-02  0.1110729E+00
         21   -1    0    0  503  502  0.00000000000E+00  0.00000000000E+00  0.93992948211E+02  0.93992948211E+02  0.00000000000E+00 0.  1.
         21   -1    0    0  501  503 -0.00000000000E+00 -0.00000000000E+00 -0.76256352900E+03  0.76256352900E+03  0.00000000000E+00 0.  1.
          6    1    1    2  501    0  0.90049728578E+01  0.18592038501E+03 -0.46907057132E+03  0.53348259576E+03  0.17300000000E+03 0.  1.
         -6    1    1    2    0  502 -0.90049728578E+01 -0.18592038501E+03 -0.19950000947E+03  0.32307388145E+03  0.17300000000E+03 0.  1.
<mgrwt>
<rscale>  2 0.25411903E+03</rscale>
<asrwt>0</asrwt>
<pdfrwt beam="1">  1       21 0.14460453E-01 0.25411903E+03</pdfrwt>
<pdfrwt beam="2">  1       21 0.11731747E+00 0.25411903E+03</pdfrwt>
<totfact> 0.22622123E+04</totfact>
</mgrwt>
</event>
<event>
 4    1  0.4043938E+000  0.2415412E+03  0.7546771E-02  0.1118770E+00
         21   -1    0    0  503  502  0.00000000000E+00  0.00000000000E+00  0.86283983420E+03  0.86283983420E+03  0.00000000000E+00 0. -1.
         21   -1    0    0  501  503 -0.00000000000E+00 -0.00000000000E+00 -0.68549940192E+02  0.68549940192E+02  0.00000000000E+00 0. -1.
          6    1    1    2  501    0  0.90605017011E+02 -0.14214032157E+03  0.34279990583E+03  0.41934939557E+03  0.17300000000E+03 0. -1.
         -6    1    1    2    0  502 -0.90605017011E+02  0.14214032157E+03  0.45148998818E+03  0.51204037883E+03  0.17300000000E+03 0. -1.
<mgrwt>
<rscale>  2 0.24154118E+03</rscale>
<asrwt>0</asrwt>
<pdfrwt beam="1">  1       21 0.13274458E+00 0.24154118E+03</pdfrwt>
<pdfrwt beam="2">  1       21 0.10546145E-01 0.24154118E+03</pdfrwt>
<totfact> 0.29461471E+04</totfact>
</mgrwt>
</event>
<event>
 4    1  0.4043938E+000  0.2055796E+03  0.7546771E-02  0.1145115E+00
         21   -1    0    0  503  502  0.00000000000E+00  0.00000000000E+00  0.93266823090E+03  0.93266823090E+03  0.00000000000E+00 0. -1.
         21   -1    0    0  501  503 -0.00000000000E+00 -0.00000000000E+00 -0.47597464748E+02  0.47597464748E+02  0.00000000000E+00 0. -1.
          6    1    1    2  501    0 -0.24234395559E+02 -0.10838208935E+03  0.33518256587E+03  0.39320520811E+03  0.17300000000E+03 0. -1.
         -6    1    1    2    0  502  0.24234395559E+02  0.10838208935E+03  0.54988820029E+03  0.58706048755E+03  0.17300000000E+03 0. -1.
<mgrwt>
<rscale>  2 0.20557963E+03</rscale>
<asrwt>0</asrwt>
<pdfrwt beam="1">  1       21 0.14348741E+00 0.20557963E+03</pdfrwt>
<pdfrwt beam="2">  1       21 0.73226876E-02 0.20557963E+03</pdfrwt>
<totfact> 0.46632320E+04</totfact>
</mgrwt>
</event>
<event>
 4    1  0.4043938E+000  0.1754158E+03  0.7546771E-02  0.1172315E+00
         21   -1    0    0  501  502  0.00000000000E+00  0.00000000000E+00  0.19441387149E+03  0.19441387149E+03  0.00000000000E+00 0.  1.
         21   -1    0    0  502  503 -0.00000000000E+00 -0.00000000000E+00 -0.20674778118E+03  0.20674778118E+03  0.00000000000E+00 0.  1.
          6    1    1    2  501    0  0.13627622922E+02  0.25612120269E+02  0.90955959496E+02  0.19759473520E+03  0.17300000000E+03 0.  1.
         -6    1    1    2    0  503 -0.13627622922E+02 -0.25612120269E+02 -0.10328986919E+03  0.20356691747E+03  0.17300000000E+03 0.  1.
<mgrwt>
<rscale>  2 0.17541577E+03</rscale>
<asrwt>0</asrwt>
<pdfrwt beam="1">  1       21 0.29909827E-01 0.17541577E+03</pdfrwt>
<pdfrwt beam="2">  1       21 0.31807351E-01 0.17541577E+03</pdfrwt>
<totfact> 0.10253639E+05</totfact>
</mgrwt>
</event>
<event>
 4    1  0.4043938E+000  0.1754724E+03  0.7546771E-02  0.1172258E+00
         21   -1    0    0  503  502  0.00000000000E+00  0.00000000000E+00  0.88970645031E+02  0.88970645031E+02  0.00000000000E+00 0. -1.
         21   -1    0    0  501  503 -0.00000000000E+00 -0.00000000000E+00 -0.11780800905E+04  0.11780800905E+04  0.00000000000E+00 0. -1.
          6    1    1    2  501    0 -0.15375353098E+02  0.25003353988E+02 -0.10769564270E+04  0.10911579697E+04  0.17300000000E+03 0. -1.
         -6    1    1    2    0  502  0.15375353098E+02 -0.25003353988E+02 -0.12153018412E+02  0.17589276577E+03  0.17300000000E+03 0. -1.
<mgrwt>
<rscale>  2 0.17547242E+03</rscale>
<asrwt>0</asrwt>
<pdfrwt beam="1">  1       21 0.13687791E-01 0.17547242E+03</pdfrwt>
<pdfrwt beam="2">  1       21 0.18124309E+00 0.17547242E+03</pdfrwt>
<totfact> 0.83875137E+03</totfact>
</mgrwt>
</event>
<event>
 4    1  0.4043938E+000  0.2028385E+03  0.7546771E-02  0.1147366E+00
         21   -1    0    0  503  502  0.00000000000E+00  0.00000000000E+00  0.19768217815E+04  0.19768217815E+04  0.00000000000E+00 0.  1.
         21   -1    0    0  501  503 -0.00000000000E+00 -0.00000000000E+00 -0.21569481657E+02  0.21569481657E+02  0.00000000000E+00 0.  1.
          6    1    1    2  501    0 -0.10548487114E+03 -0.93482938788E+01  0.79049303288E+03  0.81610212821E+03  0.17300000000E+03 0.  1.
         -6    1    1    2    0  502  0.10548487114E+03  0.93482938788E+01  0.11647592670E+04  0.11822891350E+04  0.17300000000E+03 0.  1.
<mgrwt>
<rscale>  2 0.20283848E+03</rscale>
<asrwt>0</asrwt>
<pdfrwt beam="1">  1       21 0.30412629E+00 0.20283848E+03</pdfrwt>
<pdfrwt beam="2">  1       21 0.33183833E-02 0.20283848E+03</pdfrwt>
<totfact> 0.17122606E+04</totfact>
</mgrwt>
</event>
<event>
 4    1  0.4043938E+000  0.2268863E+03  0.7546771E-02  0.1128851E+00
         21   -1    0    0  501  502  0.00000000000E+00  0.00000000000E+00  0.48481903731E+03  0.48481903731E+03  0.00000000000E+00 0. -1.
         21   -1    0    0  502  503 -0.00000000000E+00 -0.00000000000E+00 -0.10617905554E+03  0.10617905554E+03  0.00000000000E+00 0.  1.
          6    1    1    2  501    0 -0.12652256356E+03 -0.74434155457E+02  0.18993764334E+03  0.29589476330E+03  0.17300000000E+03 0. -1.
         -6    1    1    2    0  503  0.12652256356E+03  0.74434155457E+02  0.18870233843E+03  0.29510332956E+03  0.17300000000E+03 0. -1.
<mgrwt>
<rscale>  2 0.22688632E+03</rscale>
<asrwt>0</asrwt>
<pdfrwt beam="1">  1       21 0.74587543E-01 0.22688632E+03</pdfrwt>
<pdfrwt beam="2">  1       21 0.16335240E-01 0.22688632E+03</pdfrwt>
<totfact> 0.53171401E+04</totfact>
</mgrwt>
</event>
<event>
 4    1  0.4043938E+000  0.2487311E+03  0.7546771E-02  0.1114109E+00
         21   -1    0    0  503  502  0.00000000000E+00  0.00000000000E+00  0.88197403550E+02  0.88197403550E+02  0.00000000000E+00 0. -1.
         21   -1    0    0  501  503 -0.00000000000E+00 -0.00000000000E+00 -0.72831080127E+03  0.72831080127E+03  0.00000000000E+00 0. -1.
          6    1    1    2  501    0  0.17814816805E+03 -0.14191425216E+02 -0.39844135072E+03  0.46970488213E+03  0.17300000000E+03 0. -1.
         -6    1    1    2    0  502 -0.17814816805E+03  0.14191425216E+02 -0.24167204700E+03  0.34680332269E+03  0.17300000000E+03 0. -1.
<mgrwt>
<rscale>  2 0.24873111E+03</rscale>
<asrwt>0</asrwt>
<pdfrwt beam="1">  1       21 0.13568831E-01 0.24873111E+03</pdfrwt>
<pdfrwt beam="2">  1       21 0.11204782E+00 0.24873111E+03</pdfrwt>
<totfact> 0.28514932E+04</totfact>
</mgrwt>
</event>
<event>
 4    1  0.4043938E+000  0.2332454E+03  0.7546771E-02  0.1124376E+00
         21   -1    0    0  501  502  0.00000000000E+00  0.00000000000E+00  0.20786783484E+03  0.20786783484E+03  0.00000000000E+00 0.  1.
         21   -1    0    0  502  503 -0.00000000000E+00 -0.00000000000E+00 -0.84728140347E+03  0.84728140347E+03  0.00000000000E+00 0.  1.
          6    1    1    2  501    0 -0.15282396761E+03  0.33455398902E+02  0.11888027779E+03  0.26179371505E+03  0.17300000000E+03 0.  1.
         -6    1    1    2    0  503  0.15282396761E+03 -0.33455398902E+02 -0.75829384642E+03  0.79335552327E+03  0.17300000000E+03 0.  1.
<mgrwt>
<rscale>  2 0.23324543E+03</rscale>
<asrwt>0</asrwt>
<pdfrwt beam="1">  1       21 0.31979667E-01 0.23324543E+03</pdfrwt>
<pdfrwt beam="2">  1       21 0.13035099E+00 0.23324543E+03</pdfrwt>
<totfact> 0.39091572E+03</totfact>
</mgrwt>
</event>
<event>
 4    1  0.4043938E+000  0.2083161E+03  0.7546771E-02  0.1142906E+00
         21   -1    0    0  503  502  0.00000000000E+00  0.00000000000E+00  0.79580111192E+03  0.79580111192E+03  0.00000000000E+00 0. -1.
         21   -1    0    0  501  503 -0.00000000000E+00 -0.00000000000E+00 -0.95043989618E+02  0.95043989618E+02  0.00000000000E+00 0. -1.
          6    1    1    2  501    0  0.35816698923E+02  0.11038009246E+03  0.59569077702E+02  0.21666581583E+03  0.17300000000E+03 0. -1.
         -6    1    1    2    0  502 -0.35816698923E+02 -0.11038009246E+03  0.64118804460E+03  0.67417928570E+03  0.17300000000E+03 0. -1.
<mgrwt>
<rscale>  2 0.20831611E+03</rscale>
<asrwt>0</asrwt>
<pdfrwt beam="1">  1       21 0.12243094E+00 0.20831611E+03</pdfrwt>
<pdfrwt beam="2">  1       21 0.14622153E-01 0.20831611E+03</pdfrwt>
<totfact> 0.20441446E+04</totfact>
</mgrwt>
</event>
<event>
 4    1  0.4043938E+000  0.1843942E+03  0.7546771E-02  0.1163617E+00
         21   -1    0    0  503  502  0.00000000000E+00  0.00000000000E+00  0.27076211786E+03  0.27076211786E+03  0.00000000000E+00 0.  1.
         21   -1    0    0  501  503 -0.00000000000E+00 -0.00000000000E+00 -0.25783894493E+03  0.25783894493E+03  0.00000000000E+00 0.  1.
          6    1    1    2  501    0 -0.16365618029E+02 -0.61679774382E+02 -0.18283502796E+03  0.25967263134E+03  0.17300000000E+03 0.  1.
         -6    1    1    2    0  502  0.16365618029E+02  0.61679774382E+02  0.19575820089E+03  0.26892843144E+03  0.17300000000E+03 0.  1.
<mgrwt>
<rscale>  2 0.18439422E+03</rscale>
<asrwt>0</asrwt>
<pdfrwt beam="1">  1       21 0.41655711E-01 0.18439422E+03</pdfrwt>
<pdfrwt beam="2">  1       21 0.39667530E-01 0.18439422E+03</pdfrwt>
<totfact> 0.34134292E+04</totfact>
</mgrwt>
</event>
<event>
 4    1  0.4043938E+000  0.1899758E+03  0.7546771E-02  0.1158483E+00
         21   -1    0    0  501  502  0.00000000000E+00  0.00000000000E+00  0.18887959999E+03  0.18887959999E+03  0.00000000000E+00 0.  1.
         21   -1    0    0  502  503 -0.00000000000E+00 -0.00000000000E+00 -0.28596101259E+03  0.28596101259E+03  0.00000000000E+00 0.  1.
          6    1    1    2  501    0  0.78459120034E+02  0.24429216945E+01  0.88218915384E+02  0.20945972982E+03  0.17300000000E+03 0.  1.
         -6    1    1    2    0  503 -0.78459120034E+02 -0.24429216945E+01 -0.18530032798E+03  0.26538088276E+03  0.17300000000E+03 0.  1.
<mgrwt>
<rscale>  2 0.18997579E+03</rscale>
<asrwt>0</asrwt>
<pdfrwt beam="1">  1       21 0.29058400E-01 0.18997579E+03</pdfrwt>
<pdfrwt beam="2">  1       21 0.43994002E-01 0.18997579E+03</pdfrwt>
<totfact> 0.56346857E+04</totfact>
</mgrwt>
</event>
<event>
 4    1  0.4043938E+000  0.1812119E+03  0.7546771E-02  0.1166635E+00
         21   -1    0    0  503  502  0.00000000000E+00  0.00000000000E+00  0.16983649169E+03  0.16983649169E+03  0.00000000000E+00 0.  1.
         21   -1    0    0  501  503 -0.00000000000E+00 -0.00000000000E+00 -0.15121942522E+04  0.15121942522E+04  0.00000000000E+00 0.  1.
          6    1    1    2  501    0 -0.52063962960E+02  0.14075029647E+02 -0.14565899482E+04  0.14678188035E+04  0.17300000000E+03 0.  1.
         -6    1    1    2    0  502  0.52063962960E+02 -0.14075029647E+02  0.11423218770E+03  0.21421194039E+03  0.17300000000E+03 0.  1.
<mgrwt>
<rscale>  2 0.18121193E+03</rscale>
<asrwt>0</asrwt>
<pdfrwt beam="1">  1       21 0.26128690E-01 0.18121193E+03</pdfrwt>
<pdfrwt beam="2">  1       21 0.23264528E+00 0.18121193E+03</pdfrwt>
<totfact> 0.11898312E+03</totfact>
</mgrwt>
</event>
<event>
 4    1  0.4043938E+000  0.2341140E+03  0.7546771E-02  0.1123777E+00
         21   -1    0    0  501  502  0.00000000000E+00  0.00000000000E+00  0.24974946520E+03  0.24974946520E+03  0.00000000000E+00 0.  1.
         21   -1    0    0  502  503 -0.00000000000E+00 -0.00000000000E+00 -0.30680926536E+03  0.30680926536E+03  0.00000000000E+00 0.  1.
          6    1    1    2  501    0 -0.14536160693E+03  0.61240370440E+02  0.11995515571E+03  0.26305630409E+03  0.17300000000E+03 0.  1.
         -6    1    1    2    0  503  0.14536160693E+03 -0.61240370440E+02 -0.17701495586E+03  0.29350242647E+03  0.17300000000E+03 0.  1.
<mgrwt>
<rscale>  2 0.23411403E+03</rscale>
<asrwt>0</asrwt>
<pdfrwt beam="1">  1       21 0.38422995E-01 0.23411403E+03</pdfrwt>
<pdfrwt beam="2">  1       21 0.47201425E-01 0.23411403E+03</pdfrwt>
<totfact> 0.27443304E+04</totfact>
</mgrwt>
</event>
<event>
 4    1  0.4043938E+000  0.1865663E+03  0.7546771E-02  0.1161595E+00
         21   -1    0    0  503  502  0.00000000000E+00  0.00000000000E+00  0.94704942173E+03  0.94704942173E+03  0.00000000000E+00 0. -1.
         21   -1    0    0  501  503 -0.00000000000E+00 -0.00000000000E+00 -0.41201801380E+02  0.41201801380E+02  0.00000000000E+00 0.  1.
          6    1    1    2  501    0 -0.23611306358E+02  0.65730564295E+02  0.61529013240E+03  0.64295330149E+03  0.17300000000E+03 0. -1.
         -6    1    1    2    0  502  0.23611306358E+02 -0.65730564295E+02  0.29055748795E+03  0.34529792162E+03  0.17300000000E+03 0.  1.
<mgrwt>
<rscale>  2 0.18656634E+03</rscale>
<asrwt>0</asrwt>
<pdfrwt beam="1">  1       21 0.14569990E+00 0.18656634E+03</pdfrwt>
<pdfrwt beam="2">  1       21 0.63387394E-02 0.18656634E+03</pdfrwt>
<totfact> 0.58078972E+04</totfact>
</mgrwt>
</event>
<event>
 4    1  0.4043938E+000  0.1820236E+03  0.7546771E-02  0.1165859E+00
         21   -1    0    0  501  502  0.00000000000E+00  0.00000000000E+00  0.17992972009E+03  0.17992972009E+03  0.00000000000E+00 0. -1.
         21   -1    0    0  502  503 -0.00000000000E+00 -0.00000000000E+00 -0.18471658744E+03  0.18471658744E+03  0.00000000000E+00 0. -1.
          6    1    1    2  501    0 -0.47820628964E+00 -0.56598306461E+02 -0.12563228245E+02  0.18245665699E+03  0.17300000000E+03 0. -1.
         -6    1    1    2    0  503  0.47820628964E+00  0.56598306461E+02  0.77763609021E+01  0.18218965054E+03  0.17300000000E+03 0. -1.
<mgrwt>
<rscale>  2 0.18202362E+03</rscale>
<asrwt>0</asrwt>
<pdfrwt beam="1">  1       21 0.27681495E-01 0.18202362E+03</pdfrwt>
<pdfrwt beam="2">  1       21 0.28417937E-01 0.18202362E+03</pdfrwt>
<totfact> 0.14797132E+05</totfact>
</mgrwt>
</event>
<event>
 4    1  0.4043938E+000  0.1785626E+03  0.7546771E-02  0.1169201E+00
         21   -1    0    0  501  502  0.00000000000E+00  0.00000000000E+00  0.10284419427E+03  0.10284419427E+03  0.00000000000E+00 0.  1.
         21   -1    0    0  502  503 -0.00000000000E+00 -0.00000000000E+00 -0.43326871457E+03  0.43326871457E+03  0.00000000000E+00 0.  1.
          6    1    1    2  501    0 -0.33900222016E+00  0.44221003249E+02 -0.22249094588E+02  0.17994341961E+03  0.17300000000E+03 0.  1.
         -6    1    1    2    0  503  0.33900222016E+00 -0.44221003249E+02 -0.30817542571E+03  0.35616948923E+03  0.17300000000E+03 0.  1.
<mgrwt>
<rscale>  2 0.17856263E+03</rscale>
<asrwt>0</asrwt>
<pdfrwt beam="1">  1       21 0.15822184E-01 0.17856263E+03</pdfrwt>
<pdfrwt beam="2">  1       21 0.66656725E-01 0.17856263E+03</pdfrwt>
<totfact> 0.73864338E+04</totfact>
</mgrwt>
</event>
<event>
 4    1  0.4043938E+000  0.2177417E+03  0.7546771E-02  0.1135578E+00
         21   -1    0    0  501  502  0.00000000000E+00  0.00000000000E+00  0.58733438241E+03  0.58733438241E+03  0.00000000000E+00 0. -1.
         21   -1    0    0  502  503 -0.00000000000E+00 -0.00000000000E+00 -0.90721794874E+03  0.90721794874E+03  0.00000000000E+00 0.  1.
          6    1    1    2  501    0 -0.13217717690E+03 -0.34101334516E+01  0.55331415632E+03  0.59461583454E+03  0.17300000000E+03 0. -1.
         -6    1    1    2    0  503  0.13217717690E+03  0.34101334516E+01 -0.87319772264E+03  0.89993649661E+03  0.17300000000E+03 0.  1.
<mgrwt>
<rscale>  2 0.21774167E+03</rscale>
<asrwt>0</asrwt>
<pdfrwt beam="1">  1       21 0.90359137E-01 0.21774167E+03</pdfrwt>
<pdfrwt beam="2">  1       21 0.13957199E+00 0.21774167E+03</pdfrwt>
<totfact> 0.36498860E+02</totfact>
</mgrwt>
</event>
<event>
 4    1  0.4043938E+000  0.1770085E+03  0.7546771E-02  0.1170730E+00
         21   -1    0    0  501  502  0.00000000000E+00  0.00000000000E+00  0.42748405173E+03  0.42748405173E+03  0.00000000000E+00 0.  1.
         21   -1    0    0  502  503 -0.00000000000E+00 -0.00000000000E+00 -0.23581103180E+03  0.23581103180E+03  0.00000000000E+00 0.  1.
          6    1    1    2  501    0 -0.10806956399E+02  0.35863900186E+02  0.37116058213E+03  0.41120820440E+03  0.17300000000E+03 0.  1.
         -6    1    1    2    0  503  0.10806956399E+02 -0.35863900186E+02 -0.17948756220E+03  0.25208687913E+03  0.17300000000E+03 0.  1.
<mgrwt>
<rscale>  2 0.17700850E+03</rscale>
<asrwt>0</asrwt>
<pdfrwt beam="1">  1       21 0.65766777E-01 0.17700850E+03</pdfrwt>
<pdfrwt beam="2">  1       21 0.36278620E-01 0.17700850E+03</pdfrwt>
<totfact> 0.15722665E+04</totfact>
</mgrwt>
</event>
<event>
 4    1  0.4043938E+000  0.1919793E+03  0.7546771E-02  0.1156688E+00
         21   -1    0    0  503  502  0.00000000000E+00  0.00000000000E+00  0.81214468985E+02  0.81214468985E+02  0.00000000000E+00 0.  1.
         21   -1    0    0  501  503 -0.00000000000E+00 -0.00000000000E+00 -0.64025097437E+03  0.64025097437E+03  0.00000000000E+00 0.  1.
          6    1    1    2  501    0 -0.51286821460E+02  0.65549431447E+02 -0.84857112455E+02  0.20989710706E+03  0.17300000000E+03 0.  1.
         -6    1    1    2    0  502  0.51286821460E+02 -0.65549431447E+02 -0.47417939293E+03  0.51156833630E+03  0.17300000000E+03 0.  1.
<mgrwt>
<rscale>  2 0.19197934E+03</rscale>
<asrwt>0</asrwt>
<pdfrwt beam="1">  1       21 0.12494534E-01 0.19197934E+03</pdfrwt>
<pdfrwt beam="2">  1       21 0.98500150E-01 0.19197934E+03</pdfrwt>
<totfact> 0.46461191E+04</totfact>
</mgrwt>
</event>
<event>
 4    1  0.4043938E+000  0.2793476E+03  0.7546771E-02  0.1096046E+00
         21   -1    0    0  501  502  0.00000000000E+00  0.00000000000E+00  0.78164271403E+03  0.78164271403E+03  0.00000000000E+00 0. -1.
         21   -1    0    0  502  503 -0.00000000000E+00 -0.00000000000E+00 -0.16384889411E+03  0.16384889411E+03  0.00000000000E+00 0. -1.
          6    1    1    2  501    0  0.21421587271E+03 -0.47091871405E+02  0.60438772510E+03  0.66582250392E+03  0.17300000000E+03 0. -1.
         -6    1    1    2    0  503 -0.21421587271E+03  0.47091871405E+02  0.13406094821E+02  0.27966910422E+03  0.17300000000E+03 0. -1.
<mgrwt>
<rscale>  2 0.27934761E+03</rscale>
<asrwt>0</asrwt>
<pdfrwt beam="1">  1       21 0.12025272E+00 0.27934761E+03</pdfrwt>
<pdfrwt beam="2">  1       21 0.25207523E-01 0.27934761E+03</pdfrwt>
<totfact> 0.74070694E+03</totfact>
</mgrwt>
</event>
<event>
 4    1  0.4043938E+000  0.2178956E+03  0.7546771E-02  0.1135462E+00
         21   -1    0    0  501  502  0.00000000000E+00  0.00000000000E+00  0.15269596270E+03  0.15269596270E+03  0.00000000000E+00 0.  1.
         21   -1    0    0  502  503 -0.00000000000E+00 -0.00000000000E+00 -0.38427196579E+03  0.38427196579E+03  0.00000000000E+00 0.  1.
          6    1    1    2  501    0 -0.13853831923E+02 -0.13174812602E+03  0.15019730282E+01  0.21790078772E+03  0.17300000000E+03 0.  1.
         -6    1    1    2    0  503  0.13853831923E+02  0.13174812602E+03 -0.23307797611E+03  0.31906714077E+03  0.17300000000E+03 0.  1.
<mgrwt>
<rscale>  2 0.21789561E+03</rscale>
<asrwt>0</asrwt>
<pdfrwt beam="1">  1       21 0.23491686E-01 0.21789561E+03</pdfrwt>
<pdfrwt beam="2">  1       21 0.59118764E-01 0.21789561E+03</pdfrwt>
<totfact> 0.45045607E+04</totfact>
</mgrwt>
</event>
<event>
 4    1  0.4043938E+000  0.1796841E+03  0.7546771E-02  0.1168109E+00
         21   -1    0    0  501  502  0.00000000000E+00  0.00000000000E+00  0.12502565046E+04  0.12502565046E+04  0.00000000000E+00 0. -1.
         21   -1    0    0  502  503 -0.00000000000E+00 -0.00000000000E+00 -0.35599310178E+02  0.35599310178E+02  0.00000000000E+00 0. -1.
          6    1    1    2  501    0 -0.20268063384E+01 -0.48510638323E+02  0.94423628186E+03  0.96118080815E+03  0.17300000000E+03 0. -1.
         -6    1    1    2    0  503  0.20268063384E+01  0.48510638323E+02  0.27042091252E+03  0.32467500659E+03  0.17300000000E+03 0. -1.
<mgrwt>
<rscale>  2 0.17968414E+03</rscale>
<asrwt>0</asrwt>
<pdfrwt beam="1">  1       21 0.19234712E+00 0.17968414E+03</pdfrwt>
<pdfrwt beam="2">  1       21 0.54768179E-02 0.17968414E+03</pdfrwt>
<totfact> 0.34995034E+04</totfact>
</mgrwt>
</event>
<event>
 4    1  0.4043938E+000  0.1830537E+03  0.7546771E-02  0.1164880E+00
         21   -1    0    0  501  502  0.00000000000E+00  0.00000000000E+00  0.25737222717E+03  0.25737222717E+03  0.00000000000E+00 0.  1.
         21   -1    0    0  502  503 -0.00000000000E+00 -0.00000000000E+00 -0.13476947020E+03  0.13476947020E+03  0.00000000000E+00 0.  1.
          6    1    1    2  501    0 -0.23492411646E+02  0.55025086348E+02  0.25179229884E+02  0.18477729068E+03  0.17300000000E+03 0. -1.
         -6    1    1    2    0  503  0.23492411646E+02 -0.55025086348E+02  0.97423527093E+02  0.20736440669E+03  0.17300000000E+03 0. -1.
<mgrwt>
<rscale>  2 0.18305369E+03</rscale>
<asrwt>0</asrwt>
<pdfrwt beam="1">  1       21 0.39595727E-01 0.18305369E+03</pdfrwt>
<pdfrwt beam="2">  1       21 0.20733765E-01 0.18305369E+03</pdfrwt>
<totfact> 0.13309998E+05</totfact>
</mgrwt>
</event>
<event>
 4    1  0.4043938E+000  0.1778864E+03  0.7546771E-02  0.1169864E+00
         21   -1    0    0  501  502  0.00000000000E+00  0.00000000000E+00  0.48585110354E+03  0.48585110354E+03  0.00000000000E+00 0.  1.
         21   -1    0    0  502  503 -0.00000000000E+00 -0.00000000000E+00 -0.87446752667E+02  0.87446752667E+02  0.00000000000E+00 0.  1.
          6    1    1    2  501    0  0.21530428113E+02  0.35369517278E+02  0.54394233083E+02  0.18601692041E+03  0.17300000000E+03 0.  1.
         -6    1    1    2    0  503 -0.21530428113E+02 -0.35369517278E+02  0.34401011779E+03  0.38728093580E+03  0.17300000000E+03 0.  1.
<mgrwt>
<rscale>  2 0.17788637E+03</rscale>
<asrwt>0</asrwt>
<pdfrwt beam="1">  1       21 0.74746322E-01 0.17788637E+03</pdfrwt>
<pdfrwt beam="2">  1       21 0.13453347E-01 0.17788637E+03</pdfrwt>
<totfact> 0.77033627E+04</totfact>
</mgrwt>
</event>
<event>
 4    1  0.4043938E+000  0.1897464E+03  0.7546771E-02  0.1158690E+00
         21   -1    0    0  501  502  0.00000000000E+00  0.00000000000E+00  0.46308635525E+03  0.46308635525E+03  0.00000000000E+00 0. -1.
         21   -1    0    0  502  503 -0.00000000000E+00 -0.00000000000E+00 -0.12811537666E+03  0.12811537666E+03  0.00000000000E+00 0. -1.
          6    1    1    2  501    0 -0.74825357424E+02  0.21813994482E+02 -0.17860430411E+02  0.19058509764E+03  0.17300000000E+03 0. -1.
         -6    1    1    2    0  503  0.74825357424E+02 -0.21813994482E+02  0.35283140900E+03  0.40061663426E+03  0.17300000000E+03 0. -1.
<mgrwt>
<rscale>  2 0.18974637E+03</rscale>
<asrwt>0</asrwt>
<pdfrwt beam="1">  1       21 0.71244054E-01 0.18974637E+03</pdfrwt>
<pdfrwt beam="2">  1       21 0.19710058E-01 0.18974637E+03</pdfrwt>
<totfact> 0.42337871E+04</totfact>
</mgrwt>
</event>
<event>
 4    1  0.4043938E+000  0.1990224E+03  0.7546771E-02  0.1150566E+00
         21   -1    0    0  503  502  0.00000000000E+00  0.00000000000E+00  0.74638501703E+03  0.74638501703E+03  0.00000000000E+00 0. -1.
         21   -1    0    0  501  503 -0.00000000000E+00 -0.00000000000E+00 -0.61459893327E+02  0.61459893327E+02  0.00000000000E+00 0.  1.
          6    1    1    2  501    0 -0.72844031478E+02 -0.66141292113E+02  0.19321556266E+03  0.27738452931E+03  0.17300000000E+03 0.  1.
         -6    1    1    2    0  502  0.72844031478E+02  0.66141292113E+02  0.49170956104E+03  0.53046038105E+03  0.17300000000E+03 0. -1.
<mgrwt>
<rscale>  2 0.19902242E+03</rscale>
<asrwt>0</asrwt>
<pdfrwt beam="1">  1       21 0.11482846E+00 0.19902242E+03</pdfrwt>
<pdfrwt beam="2">  1       21 0.94553687E-02 0.19902242E+03</pdfrwt>
<totfact> 0.52526465E+04</totfact>
</mgrwt>
</event>
<event>
 4    1  0.4043938E+000  0.1917328E+03  0.7546771E-02  0.1156908E+00
         21   -1    0    0  501  502  0.00000000000E+00  0.00000000000E+00  0.14699123936E+03  0.14699123936E+03  0.00000000000E+00 0. -1.
         21   -1    0    0  502  503 -0.00000000000E+00 -0.00000000000E+00 -0.36822852235E+03  0.36822852235E+03  0.00000000000E+00 0.  1.
          6    1    1    2  501    0  0.55714134748E+02 -0.61060668519E+02  0.35294424070E+02  0.19495426751E+03  0.17300000000E+03 0. -1.
         -6    1    1    2    0  503 -0.55714134748E+02  0.61060668519E+02 -0.25653170706E+03  0.32026549420E+03  0.17300000000E+03 0.  1.
<mgrwt>
<rscale>  2 0.19173281E+03</rscale>
<asrwt>0</asrwt>
<pdfrwt beam="1">  1       21 0.22614037E-01 0.19173281E+03</pdfrwt>
<pdfrwt beam="2">  1       21 0.56650542E-01 0.19173281E+03</pdfrwt>
<totfact> 0.53712829E+04</totfact>
</mgrwt>
</event>
<event>
 4    1  0.4043938E+000  0.1868286E+03  0.7546771E-02  0.1161353E+00
         21   -1    0    0  501  502  0.00000000000E+00  0.00000000000E+00  0.15560268831E+03  0.15560268831E+03  0.00000000000E+00 0.  1.
         21   -1    0    0  502  503 -0.00000000000E+00 -0.00000000000E+00 -0.27996616284E+03  0.27996616284E+03  0.00000000000E+00 0.  1.
          6    1    1    2  501    0  0.68902358285E+02  0.15112610788E+02  0.34911364102E+02  0.19006243534E+03  0.17300000000E+03 0.  1.
         -6    1    1    2    0  503 -0.68902358285E+02 -0.15112610788E+02 -0.15927483863E+03  0.24550641581E+03  0.17300000000E+03 0.  1.
<mgrwt>
<rscale>  2 0.18682860E+03</rscale>
<asrwt>0</asrwt>
<pdfrwt beam="1">  1       21 0.23938875E-01 0.18682860E+03</pdfrwt>
<pdfrwt beam="2">  1       21 0.43071717E-01 0.18682860E+03</pdfrwt>
<totfact> 0.85467222E+04</totfact>
</mgrwt>
</event>
<event>
 4    1  0.4043938E+000  0.1786223E+03  0.7546771E-02  0.1169143E+00
         21   -1    0    0  503  502  0.00000000000E+00  0.00000000000E+00  0.14025076277E+03  0.14025076277E+03  0.00000000000E+00 0. -1.
         21   -1    0    0  501  503 -0.00000000000E+00 -0.00000000000E+00 -0.22761961526E+03  0.22761961526E+03  0.00000000000E+00 0. -1.
          6    1    1    2  501    0 -0.13490992430E+01  0.44442220330E+02 -0.39329741113E+02  0.18290095558E+03  0.17300000000E+03 0. -1.
         -6    1    1    2    0  502  0.13490992430E+01 -0.44442220330E+02 -0.48039111378E+02  0.18496942244E+03  0.17300000000E+03 0. -1.
<mgrwt>
<rscale>  2 0.17862231E+03</rscale>
<asrwt>0</asrwt>
<pdfrwt beam="1">  1       21 0.21577040E-01 0.17862231E+03</pdfrwt>
<pdfrwt beam="2">  1       21 0.35018402E-01 0.17862231E+03</pdfrwt>
<totfact> 0.15809214E+05</totfact>
</mgrwt>
</event>
<event>
 4    1  0.4043938E+000  0.1758586E+03  0.7546771E-02  0.1171872E+00
         21   -1    0    0  503  502  0.00000000000E+00  0.00000000000E+00  0.25197981576E+03  0.25197981576E+03  0.00000000000E+00 0. -1.
         21   -1    0    0  501  503 -0.00000000000E+00 -0.00000000000E+00 -0.12858046613E+03  0.12858046613E+03  0.00000000000E+00 0. -1.
          6    1    1    2  501    0 -0.13267273860E+01 -0.31551311592E+02  0.21121843659E+02  0.17712249363E+03  0.17300000000E+03 0.  1.
         -6    1    1    2    0  502  0.13267273860E+01  0.31551311592E+02  0.10227750597E+03  0.20343778827E+03  0.17300000000E+03 0.  1.
<mgrwt>
<rscale>  2 0.17585860E+03</rscale>
<asrwt>0</asrwt>
<pdfrwt beam="1">  1       21 0.38766125E-01 0.17585860E+03</pdfrwt>
<pdfrwt beam="2">  1       21 0.19781610E-01 0.17585860E+03</pdfrwt>
<totfact> 0.15199382E+05</totfact>
</mgrwt>
</event>
<event>
 4    1  0.4043938E+000  0.4832849E+03  0.7546771E-02  0.1018236E+00
         21   -1    0    0  503  502  0.00000000000E+00  0.00000000000E+00  0.39215446277E+03  0.39215446277E+03  0.00000000000E+00 0.  1.
         21   -1    0    0  501  503 -0.00000000000E+00 -0.00000000000E+00 -0.59725784052E+03  0.59725784052E+03  0.00000000000E+00 0. -1.
          6    1    1    2  501    0  0.34698948313E+03 -0.28850229106E+03 -0.76429327916E+02  0.48929103355E+03  0.17300000000E+03 0. -1.
         -6    1    1    2    0  502 -0.34698948313E+03  0.28850229106E+03 -0.12867404984E+03  0.50012126974E+03  0.17300000000E+03 0.  1.
<mgrwt>
<rscale>  2 0.48328488E+03</rscale>
<asrwt>0</asrwt>
<pdfrwt beam="1">  1       21 0.60331456E-01 0.48328488E+03</pdfrwt>
<pdfrwt beam="2">  1       21 0.91885822E-01 0.48328488E+03</pdfrwt>
<totfact> 0.21910269E+03</totfact>
</mgrwt>
</event>
<event>
 4    1  0.4043938E+000  0.1949847E+03  0.7546771E-02  0.1154041E+00
         21   -1    0    0  503  502  0.00000000000E+00  0.00000000000E+00  0.14148266083E+04  0.14148266083E+04  0.00000000000E+00 0. -1.
         21   -1    0    0  501  503 -0.00000000000E+00 -0.00000000000E+00 -0.27252773231E+02  0.27252773231E+02  0.00000000000E+00 0. -1.
          6    1    1    2  501    0 -0.24777799433E+02 -0.86464328667E+02  0.77903175462E+03  0.80306257178E+03  0.17300000000E+03 0. -1.
         -6    1    1    2    0  502  0.24777799433E+02  0.86464328667E+02  0.60854208044E+03  0.63901680975E+03  0.17300000000E+03 0. -1.
<mgrwt>
<rscale>  2 0.19498466E+03</rscale>
<asrwt>0</asrwt>
<pdfrwt beam="1">  1       21 0.21766557E+00 0.19498466E+03</pdfrwt>
<pdfrwt beam="2">  1       21 0.41927355E-02 0.19498466E+03</pdfrwt>
<totfact> 0.37586960E+04</totfact>
</mgrwt>
</event>
<event>
 4    1  0.4043938E+000  0.2503910E+03  0.7546771E-02  0.1113058E+00
         21   -1    0    0  503  502  0.00000000000E+00  0.00000000000E+00  0.14662480496E+04  0.14662480496E+04  0.00000000000E+00 0. -1.
         21   -1    0    0  501  503 -0.00000000000E+00 -0.00000000000E+00 -0.43534073300E+02  0.43534073300E+02  0.00000000000E+00 0.  1.
          6    1    1    2  501    0 -0.16465024547E+03  0.75212644898E+02  0.81206756915E+03  0.84979372918E+03  0.17300000000E+03 0. -1.
         -6    1    1    2    0  502  0.16465024547E+03 -0.75212644898E+02  0.61064640718E+03  0.65998839376E+03  0.17300000000E+03 0.  1.
<mgrwt>
<rscale>  2 0.25039098E+03</rscale>
<asrwt>0</asrwt>
<pdfrwt beam="1">  1       21 0.22557658E+00 0.25039098E+03</pdfrwt>
<pdfrwt beam="2">  1       21 0.66975509E-02 0.25039098E+03</pdfrwt>
<totfact> 0.14528228E+04</totfact>
</mgrwt>
</event>
<event>
 4    1  0.4043938E+000  0.1803704E+03  0.7546771E-02  0.1167445E+00
         21   -1    0    0  501  502  0.00000000000E+00  0.00000000000E+00  0.66540539672E+02  0.66540539672E+02  0.00000000000E+00 0.  1.
         21   -1    0    0  502  503 -0.00000000000E+00 -0.00000000000E+00 -0.64581994009E+03  0.64581994009E+03  0.00000000000E+00 0.  1.
          6    1    1    2  501    0 -0.22196937033E+02  0.45954092936E+02 -0.11408378784E+03  0.21342116418E+03  0.17300000000E+03 0.  1.
         -6    1    1    2    0  503  0.22196937033E+02 -0.45954092936E+02 -0.46519561258E+03  0.49893931558E+03  0.17300000000E+03 0.  1.
<mgrwt>
<rscale>  2 0.18037040E+03</rscale>
<asrwt>0</asrwt>
<pdfrwt beam="1">  1       21 0.10237006E-01 0.18037040E+03</pdfrwt>
<pdfrwt beam="2">  1       21 0.99356916E-01 0.18037040E+03</pdfrwt>
<totfact> 0.65269656E+04</totfact>
</mgrwt>
</event>
<event>
 4    1  0.4043938E+000  0.1987925E+03  0.7546771E-02  0.1150762E+00
         21   -1    0    0  503  502  0.00000000000E+00  0.00000000000E+00  0.10035953776E+04  0.10035953776E+04  0.00000000000E+00 0.  1.
         21   -1    0    0  501  503 -0.00000000000E+00 -0.00000000000E+00 -0.39847911553E+02  0.39847911553E+02  0.00000000000E+00 0.  1.
          6    1    1    2  501    0  0.83954568998E+02 -0.50409261639E+02  0.42515100113E+03  0.46933126582E+03  0.17300000000E+03 0.  1.
         -6    1    1    2    0  502 -0.83954568998E+02  0.50409261639E+02  0.53859646494E+03  0.57411202336E+03  0.17300000000E+03 0.  1.
<mgrwt>
<rscale>  2 0.19879251E+03</rscale>
<asrwt>0</asrwt>
<pdfrwt beam="1">  1       21 0.15439927E+00 0.19879251E+03</pdfrwt>
<pdfrwt beam="2">  1       21 0.61304487E-02 0.19879251E+03</pdfrwt>
<totfact> 0.52443410E+04</totfact>
</mgrwt>
</event>
<event>
 4    1  0.4043938E+000  0.2197050E+03  0.7546771E-02  0.1134103E+00
         21   -1    0    0  503  502  0.00000000000E+00  0.00000000000E+00  0.15346718478E+03  0.15346718478E+03  0.00000000000E+00 0.  1.
         21   -1    0    0  501  503 -0.00000000000E+00 -0.00000000000E+00 -0.72475123622E+03  0.72475123622E+03  0.00000000000E+00 0. -1.
          6    1    1    2  501    0 -0.13538974121E+03  0.33026994740E+01 -0.61600110729E+03  0.65400890975E+03  0.17300000000E+03 0. -1.
         -6    1    1    2    0  502  0.13538974121E+03 -0.33026994740E+01  0.44717055851E+02  0.22420951125E+03  0.17300000000E+03 0.  1.
<mgrwt>
<rscale>  2 0.21970501E+03</rscale>
<asrwt>0</asrwt>
<pdfrwt beam="1">  1       21 0.23610336E-01 0.21970501E+03</pdfrwt>
<pdfrwt beam="2">  1       21 0.11150019E+00 0.21970501E+03</pdfrwt>
<totfact> 0.10477802E+04</totfact>
</mgrwt>
</event>
<event>
 4    1  0.4043938E+000  0.2478920E+03  0.7546771E-02  0.1114644E+00
         21   -1    0    0  501  502  0.00000000000E+00  0.00000000000E+00  0.58867676564E+03  0.58867676564E+03  0.00000000000E+00 0. -1.
         21   -1    0    0  502  503 -0.00000000000E+00 -0.00000000000E+00 -0.14376075907E+03  0.14376075907E+03  0.00000000000E+00 0.  1.
          6    1    1    2  501    0 -0.85952157189E+02  0.15535017912E+03  0.41411360181E+03  0.48263912676E+03  0.17300000000E+03 0. -1.
         -6    1    1    2    0  503  0.85952157189E+02 -0.15535017912E+03  0.30802404759E+02  0.24979839795E+03  0.17300000000E+03 0.  1.
<mgrwt>
<rscale>  2 0.24789202E+03</rscale>
<asrwt>0</asrwt>
<pdfrwt beam="1">  1       21 0.90565655E-01 0.24789202E+03</pdfrwt>
<pdfrwt beam="2">  1       21 0.22117040E-01 0.24789202E+03</pdfrwt>
<totfact> 0.19180361E+04</totfact>
</mgrwt>
</event>
<event>
 4    1  0.4043938E+000  0.1835996E+03  0.7546771E-02  0.1164364E+00
         21   -1    0    0  501  502  0.00000000000E+00  0.00000000000E+00  0.19005249029E+04  0.19005249029E+04  0.00000000000E+00 0.  1.
         21   -1    0    0  502  503 -0.00000000000E+00 -0.00000000000E+00 -0.23424471181E+02  0.23424471181E+02  0.00000000000E+00 0.  1.
          6    1    1    2  501    0  0.51393854265E+02  0.33741488741E+02  0.14125785474E+04  0.14244602377E+04  0.17300000000E+03 0.  1.
         -6    1    1    2    0  503 -0.51393854265E+02 -0.33741488741E+02  0.46452188437E+03  0.49948913639E+03  0.17300000000E+03 0.  1.
<mgrwt>
<rscale>  2 0.18359961E+03</rscale>
<asrwt>0</asrwt>
<pdfrwt beam="1">  1       21 0.29238833E+00 0.18359961E+03</pdfrwt>
<pdfrwt beam="2">  1       21 0.36037663E-02 0.18359961E+03</pdfrwt>
<totfact> 0.17778435E+04</totfact>
</mgrwt>
</event>
<event>
 4    1  0.4043938E+000  0.1735458E+03  0.7546771E-02  0.1174200E+00
         21   -1    0    0  501  502  0.00000000000E+00  0.00000000000E+00  0.86299122019E+03  0.86299122019E+03  0.00000000000E+00 0.  1.
         21   -1    0    0  502  503 -0.00000000000E+00 -0.00000000000E+00 -0.63755458722E+02  0.63755458722E+02  0.00000000000E+00 0.  1.
          6    1    1    2  501    0 -0.76375860178E+01 -0.11436749938E+02  0.71135507906E+03  0.73221866985E+03  0.17300000000E+03 0.  1.
         -6    1    1    2    0  503  0.76375860178E+01  0.11436749938E+02  0.87880682403E+02  0.19452800906E+03  0.17300000000E+03 0.  1.
<mgrwt>
<rscale>  2 0.17354576E+03</rscale>
<asrwt>0</asrwt>
<pdfrwt beam="1">  1       21 0.13276787E+00 0.17354576E+03</pdfrwt>
<pdfrwt beam="2">  1       21 0.98085327E-02 0.17354576E+03</pdfrwt>
<totfact> 0.34800184E+04</totfact>
</mgrwt>
</event>
<event>
 4    1  0.4043938E+000  0.2177284E+03  0.7546771E-02  0.1135588E+00
         21   -1    0    0  503  502  0.00000000000E+00  0.00000000000E+00  0.12270410252E+04  0.12270410252E+04  0.00000000000E+00 0. -1.
         21   -1    0    0  501  503 -0.00000000000E+00 -0.00000000000E+00 -0.26742513748E+03  0.26742513748E+03  0.00000000000E+00 0.  1.
          6    1    1    2  501    0  0.13205465341E+03  0.61834513662E+01 -0.21134545644E+03  0.30343461984E+03  0.17300000000E+03 0.  1.
         -6    1    1    2    0  502 -0.13205465341E+03 -0.61834513662E+01  0.11709613441E+04  0.11910315428E+04  0.17300000000E+03 0. -1.
<mgrwt>
<rscale>  2 0.21772842E+03</rscale>
<asrwt>0</asrwt>
<pdfrwt beam="1">  1       21 0.18877554E+00 0.21772842E+03</pdfrwt>
<pdfrwt beam="2">  1       21 0.41142329E-01 0.21772842E+03</pdfrwt>
<totfact> 0.88005467E+02</totfact>
</mgrwt>
</event>
<event>
 4    1  0.4043938E+000  0.1952687E+03  0.7546771E-02  0.1153793E+00
         21   -1    0    0  503  502  0.00000000000E+00  0.00000000000E+00  0.35077897000E+03  0.35077897000E+03  0.00000000000E+00 0. -1.
         21   -1    0    0  501  503 -0.00000000000E+00 -0.00000000000E+00 -0.11598748027E+03  0.11598748027E+03  0.00000000000E+00 0. -1.
          6    1    1    2  501    0  0.10000597669E+02 -0.90004757001E+02  0.58898383188E+02  0.20395805397E+03  0.17300000000E+03 0. -1.
         -6    1    1    2    0  502 -0.10000597669E+02  0.90004757001E+02  0.17589310654E+03  0.26280839630E+03  0.17300000000E+03 0. -1.
<mgrwt>
<rscale>  2 0.19526871E+03</rscale>
<asrwt>0</asrwt>
<pdfrwt beam="1">  1       21 0.53965995E-01 0.19526871E+03</pdfrwt>
<pdfrwt beam="2">  1       21 0.17844228E-01 0.19526871E+03</pdfrwt>
<totfact> 0.92535123E+04</totfact>
</mgrwt>
</event>
<event>
 4    1  0.4043938E+000  0.1770519E+03  0.7546771E-02  0.1170687E+00
         21   -1    0    0  503  502  0.00000000000E+00  0.00000000000E+00  0.12072157597E+03  0.12072157597E+03  0.00000000000E+00 0.  1.
         21   -1    0    0  501  503 -0.00000000000E+00 -0.00000000000E+00 -0.39757331573E+03  0.39757331573E+03  0.00000000000E+00 0.  1.
          6    1    1    2  501    0 -0.27223621160E+02  0.26023784701E+02 -0.29105274202E+03  0.34067442164E+03  0.17300000000E+03 0.  1.
         -6    1    1    2    0  502  0.27223621160E+02 -0.26023784701E+02  0.14201002257E+02  0.17762047006E+03  0.17300000000E+03 0.  1.
<mgrwt>
<rscale>  2 0.17705187E+03</rscale>
<asrwt>0</asrwt>
<pdfrwt beam="1">  1       21 0.18572550E-01 0.17705187E+03</pdfrwt>
<pdfrwt beam="2">  1       21 0.61165126E-01 0.17705187E+03</pdfrwt>
<totfact> 0.66323832E+04</totfact>
</mgrwt>
</event>
<event>
 4    1  0.4043938E+000  0.1782506E+03  0.7546771E-02  0.1169507E+00
         21   -1    0    0  501  502  0.00000000000E+00  0.00000000000E+00  0.16802428993E+03  0.16802428993E+03  0.00000000000E+00 0. -1.
         21   -1    0    0  502  503 -0.00000000000E+00 -0.00000000000E+00 -0.27953711422E+03  0.27953711422E+03  0.00000000000E+00 0. -1.
          6    1    1    2  501    0 -0.39258576594E+02 -0.17408282616E+02  0.71528755850E+02  0.19206677759E+03  0.17300000000E+03 0. -1.
         -6    1    1    2    0  503  0.39258576594E+02  0.17408282616E+02 -0.18304158014E+03  0.25549462656E+03  0.17300000000E+03 0. -1.
<mgrwt>
<rscale>  2 0.17825062E+03</rscale>
<asrwt>0</asrwt>
<pdfrwt beam="1">  1       21 0.25849891E-01 0.17825062E+03</pdfrwt>
<pdfrwt beam="2">  1       21 0.43005710E-01 0.17825062E+03</pdfrwt>
<totfact> 0.74322861E+04</totfact>
</mgrwt>
</event>
<event>
 4    1  0.4043938E+000  0.1939751E+03  0.7546771E-02  0.1154924E+00
         21   -1    0    0  501  502  0.00000000000E+00  0.00000000000E+00  0.57389343182E+02  0.57389343182E+02  0.00000000000E+00 0.  1.
         21   -1    0    0  502  503 -0.00000000000E+00 -0.00000000000E+00 -0.67106417639E+03  0.67106417639E+03  0.00000000000E+00 0.  1.
          6    1    1    2  501    0  0.48778104730E+02 -0.72924951924E+02 -0.25160575041E+03  0.31769766407E+03  0.17300000000E+03 0.  1.
         -6    1    1    2    0  503 -0.48778104730E+02  0.72924951924E+02 -0.36206908280E+03  0.41075585551E+03  0.17300000000E+03 0.  1.
<mgrwt>
<rscale>  2 0.19397513E+03</rscale>
<asrwt>0</asrwt>
<pdfrwt beam="1">  1       21 0.88291290E-02 0.19397513E+03</pdfrwt>
<pdfrwt beam="2">  1       21 0.10324065E+00 0.19397513E+03</pdfrwt>
<totfact> 0.76814891E+04</totfact>
</mgrwt>
</event>
<event>
 4    1  0.4043938E+000  0.1753955E+03  0.7546771E-02  0.1172335E+00
         21   -1    0    0  503  502  0.00000000000E+00  0.00000000000E+00  0.28841120900E+04  0.28841120900E+04  0.00000000000E+00 0. -1.
         21   -1    0    0  501  503 -0.00000000000E+00 -0.00000000000E+00 -0.37013970857E+02  0.37013970857E+02  0.00000000000E+00 0.  1.
          6    1    1    2  501    0 -0.35387846283E+01  0.28671577914E+02  0.19127769362E+03  0.25952020818E+03  0.17300000000E+03 0.  1.
         -6    1    1    2    0  502  0.35387846283E+01 -0.28671577914E+02  0.26558204255E+04  0.26616058526E+04  0.17300000000E+03 0. -1.
<mgrwt>
<rscale>  2 0.17539550E+03</rscale>
<asrwt>0</asrwt>
<pdfrwt beam="1">  1       21 0.44370937E+00 0.17539550E+03</pdfrwt>
<pdfrwt beam="2">  1       21 0.56944593E-02 0.17539550E+03</pdfrwt>
<totfact> 0.10162318E+03</totfact>
</mgrwt>
</event>
<event>
 4    1  0.4043938E+000  0.1791307E+03  0.7546771E-02  0.1168647E+00
         21   -1    0    0  501  502  0.00000000000E+00  0.00000000000E+00  0.29497820546E+03  0.29497820546E+03  0.00000000000E+00 0. -1.
         21   -1    0    0  502  503 -0.00000000000E+00 -0.00000000000E+00 -0.23659761539E+03  0.23659761539E+03  0.00000000000E+00 0. -1.
          6    1    1    2  501    0  0.25621843869E+02 -0.38759790557E+02  0.22454550027E+03  0.28724289711E+03  0.17300000000E+03 0. -1.
         -6    1    1    2    0  503 -0.25621843869E+02  0.38759790557E+02 -0.16616491019E+03  0.24433292375E+03  0.17300000000E+03 0. -1.
<mgrwt>
<rscale>  2 0.17913068E+03</rscale>
<asrwt>0</asrwt>
<pdfrwt beam="1">  1       21 0.45381262E-01 0.17913068E+03</pdfrwt>
<pdfrwt beam="2">  1       21 0.36399633E-01 0.17913068E+03</pdfrwt>
<totfact> 0.34139456E+04</totfact>
</mgrwt>
</event>
<event>
 4    1  0.4043938E+000  0.1810051E+03  0.7546771E-02  0.1166834E+00
         21   -1    0    0  501  502  0.00000000000E+00  0.00000000000E+00  0.27249269639E+03  0.27249269639E+03  0.00000000000E+00 0.  1.
         21   -1    0    0  502  503 -0.00000000000E+00 -0.00000000000E+00 -0.14181371310E+03  0.14181371310E+03  0.00000000000E+00 0.  1.
          6    1    1    2  501    0  0.54133045742E+01 -0.52957834511E+02  0.14614802969E+03  0.23264153259E+03  0.17300000000E+03 0.  1.
         -6    1    1    2    0  503 -0.54133045742E+01  0.52957834511E+02 -0.15469046400E+02  0.18166487690E+03  0.17300000000E+03 0.  1.
<mgrwt>
<rscale>  2 0.18100507E+03</rscale>
<asrwt>0</asrwt>
<pdfrwt beam="1">  1       21 0.41921953E-01 0.18100507E+03</pdfrwt>
<pdfrwt beam="2">  1       21 0.21817494E-01 0.18100507E+03</pdfrwt>
<totfact> 0.10785267E+05</totfact>
</mgrwt>
</event>
<event>
 4    1  0.4043938E+000  0.1777988E+03  0.7546771E-02  0.1169951E+00
         21   -1    0    0  501  502  0.00000000000E+00  0.00000000000E+00  0.21793847580E+03  0.21793847580E+03  0.00000000000E+00 0.  1.
         21   -1    0    0  502  503 -0.00000000000E+00 -0.00000000000E+00 -0.26758554497E+03  0.26758554497E+03  0.00000000000E+00 0.  1.
          6    1    1    2  501    0 -0.11112116983E+02 -0.39495905721E+02  0.13945353580E+03  0.22596392269E+03  0.17300000000E+03 0.  1.
         -6    1    1    2    0  503  0.11112116983E+02  0.39495905721E+02 -0.18910060497E+03  0.25956009808E+03  0.17300000000E+03 0.  1.
<mgrwt>
<rscale>  2 0.17779878E+03</rscale>
<asrwt>0</asrwt>
<pdfrwt beam="1">  1       21 0.33528996E-01 0.17779878E+03</pdfrwt>
<pdfrwt beam="2">  1       21 0.41167007E-01 0.17779878E+03</pdfrwt>
<totfact> 0.49032436E+04</totfact>
</mgrwt>
</event>
<event>
 4    1  0.4043938E+000  0.2468226E+03  0.7546771E-02  0.1115329E+00
         21   -1    0    0  501  502  0.00000000000E+00  0.00000000000E+00  0.24450188575E+03  0.24450188575E+03  0.00000000000E+00 0. -1.
         21   -1    0    0  502  503 -0.00000000000E+00 -0.00000000000E+00 -0.35860465873E+03  0.35860465873E+03  0.00000000000E+00 0.  1.
          6    1    1    2  501    0  0.17305304113E+03  0.32327308054E+02  0.10953620737E+03  0.27003627648E+03  0.17300000000E+03 0. -1.
         -6    1    1    2    0  503 -0.17305304113E+03 -0.32327308054E+02 -0.22363898035E+03  0.33307026800E+03  0.17300000000E+03 0.  1.
<mgrwt>
<rscale>  2 0.24682263E+03</rscale>
<asrwt>0</asrwt>
<pdfrwt beam="1">  1       21 0.37615675E-01 0.24682263E+03</pdfrwt>
<pdfrwt beam="2">  1       21 0.55169948E-01 0.24682263E+03</pdfrwt>
<totfact> 0.20506134E+04</totfact>
</mgrwt>
</event>
<event>
 4    1  0.4043938E+000  0.1865450E+03  0.7546771E-02  0.1161615E+00
         21   -1    0    0  501  502  0.00000000000E+00  0.00000000000E+00  0.18229146145E+03  0.18229146145E+03  0.00000000000E+00 0.  1.
         21   -1    0    0  502  503 -0.00000000000E+00 -0.00000000000E+00 -0.59092476911E+03  0.59092476911E+03  0.00000000000E+00 0.  1.
          6    1    1    2  501    0 -0.65762184370E+02 -0.23353074789E+02  0.11377298900E+03  0.21850245770E+03  0.17300000000E+03 0.  1.
         -6    1    1    2    0  503  0.65762184370E+02  0.23353074789E+02 -0.52240629667E+03  0.55471377285E+03  0.17300000000E+03 0.  1.
<mgrwt>
<rscale>  2 0.18654498E+03</rscale>
<asrwt>0</asrwt>
<pdfrwt beam="1">  1       21 0.28044841E-01 0.18654498E+03</pdfrwt>
<pdfrwt beam="2">  1       21 0.90911502E-01 0.18654498E+03</pdfrwt>
<totfact> 0.12516829E+04</totfact>
</mgrwt>
</event>
<event>
 4    1  0.4043938E+000  0.1860196E+03  0.7546771E-02  0.1162101E+00
         21   -1    0    0  501  502  0.00000000000E+00  0.00000000000E+00  0.71577090946E+02  0.71577090946E+02  0.00000000000E+00 0. -1.
         21   -1    0    0  502  503 -0.00000000000E+00 -0.00000000000E+00 -0.97850208387E+03  0.97850208387E+03  0.00000000000E+00 0. -1.
          6    1    1    2  501    0  0.18702402966E+02 -0.65761136009E+02 -0.80005562752E+02  0.20249493069E+03  0.17300000000E+03 0. -1.
         -6    1    1    2    0  503 -0.18702402966E+02  0.65761136009E+02 -0.82691943017E+03  0.84758424412E+03  0.17300000000E+03 0. -1.
<mgrwt>
<rscale>  2 0.18601964E+03</rscale>
<asrwt>0</asrwt>
<pdfrwt beam="1">  1       21 0.11011861E-01 0.18601964E+03</pdfrwt>
<pdfrwt beam="2">  1       21 0.15053878E+00 0.18601964E+03</pdfrwt>
<totfact> 0.20343603E+04</totfact>
</mgrwt>
</event>
<event>
 4    1  0.4043938E+000  0.1894649E+03  0.7546771E-02  0.1158945E+00
         21   -1    0    0  501  502  0.00000000000E+00  0.00000000000E+00  0.47607929791E+02  0.47607929791E+02  0.00000000000E+00 0. -1.
         21   -1    0    0  502  503 -0.00000000000E+00 -0.00000000000E+00 -0.90122001064E+03  0.90122001064E+03  0.00000000000E+00 0. -1.
          6    1    1    2  501    0  0.11520264285E+02  0.76388708652E+02 -0.23506823646E+03  0.30191725206E+03  0.17300000000E+03 0. -1.
         -6    1    1    2    0  503 -0.11520264285E+02 -0.76388708652E+02 -0.61854384439E+03  0.64691068838E+03  0.17300000000E+03 0. -1.
<mgrwt>
<rscale>  2 0.18946491E+03</rscale>
<asrwt>0</asrwt>
<pdfrwt beam="1">  1       21 0.73242970E-02 0.18946491E+03</pdfrwt>
<pdfrwt beam="2">  1       21 0.13864923E+00 0.18946491E+03</pdfrwt>
<totfact> 0.51406719E+04</totfact>
</mgrwt>
</event>
<event>
 4    1  0.4043938E+000  0.2501172E+03  0.7546771E-02  0.1113231E+00
         21   -1    0    0  503  502  0.00000000000E+00  0.00000000000E+00  0.15894615891E+04  0.15894615891E+04  0.00000000000E+00 0. -1.
         21   -1    0    0  501  503 -0.00000000000E+00 -0.00000000000E+00 -0.51255019467E+02  0.51255019467E+02  0.00000000000E+00 0. -1.
          6    1    1    2  501    0 -0.17176837930E+03  0.55903993509E+02  0.37387543979E+03  0.44982382895E+03  0.17300000000E+03 0. -1.
         -6    1    1    2    0  502  0.17176837930E+03 -0.55903993509E+02  0.11643311298E+04  0.11908927796E+04  0.17300000000E+03 0. -1.
<mgrwt>
<rscale>  2 0.25011724E+03</rscale>
<asrwt>0</asrwt>
<pdfrwt beam="1">  1       21 0.24453252E+00 0.25011724E+03</pdfrwt>
<pdfrwt beam="2">  1       21 0.78853888E-02 0.25011724E+03</pdfrwt>
<totfact> 0.83890356E+03</totfact>
</mgrwt>
</event>
<event>
 4    1  0.4043938E+000  0.2061551E+03  0.7546771E-02  0.1144647E+00
         21   -1    0    0  501  502  0.00000000000E+00  0.00000000000E+00  0.61584365104E+02  0.61584365104E+02  0.00000000000E+00 0. -1.
         21   -1    0    0  502  503 -0.00000000000E+00 -0.00000000000E+00 -0.69696532592E+03  0.69696532592E+03  0.00000000000E+00 0.  1.
          6    1    1    2  501    0  0.11191872259E+03  0.67187858827E+01 -0.28007341105E+03  0.34776580932E+03  0.17300000000E+03 0.  1.
         -6    1    1    2    0  503 -0.11191872259E+03 -0.67187858827E+01 -0.35530754976E+03  0.41078388170E+03  0.17300000000E+03 0. -1.
<mgrwt>
<rscale>  2 0.20615514E+03</rscale>
<asrwt>0</asrwt>
<pdfrwt beam="1">  1       21 0.94745174E-02 0.20615514E+03</pdfrwt>
<pdfrwt beam="2">  1       21 0.10722544E+00 0.20615514E+03</pdfrwt>
<totfact> 0.61586336E+04</totfact>
</mgrwt>
</event>
<event>
 4    1  0.4043938E+000  0.1848183E+03  0.7546771E-02  0.1163220E+00
         21   -1    0    0  503  502  0.00000000000E+00  0.00000000000E+00  0.60354334430E+02  0.60354334430E+02  0.00000000000E+00 0.  1.
         21   -1    0    0  501  503 -0.00000000000E+00 -0.00000000000E+00 -0.66067834530E+03  0.66067834530E+03  0.00000000000E+00 0.  1.
          6    1    1    2  501    0 -0.72584312556E+01  0.64622895474E+02 -0.43667051291E+03  0.47417184680E+03  0.17300000000E+03 0.  1.
         -6    1    1    2    0  502  0.72584312556E+01 -0.64622895474E+02 -0.16365349795E+03  0.24686083293E+03  0.17300000000E+03 0.  1.
<mgrwt>
<rscale>  2 0.18481830E+03</rscale>
<asrwt>0</asrwt>
<pdfrwt beam="1">  1       21 0.92852818E-02 0.18481830E+03</pdfrwt>
<pdfrwt beam="2">  1       21 0.10164283E+00 0.18481830E+03</pdfrwt>
<totfact> 0.73284931E+04</totfact>
</mgrwt>
</event>
<event>
 4    1  0.4043938E+000  0.1741030E+03  0.7546771E-02  0.1173635E+00
         21   -1    0    0  501  502  0.00000000000E+00  0.00000000000E+00  0.16425423786E+03  0.16425423786E+03  0.00000000000E+00 0. -1.
         21   -1    0    0  502  503 -0.00000000000E+00 -0.00000000000E+00 -0.32420777168E+03  0.32420777168E+03  0.00000000000E+00 0. -1.
          6    1    1    2  501    0  0.19511134353E+02 -0.14737294062E+01  0.80323261191E+02  0.19173857862E+03  0.17300000000E+03 0. -1.
         -6    1    1    2    0  503 -0.19511134353E+02  0.14737294062E+01 -0.24027679501E+03  0.29672343093E+03  0.17300000000E+03 0. -1.
<mgrwt>
<rscale>  2 0.17410300E+03</rscale>
<asrwt>0</asrwt>
<pdfrwt beam="1">  1       21 0.25269883E-01 0.17410300E+03</pdfrwt>
<pdfrwt beam="2">  1       21 0.49878119E-01 0.17410300E+03</pdfrwt>
<totfact> 0.57317962E+04</totfact>
</mgrwt>
</event>
<event>
 4    1  0.4043938E+000  0.2154056E+03  0.7546771E-02  0.1137355E+00
         21   -1    0    0  503  502  0.00000000000E+00  0.00000000000E+00  0.31633477169E+03  0.31633477169E+03  0.00000000000E+00 0. -1.
         21   -1    0    0  501  503 -0.00000000000E+00 -0.00000000000E+00 -0.14730485102E+03  0.14730485102E+03  0.00000000000E+00 0.  1.
          6    1    1    2  501    0  0.85127606690E+02  0.96040867282E+02  0.99629625356E+02  0.23733019163E+03  0.17300000000E+03 0.  1.
         -6    1    1    2    0  502 -0.85127606690E+02 -0.96040867282E+02  0.69400295305E+02  0.22630943108E+03  0.17300000000E+03 0. -1.
<mgrwt>
<rscale>  2 0.21540557E+03</rscale>
<asrwt>0</asrwt>
<pdfrwt beam="1">  1       21 0.48666888E-01 0.21540557E+03</pdfrwt>
<pdfrwt beam="2">  1       21 0.22662285E-01 0.21540557E+03</pdfrwt>
<totfact> 0.72847570E+04</totfact>
</mgrwt>
</event>
<event>
 4    1  0.4043938E+000  0.1900393E+03  0.7546771E-02  0.1158426E+00
         21   -1    0    0  503  502  0.00000000000E+00  0.00000000000E+00  0.16646790407E+04  0.16646790407E+04  0.00000000000E+00 0.  1.
         21   -1    0    0  501  503 -0.00000000000E+00 -0.00000000000E+00 -0.14464920828E+03  0.14464920828E+03  0.00000000000E+00 0.  1.
          6    1    1    2  501    0 -0.65445342953E+02  0.43621387760E+02 -0.74052869755E+02  0.20395770616E+03  0.17300000000E+03 0.  1.
         -6    1    1    2    0  502  0.65445342953E+02 -0.43621387760E+02  0.15940827021E+04  0.16053705428E+04  0.17300000000E+03 0.  1.
<mgrwt>
<rscale>  2 0.19003925E+03</rscale>
<asrwt>0</asrwt>
<pdfrwt beam="1">  1       21 0.25610445E+00 0.19003925E+03</pdfrwt>
<pdfrwt beam="2">  1       21 0.22253726E-01 0.19003925E+03</pdfrwt>
<totfact> 0.11604625E+03</totfact>
</mgrwt>
</event>
<event>
 4    1  0.4043938E+000  0.1816760E+03  0.7546771E-02  0.1166191E+00
         21   -1    0    0  503  502  0.00000000000E+00  0.00000000000E+00  0.53775167229E+03  0.53775167229E+03  0.00000000000E+00 0. -1.
         21   -1    0    0  501  503 -0.00000000000E+00 -0.00000000000E+00 -0.95873363382E+02  0.95873363382E+02  0.00000000000E+00 0.  1.
          6    1    1    2  501    0  0.50994706306E+02 -0.21833453229E+02  0.30904295344E+02  0.18428574340E+03  0.17300000000E+03 0.  1.
         -6    1    1    2    0  502 -0.50994706306E+02  0.21833453229E+02  0.41097401356E+03  0.44933929227E+03  0.17300000000E+03 0. -1.
<mgrwt>
<rscale>  2 0.18167597E+03</rscale>
<asrwt>0</asrwt>
<pdfrwt beam="1">  1       21 0.82731025E-01 0.18167597E+03</pdfrwt>
<pdfrwt beam="2">  1       21 0.14749748E-01 0.18167597E+03</pdfrwt>
<totfact> 0.51825013E+04</totfact>
</mgrwt>
</event>
<event>
 4    1  0.4043938E+000  0.2188587E+03  0.7546771E-02  0.1134737E+00
         21   -1    0    0  503  502  0.00000000000E+00  0.00000000000E+00  0.52646018953E+03  0.52646018953E+03  0.00000000000E+00 0.  1.
         21   -1    0    0  501  503 -0.00000000000E+00 -0.00000000000E+00 -0.11024591158E+03  0.11024591158E+03  0.00000000000E+00 0. -1.
          6    1    1    2  501    0  0.12213690361E+03  0.55251454513E+02  0.75035947620E+02  0.23136451734E+03  0.17300000000E+03 0. -1.
         -6    1    1    2    0  502 -0.12213690361E+03 -0.55251454513E+02  0.34117833032E+03  0.40534158377E+03  0.17300000000E+03 0.  1.
<mgrwt>
<rscale>  2 0.21885874E+03</rscale>
<asrwt>0</asrwt>
<pdfrwt beam="1">  1       21 0.80993874E-01 0.21885874E+03</pdfrwt>
<pdfrwt beam="2">  1       21 0.16960910E-01 0.21885874E+03</pdfrwt>
<totfact> 0.41347054E+04</totfact>
</mgrwt>
</event>
<event>
 4    1  0.4043938E+000  0.1746081E+03  0.7546771E-02  0.1173126E+00
         21   -1    0    0  503  502  0.00000000000E+00  0.00000000000E+00  0.16208723473E+02  0.16208723473E+02  0.00000000000E+00 0.  1.
         21   -1    0    0  501  503 -0.00000000000E+00 -0.00000000000E+00 -0.22404786249E+04  0.22404786249E+04  0.00000000000E+00 0.  1.
          6    1    1    2  501    0 -0.29220241273E+01 -0.23461749156E+02 -0.15641267165E+04  0.15738425516E+04  0.17300000000E+03 0. -1.
         -6    1    1    2    0  502  0.29220241273E+01  0.23461749156E+02 -0.66014318492E+03  0.68284479678E+03  0.17300000000E+03 0. -1.
<mgrwt>
<rscale>  2 0.17460811E+03</rscale>
<asrwt>0</asrwt>
<pdfrwt beam="1">  1       21 0.24936502E-02 0.17460811E+03</pdfrwt>
<pdfrwt beam="2">  1       21 0.34468897E+00 0.17460811E+03</pdfrwt>
<totfact> 0.16474473E+04</totfact>
</mgrwt>
</event>
<event>
 4    1  0.4043938E+000  0.1759600E+03  0.7546771E-02  0.1171771E+00
         21   -1    0    0  501  502  0.00000000000E+00  0.00000000000E+00  0.63934511887E+02  0.63934511887E+02  0.00000000000E+00 0. -1.
         21   -1    0    0  502  503 -0.00000000000E+00 -0.00000000000E+00 -0.62451441052E+03  0.62451441052E+03  0.00000000000E+00 0. -1.
          6    1    1    2  501    0 -0.21223547850E+02  0.24134935912E+02 -0.11717101926E+03  0.21140241690E+03  0.17300000000E+03 0. -1.
         -6    1    1    2    0  503  0.21223547850E+02 -0.24134935912E+02 -0.44340887937E+03  0.47704650551E+03  0.17300000000E+03 0. -1.
<mgrwt>
<rscale>  2 0.17596004E+03</rscale>
<asrwt>0</asrwt>
<pdfrwt beam="1">  1       21 0.98360790E-02 0.17596004E+03</pdfrwt>
<pdfrwt beam="2">  1       21 0.96079138E-01 0.17596004E+03</pdfrwt>
<totfact> 0.75935283E+04</totfact>
</mgrwt>
</event>
<event>
 4    1  0.4043938E+000  0.1791201E+03  0.7546771E-02  0.1168657E+00
         21   -1    0    0  503  502  0.00000000000E+00  0.00000000000E+00  0.10502103467E+03  0.10502103467E+03  0.00000000000E+00 0.  1.
         21   -1    0    0  501  503 -0.00000000000E+00 -0.00000000000E+00 -0.42969817099E+03  0.42969817099E+03  0.00000000000E+00 0.  1.
          6    1    1    2  501    0 -0.45932734452E+02  0.67222115784E+01 -0.30607614999E+03  0.35463588907E+03  0.17300000000E+03 0.  1.
         -6    1    1    2    0  502  0.45932734452E+02 -0.67222115784E+01 -0.18600986328E+02  0.18008331659E+03  0.17300000000E+03 0.  1.
<mgrwt>
<rscale>  2 0.17912008E+03</rscale>
<asrwt>0</asrwt>
<pdfrwt beam="1">  1       21 0.16157083E-01 0.17912008E+03</pdfrwt>
<pdfrwt beam="2">  1       21 0.66107410E-01 0.17912008E+03</pdfrwt>
<totfact> 0.72367455E+04</totfact>
</mgrwt>
</event>
<event>
 4    1  0.4043938E+000  0.1887611E+03  0.7546771E-02  0.1159583E+00
         21   -1    0    0  503  502  0.00000000000E+00  0.00000000000E+00  0.20213304297E+04  0.20213304297E+04  0.00000000000E+00 0.  1.
         21   -1    0    0  501  503 -0.00000000000E+00 -0.00000000000E+00 -0.52381584982E+02  0.52381584982E+02  0.00000000000E+00 0.  1.
          6    1    1    2  501    0 -0.72729878631E+02  0.20300865905E+02  0.13990995224E+03  0.23495862431E+03  0.17300000000E+03 0.  1.
         -6    1    1    2    0  502  0.72729878631E+02 -0.20300865905E+02  0.18290388925E+04  0.18387533904E+04  0.17300000000E+03 0.  1.
<mgrwt>
<rscale>  2 0.18876112E+03</rscale>
<asrwt>0</asrwt>
<pdfrwt beam="1">  1       21 0.31097385E+00 0.18876112E+03</pdfrwt>
<pdfrwt beam="2">  1       21 0.80587070E-02 0.18876112E+03</pdfrwt>
<totfact> 0.35135309E+03</totfact>
</mgrwt>
</event>
<event>
 4    1  0.4043938E+000  0.1774581E+03  0.7546771E-02  0.1170286E+00
         21   -1    0    0  503  502  0.00000000000E+00  0.00000000000E+00  0.18530804648E+03  0.18530804648E+03  0.00000000000E+00 0. -1.
         21   -1    0    0  501  503 -0.00000000000E+00 -0.00000000000E+00 -0.17272538197E+03  0.17272538197E+03  0.00000000000E+00 0.  1.
          6    1    1    2  501    0 -0.21748030102E+02  0.33006312881E+02 -0.16438553620E+02  0.17821789907E+03  0.17300000000E+03 0.  1.
         -6    1    1    2    0  502  0.21748030102E+02 -0.33006312881E+02  0.29021218128E+02  0.17981552938E+03  0.17300000000E+03 0. -1.
<mgrwt>
<rscale>  2 0.17745815E+03</rscale>
<asrwt>0</asrwt>
<pdfrwt beam="1">  1       21 0.28508930E-01 0.17745815E+03</pdfrwt>
<pdfrwt beam="2">  1       21 0.26573136E-01 0.17745815E+03</pdfrwt>
<totfact> 0.15931600E+05</totfact>
</mgrwt>
</event>
<event>
 4    1  0.4043938E+000  0.1925799E+03  0.7546771E-02  0.1156155E+00
         21   -1    0    0  501  502  0.00000000000E+00  0.00000000000E+00  0.51374631181E+03  0.51374631181E+03  0.00000000000E+00 0. -1.
         21   -1    0    0  502  503 -0.00000000000E+00 -0.00000000000E+00 -0.10819734692E+03  0.10819734692E+03  0.00000000000E+00 0. -1.
          6    1    1    2  501    0 -0.74025066567E+02  0.40967134109E+02  0.38217024241E+03  0.42794989279E+03  0.17300000000E+03 0. -1.
         -6    1    1    2    0  503  0.74025066567E+02 -0.40967134109E+02  0.23378722488E+02  0.19399376594E+03  0.17300000000E+03 0. -1.
<mgrwt>
<rscale>  2 0.19257990E+03</rscale>
<asrwt>0</asrwt>
<pdfrwt beam="1">  1       21 0.79037893E-01 0.19257990E+03</pdfrwt>
<pdfrwt beam="2">  1       21 0.16645746E-01 0.19257990E+03</pdfrwt>
<totfact> 0.45839782E+04</totfact>
</mgrwt>
</event>
<event>
 4    1  0.4043938E+000  0.1844876E+03  0.7546771E-02  0.1163529E+00
         21   -1    0    0  503  502  0.00000000000E+00  0.00000000000E+00  0.47030896238E+03  0.47030896238E+03  0.00000000000E+00 0.  1.
         21   -1    0    0  501  503 -0.00000000000E+00 -0.00000000000E+00 -0.79482630588E+02  0.79482630588E+02  0.00000000000E+00 0.  1.
          6    1    1    2  501    0  0.35964516564E+02 -0.53040016513E+02  0.27765335394E+03  0.33335727794E+03  0.17300000000E+03 0. -1.
         -6    1    1    2    0  502 -0.35964516564E+02  0.53040016513E+02  0.11317297785E+03  0.21643431502E+03  0.17300000000E+03 0. -1.
<mgrwt>
<rscale>  2 0.18448764E+03</rscale>
<asrwt>0</asrwt>
<pdfrwt beam="1">  1       21 0.72355223E-01 0.18448764E+03</pdfrwt>
<pdfrwt beam="2">  1       21 0.12228097E-01 0.18448764E+03</pdfrwt>
<totfact> 0.98021148E+04</totfact>
</mgrwt>
</event>
<event>
 4    1  0.4043938E+000  0.5398988E+03  0.7546771E-02  0.1003859E+00
         21   -1    0    0  501  502  0.00000000000E+00  0.00000000000E+00  0.20602272085E+03  0.20602272085E+03  0.00000000000E+00 0.  1.
         21   -1    0    0  502  503 -0.00000000000E+00 -0.00000000000E+00 -0.14920627594E+04  0.14920627594E+04  0.00000000000E+00 0. -1.
          6    1    1    2  501    0  0.83258607817E+02  0.50460848400E+03 -0.83616692768E+03  0.99532198250E+03  0.17300000000E+03 0. -1.
         -6    1    1    2    0  503 -0.83258607817E+02 -0.50460848400E+03 -0.44987311091E+03  0.70276349779E+03  0.17300000000E+03 0.  1.
<mgrwt>
<rscale>  2 0.53989880E+03</rscale>
<asrwt>0</asrwt>
<pdfrwt beam="1">  1       21 0.31695804E-01 0.53989880E+03</pdfrwt>
<pdfrwt beam="2">  1       21 0.22954811E+00 0.53989880E+03</pdfrwt>
<totfact> 0.66410393E+02</totfact>
</mgrwt>
</event>
<event>
 4    1  0.4043938E+000  0.2136021E+03  0.7546771E-02  0.1138745E+00
         21   -1    0    0  501  502  0.00000000000E+00  0.00000000000E+00  0.30978747957E+03  0.30978747957E+03  0.00000000000E+00 0. -1.
         21   -1    0    0  502  503 -0.00000000000E+00 -0.00000000000E+00 -0.27936859848E+03  0.27936859848E+03  0.00000000000E+00 0.  1.
          6    1    1    2  501    0 -0.10176428289E+03 -0.73081484337E+02  0.21776411071E+03  0.30503619545E+03  0.17300000000E+03 0. -1.
         -6    1    1    2    0  503  0.10176428289E+03  0.73081484337E+02 -0.18734522962E+03  0.28411988259E+03  0.17300000000E+03 0.  1.
<mgrwt>
<rscale>  2 0.21360214E+03</rscale>
<asrwt>0</asrwt>
<pdfrwt beam="1">  1       21 0.47659612E-01 0.21360214E+03</pdfrwt>
<pdfrwt beam="2">  1       21 0.42979785E-01 0.21360214E+03</pdfrwt>
<totfact> 0.21649154E+04</totfact>
</mgrwt>
</event>
<event>
 4    1  0.4043938E+000  0.4331703E+03  0.7546771E-02  0.1032863E+00
         21   -1    0    0  501  502  0.00000000000E+00  0.00000000000E+00  0.34377985286E+04  0.34377985286E+04  0.00000000000E+00 0. -1.
         21   -1    0    0  502  503 -0.00000000000E+00 -0.00000000000E+00 -0.29737423692E+03  0.29737423692E+03  0.00000000000E+00 0.  1.
          6    1    1    2  501    0  0.15967594612E+02  0.39680293972E+03  0.32577278644E+04  0.32864003675E+04  0.17300000000E+03 0. -1.
         -6    1    1    2    0  503 -0.15967594612E+02 -0.39680293972E+03 -0.11730357271E+03  0.44877239802E+03  0.17300000000E+03 0.  1.
<mgrwt>
<rscale>  2 0.43317033E+03</rscale>
<asrwt>0</asrwt>
<pdfrwt beam="1">  1       21 0.52889205E+00 0.43317033E+03</pdfrwt>
<pdfrwt beam="2">  1       21 0.45749885E-01 0.43317033E+03</pdfrwt>
<totfact> 0.38692783E+00</totfact>
</mgrwt>
</event>
<event>
 4    1  0.4043938E+000  0.2734641E+03  0.7546771E-02  0.1099313E+00
         21   -1    0    0  503  502  0.00000000000E+00  0.00000000000E+00  0.67922361918E+03  0.67922361918E+03  0.00000000000E+00 0.  1.
         21   -1    0    0  501  503 -0.00000000000E+00 -0.00000000000E+00 -0.11684857842E+03  0.11684857842E+03  0.00000000000E+00 0.  1.
          6    1    1    2  501    0  0.15066180371E+03 -0.14884440253E+03  0.18553168788E+03  0.33046125714E+03  0.17300000000E+03 0.  1.
         -6    1    1    2    0  502 -0.15066180371E+03  0.14884440253E+03  0.37684335288E+03  0.46561094046E+03  0.17300000000E+03 0.  1.
<mgrwt>
<rscale>  2 0.27346414E+03</rscale>
<asrwt>0</asrwt>
<pdfrwt beam="1">  1       21 0.10449594E+00 0.27346414E+03</pdfrwt>
<pdfrwt beam="2">  1       21 0.17976705E-01 0.27346414E+03</pdfrwt>
<totfact> 0.19911076E+04</totfact>
</mgrwt>
</event>
<event>
 4    1  0.4043938E+000  0.2071173E+03  0.7546771E-02  0.1143869E+00
         21   -1    0    0  501  502  0.00000000000E+00  0.00000000000E+00  0.36350523637E+03  0.36350523637E+03  0.00000000000E+00 0.  1.
         21   -1    0    0  502  503 -0.00000000000E+00 -0.00000000000E+00 -0.11952190641E+03  0.11952190641E+03  0.00000000000E+00 0. -1.
          6    1    1    2  501    0  0.10585234503E+02  0.11338657398E+03  0.14914717444E+03  0.25523017453E+03  0.17300000000E+03 0. -1.
         -6    1    1    2    0  503 -0.10585234503E+02 -0.11338657398E+03  0.94836155513E+02  0.22779696824E+03  0.17300000000E+03 0.  1.
<mgrwt>
<rscale>  2 0.20711727E+03</rscale>
<asrwt>0</asrwt>
<pdfrwt beam="1">  1       21 0.55923882E-01 0.20711727E+03</pdfrwt>
<pdfrwt beam="2">  1       21 0.18387986E-01 0.20711727E+03</pdfrwt>
<totfact> 0.80760612E+04</totfact>
</mgrwt>
</event>
<event>
 4    1  0.4043938E+000  0.2617006E+03  0.7546771E-02  0.1106126E+00
         21   -1    0    0  503  502  0.00000000000E+00  0.00000000000E+00  0.81152690191E+02  0.81152690191E+02  0.00000000000E+00 0.  1.
         21   -1    0    0  501  503 -0.00000000000E+00 -0.00000000000E+00 -0.15359933300E+04  0.15359933300E+04  0.00000000000E+00 0.  1.
          6    1    1    2  501    0 -0.19613025639E+03 -0.95462176564E+01 -0.12701673123E+04  0.12968470260E+04  0.17300000000E+03 0.  1.
         -6    1    1    2    0  502  0.19613025639E+03  0.95462176564E+01 -0.18467332747E+03  0.32029899410E+03  0.17300000000E+03 0.  1.
<mgrwt>
<rscale>  2 0.26170061E+03</rscale>
<asrwt>0</asrwt>
<pdfrwt beam="1">  1       21 0.12485031E-01 0.26170061E+03</pdfrwt>
<pdfrwt beam="2">  1       21 0.23630664E+00 0.26170061E+03</pdfrwt>
<totfact> 0.41195498E+03</totfact>
</mgrwt>
</event>
<event>
 4    1  0.4043938E+000  0.2208222E+03  0.7546771E-02  0.1133272E+00
         21   -1    0    0  501  502  0.00000000000E+00  0.00000000000E+00  0.10602977235E+04  0.10602977235E+04  0.00000000000E+00 0. -1.
         21   -1    0    0  502  503 -0.00000000000E+00 -0.00000000000E+00 -0.52084709834E+02  0.52084709834E+02  0.00000000000E+00 0.  1.
          6    1    1    2  501    0 -0.13567689393E+03  0.20620775472E+02  0.69437530432E+03  0.72864222988E+03  0.17300000000E+03 0. -1.
         -6    1    1    2    0  503  0.13567689393E+03 -0.20620775472E+02  0.31383770930E+03  0.38374020340E+03  0.17300000000E+03 0.  1.
<mgrwt>
<rscale>  2 0.22082218E+03</rscale>
<asrwt>0</asrwt>
<pdfrwt beam="1">  1       21 0.16312271E+00 0.22082218E+03</pdfrwt>
<pdfrwt beam="2">  1       21 0.80130331E-02 0.22082218E+03</pdfrwt>
<totfact> 0.28078544E+04</totfact>
</mgrwt>
</event>
<event>
 4    1  0.4043938E+000  0.1961389E+03  0.7546771E-02  0.1153038E+00
         21   -1    0    0  503  502  0.00000000000E+00  0.00000000000E+00  0.55285285469E+02  0.55285285469E+02  0.00000000000E+00 0.  1.
         21   -1    0    0  501  503 -0.00000000000E+00 -0.00000000000E+00 -0.10967295535E+04  0.10967295535E+04  0.00000000000E+00 0. -1.
          6    1    1    2  501    0  0.58043855138E+02 -0.71919250748E+02 -0.86896584290E+03  0.89082664075E+03  0.17300000000E+03 0. -1.
         -6    1    1    2    0  502 -0.58043855138E+02  0.71919250748E+02 -0.17247842511E+03  0.26118819819E+03  0.17300000000E+03 0.  1.
<mgrwt>
<rscale>  2 0.19613890E+03</rscale>
<asrwt>0</asrwt>
<pdfrwt beam="1">  1       21 0.85054292E-02 0.19613890E+03</pdfrwt>
<pdfrwt beam="2">  1       21 0.16872761E+00 0.19613890E+03</pdfrwt>
<totfact> 0.23435431E+04</totfact>
</mgrwt>
</event>
<event>
 4    1  0.4043938E+000  0.2054599E+03  0.7546771E-02  0.1145213E+00
         21   -1    0    0  501  502  0.00000000000E+00  0.00000000000E+00  0.50791114644E+03  0.50791114644E+03  0.00000000000E+00 0. -1.
         21   -1    0    0  502  503 -0.00000000000E+00 -0.00000000000E+00 -0.15859460107E+03  0.15859460107E+03  0.00000000000E+00 0. -1.
          6    1    1    2  501    0  0.32019992969E+02  0.10611069259E+03  0.40456502610E+03  0.45374730784E+03  0.17300000000E+03 0. -1.
         -6    1    1    2    0  503 -0.32019992969E+02 -0.10611069259E+03 -0.55248480726E+02  0.21275843968E+03  0.17300000000E+03 0. -1.
<mgrwt>
<rscale>  2 0.20545987E+03</rscale>
<asrwt>0</asrwt>
<pdfrwt beam="1">  1       21 0.78140176E-01 0.20545987E+03</pdfrwt>
<pdfrwt beam="2">  1       21 0.24399170E-01 0.20545987E+03</pdfrwt>
<totfact> 0.22836568E+04</totfact>
</mgrwt>
</event>
<event>
 4    1  0.4043938E+000  0.2410733E+03  0.7546771E-02  0.1119080E+00
         21   -1    0    0  501  502  0.00000000000E+00  0.00000000000E+00  0.16340574270E+04  0.16340574270E+04  0.00000000000E+00 0. -1.
         21   -1    0    0  502  503 -0.00000000000E+00 -0.00000000000E+00 -0.37041194271E+02  0.37041194271E+02  0.00000000000E+00 0. -1.
          6    1    1    2  501    0  0.15524257427E+03  0.63930228868E+02  0.63174337632E+03  0.67617750964E+03  0.17300000000E+03 0. -1.
         -6    1    1    2    0  503 -0.15524257427E+03 -0.63930228868E+02  0.96527285636E+03  0.99492111158E+03  0.17300000000E+03 0. -1.
<mgrwt>
<rscale>  2 0.24107329E+03</rscale>
<asrwt>0</asrwt>
<pdfrwt beam="1">  1       21 0.25139340E+00 0.24107329E+03</pdfrwt>
<pdfrwt beam="2">  1       21 0.56986465E-02 0.24107329E+03</pdfrwt>
<totfact> 0.13489348E+04</totfact>
</mgrwt>
</event>
<event>
 4    1  0.4043938E+000  0.2612751E+03  0.7546771E-02  0.1106380E+00
         21   -1    0    0  501  502  0.00000000000E+00  0.00000000000E+00  0.29345827791E+04  0.29345827791E+04  0.00000000000E+00 0. -1.
         21   -1    0    0  502  503 -0.00000000000E+00 -0.00000000000E+00 -0.27742669105E+02  0.27742669105E+02  0.00000000000E+00 0. -1.
          6    1    1    2  501    0 -0.53561161166E+02 -0.18832652456E+03  0.20486616404E+04  0.20652552372E+04  0.17300000000E+03 0. -1.
         -6    1    1    2    0  503  0.53561161166E+02  0.18832652456E+03  0.85817846962E+03  0.89707021105E+03  0.17300000000E+03 0. -1.
<mgrwt>
<rscale>  2 0.26127510E+03</rscale>
<asrwt>0</asrwt>
<pdfrwt beam="1">  1       21 0.45147403E+00 0.26127510E+03</pdfrwt>
<pdfrwt beam="2">  1       21 0.42681053E-02 0.26127510E+03</pdfrwt>
<totfact> 0.13050557E+03</totfact>
</mgrwt>
</event>
<event>
 4    1  0.4043938E+000  0.2540872E+03  0.7546771E-02  0.1110749E+00
         21   -1    0    0  503  502  0.00000000000E+00  0.00000000000E+00  0.17232776630E+04  0.17232776630E+04  0.00000000000E+00 0.  1.
         21   -1    0    0  501  503 -0.00000000000E+00 -0.00000000000E+00 -0.43319327594E+02  0.43319327594E+02  0.00000000000E+00 0.  1.
          6    1    1    2  501    0  0.43800189776E+02  0.18086689163E+03  0.11647334082E+04  0.11921259168E+04  0.17300000000E+03 0.  1.
         -6    1    1    2    0  502 -0.43800189776E+02 -0.18086689163E+03  0.51522492718E+03  0.57447107385E+03  0.17300000000E+03 0.  1.
<mgrwt>
<rscale>  2 0.25408717E+03</rscale>
<asrwt>0</asrwt>
<pdfrwt beam="1">  1       21 0.26511959E+00 0.25408717E+03</pdfrwt>
<pdfrwt beam="2">  1       21 0.66645132E-02 0.25408717E+03</pdfrwt>
<totfact> 0.84576600E+03</totfact>
</mgrwt>
</event>
<event>
 4    1  0.4043938E+000  0.2135855E+03  0.7546771E-02  0.1138758E+00
         21   -1    0    0  501  502  0.00000000000E+00  0.00000000000E+00  0.87020624197E+02  0.87020624197E+02  0.00000000000E+00 0. -1.
         21   -1    0    0  502  503 -0.00000000000E+00 -0.00000000000E+00 -0.62045903362E+03  0.62045903362E+03  0.00000000000E+00 0. -1.
          6    1    1    2  501    0  0.87566788574E+02  0.89564609964E+02 -0.12740929089E+03  0.24870040053E+03  0.17300000000E+03 0. -1.
         -6    1    1    2    0  503 -0.87566788574E+02 -0.89564609964E+02 -0.40602911853E+03  0.45877925729E+03  0.17300000000E+03 0. -1.
<mgrwt>
<rscale>  2 0.21358549E+03</rscale>
<asrwt>0</asrwt>
<pdfrwt beam="1">  1       21 0.13387788E-01 0.21358549E+03</pdfrwt>
<pdfrwt beam="2">  1       21 0.95455239E-01 0.21358549E+03</pdfrwt>
<totfact> 0.43684656E+04</totfact>
</mgrwt>
</event>
<event>
 4    1  0.4043938E+000  0.2116924E+03  0.7546771E-02  0.1140233E+00
         21   -1    0    0  503  502  0.00000000000E+00  0.00000000000E+00  0.46007049621E+03  0.46007049621E+03  0.00000000000E+00 0.  1.
         21   -1    0    0  501  503 -0.00000000000E+00 -0.00000000000E+00 -0.12264001778E+03  0.12264001778E+03  0.00000000000E+00 0. -1.
          6    1    1    2  501    0  0.93763113088E+02  0.78058568635E+02  0.36555458789E+02  0.21482542466E+03  0.17300000000E+03 0. -1.
         -6    1    1    2    0  502 -0.93763113088E+02 -0.78058568635E+02  0.30087501964E+03  0.36788508933E+03  0.17300000000E+03 0.  1.
<mgrwt>
<rscale>  2 0.21169237E+03</rscale>
<asrwt>0</asrwt>
<pdfrwt beam="1">  1       21 0.70780076E-01 0.21169237E+03</pdfrwt>
<pdfrwt beam="2">  1       21 0.18867695E-01 0.21169237E+03</pdfrwt>
<totfact> 0.46084600E+04</totfact>
</mgrwt>
</event>
<event>
 4    1  0.4043938E+000  0.2051759E+03  0.7546771E-02  0.1145444E+00
         21   -1    0    0  503  502  0.00000000000E+00  0.00000000000E+00  0.18572718562E+03  0.18572718562E+03  0.00000000000E+00 0.  1.
         21   -1    0    0  501  503 -0.00000000000E+00 -0.00000000000E+00 -0.25489229162E+03  0.25489229162E+03  0.00000000000E+00 0.  1.
          6    1    1    2  501    0 -0.71132824703E+02 -0.84310606482E+02 -0.10790192752E+03  0.23181885833E+03  0.17300000000E+03 0.  1.
         -6    1    1    2    0  502  0.71132824703E+02  0.84310606482E+02  0.38736821526E+02  0.20880061891E+03  0.17300000000E+03 0.  1.
<mgrwt>
<rscale>  2 0.20517592E+03</rscale>
<asrwt>0</asrwt>
<pdfrwt beam="1">  1       21 0.28573413E-01 0.20517592E+03</pdfrwt>
<pdfrwt beam="2">  1       21 0.39214199E-01 0.20517592E+03</pdfrwt>
<totfact> 0.73041247E+04</totfact>
</mgrwt>
</event>
<event>
 4    1  0.4043938E+000  0.1987123E+03  0.7546771E-02  0.1150830E+00
         21   -1    0    0  501  502  0.00000000000E+00  0.00000000000E+00  0.35516442309E+03  0.35516442309E+03  0.00000000000E+00 0. -1.
         21   -1    0    0  502  503 -0.00000000000E+00 -0.00000000000E+00 -0.11122121027E+03  0.11122121027E+03  0.00000000000E+00 0.  1.
          6    1    1    2  501    0  0.63284307236E+02 -0.74516217754E+02  0.12655297250E+03  0.23558910225E+03  0.17300000000E+03 0.  1.
         -6    1    1    2    0  503 -0.63284307236E+02  0.74516217754E+02  0.11739024031E+03  0.23079653111E+03  0.17300000000E+03 0.  1.
<mgrwt>
<rscale>  2 0.19871228E+03</rscale>
<asrwt>0</asrwt>
<pdfrwt beam="1">  1       21 0.54640680E-01 0.19871228E+03</pdfrwt>
<pdfrwt beam="2">  1       21 0.17110956E-01 0.19871228E+03</pdfrwt>
<totfact> 0.97251804E+04</totfact>
</mgrwt>
</event>
<event>
 4    1  0.4043938E+000  0.1874631E+03  0.7546771E-02  0.1160770E+00
         21   -1    0    0  501  502  0.00000000000E+00  0.00000000000E+00  0.35157846856E+03  0.35157846856E+03  0.00000000000E+00 0.  1.
         21   -1    0    0  502  503 -0.00000000000E+00 -0.00000000000E+00 -0.10061332457E+03  0.10061332457E+03  0.00000000000E+00 0.  1.
          6    1    1    2  501    0 -0.53205570398E+02  0.48811782634E+02  0.14375566910E+03  0.23623741288E+03  0.17300000000E+03 0.  1.
         -6    1    1    2    0  503  0.53205570398E+02 -0.48811782634E+02  0.10720947489E+03  0.21595438025E+03  0.17300000000E+03 0.  1.
<mgrwt>
<rscale>  2 0.18746312E+03</rscale>
<asrwt>0</asrwt>
<pdfrwt beam="1">  1       21 0.54088995E-01 0.18746312E+03</pdfrwt>
<pdfrwt beam="2">  1       21 0.15478973E-01 0.18746312E+03</pdfrwt>
<totfact> 0.11991730E+05</totfact>
</mgrwt>
</event>
<event>
 4    1  0.4043938E+000  0.2742514E+03  0.7546771E-02  0.1098871E+00
         21   -1    0    0  501  502  0.00000000000E+00  0.00000000000E+00  0.64601412294E+02  0.64601412294E+02  0.00000000000E+00 0. -1.
         21   -1    0    0  502  503 -0.00000000000E+00 -0.00000000000E+00 -0.12776938355E+04  0.12776938355E+04  0.00000000000E+00 0. -1.
          6    1    1    2  501    0  0.13173828103E+03  0.16712231168E+03 -0.40658475692E+03  0.49043348816E+03  0.17300000000E+03 0. -1.
         -6    1    1    2    0  503 -0.13173828103E+03 -0.16712231168E+03 -0.80650766626E+03  0.85186175961E+03  0.17300000000E+03 0. -1.
<mgrwt>
<rscale>  2 0.27425142E+03</rscale>
<asrwt>0</asrwt>
<pdfrwt beam="1">  1       21 0.99386793E-02 0.27425142E+03</pdfrwt>
<pdfrwt beam="2">  1       21 0.19656827E+00 0.27425142E+03</pdfrwt>
<totfact> 0.10941965E+04</totfact>
</mgrwt>
</event>
<event>
 4    1  0.4043938E+000  0.2243960E+03  0.7546771E-02  0.1130647E+00
         21   -1    0    0  501  502  0.00000000000E+00  0.00000000000E+00  0.63236807665E+03  0.63236807665E+03  0.00000000000E+00 0. -1.
         21   -1    0    0  502  503 -0.00000000000E+00 -0.00000000000E+00 -0.79656999481E+02  0.79656999481E+02  0.00000000000E+00 0. -1.
          6    1    1    2  501    0  0.14277211772E+03 -0.63797248387E+01  0.28326343033E+03  0.36137480467E+03  0.17300000000E+03 0. -1.
         -6    1    1    2    0  503 -0.14277211772E+03  0.63797248387E+01  0.26944764684E+03  0.35065027146E+03  0.17300000000E+03 0. -1.
<mgrwt>
<rscale>  2 0.22439603E+03</rscale>
<asrwt>0</asrwt>
<pdfrwt beam="1">  1       21 0.97287393E-01 0.22439603E+03</pdfrwt>
<pdfrwt beam="2">  1       21 0.12254923E-01 0.22439603E+03</pdfrwt>
<totfact> 0.48736700E+04</totfact>
</mgrwt>
</event>
<event>
 4    1  0.4043938E+000  0.1949354E+03  0.7546771E-02  0.1154084E+00
         21   -1    0    0  503  502  0.00000000000E+00  0.00000000000E+00  0.26159664918E+03  0.26159664918E+03  0.00000000000E+00 0. -1.
         21   -1    0    0  501  503 -0.00000000000E+00 -0.00000000000E+00 -0.16709335336E+03  0.16709335336E+03  0.00000000000E+00 0. -1.
          6    1    1    2  501    0  0.50314355471E+02 -0.74426246961E+02 -0.30227293387E+02  0.19726502444E+03  0.17300000000E+03 0. -1.
         -6    1    1    2    0  502 -0.50314355471E+02  0.74426246961E+02  0.12473058921E+03  0.23142497810E+03  0.17300000000E+03 0. -1.
<mgrwt>
<rscale>  2 0.19493538E+03</rscale>
<asrwt>0</asrwt>
<pdfrwt beam="1">  1       21 0.40245638E-01 0.19493538E+03</pdfrwt>
<pdfrwt beam="2">  1       21 0.25706670E-01 0.19493538E+03</pdfrwt>
<totfact> 0.85359908E+04</totfact>
</mgrwt>
</event>
<event>
 4    1  0.4043938E+000  0.1818335E+03  0.7546771E-02  0.1166040E+00
         21   -1    0    0  503  502  0.00000000000E+00  0.00000000000E+00  0.19793069360E+03  0.19793069360E+03  0.00000000000E+00 0.  1.
         21   -1    0    0  501  503 -0.00000000000E+00 -0.00000000000E+00 -0.18548332388E+03  0.18548332388E+03  0.00000000000E+00 0.  1.
          6    1    1    2  501    0 -0.55945632108E+02 -0.21196096422E+01 -0.54218740835E+02  0.18974477161E+03  0.17300000000E+03 0. -1.
         -6    1    1    2    0  502  0.55945632108E+02  0.21196096422E+01  0.66666110564E+02  0.19366924587E+03  0.17300000000E+03 0. -1.
<mgrwt>
<rscale>  2 0.18183346E+03</rscale>
<asrwt>0</asrwt>
<pdfrwt beam="1">  1       21 0.30450876E-01 0.18183346E+03</pdfrwt>
<pdfrwt beam="2">  1       21 0.28535896E-01 0.18183346E+03</pdfrwt>
<totfact> 0.12201992E+05</totfact>
</mgrwt>
</event>
<event>
 4    1  0.4043938E+000  0.2543958E+03  0.7546771E-02  0.1110558E+00
         21   -1    0    0  501  502  0.00000000000E+00  0.00000000000E+00  0.79078390830E+03  0.79078390830E+03  0.00000000000E+00 0. -1.
         21   -1    0    0  502  503 -0.00000000000E+00 -0.00000000000E+00 -0.15566037312E+03  0.15566037312E+03  0.00000000000E+00 0.  1.
          6    1    1    2  501    0 -0.16968487702E+03  0.77429052971E+02  0.64344809982E+03  0.69191233036E+03  0.17300000000E+03 0. -1.
         -6    1    1    2    0  503  0.16968487702E+03 -0.77429052971E+02 -0.83245646367E+01  0.25453195106E+03  0.17300000000E+03 0.  1.
<mgrwt>
<rscale>  2 0.25439579E+03</rscale>
<asrwt>0</asrwt>
<pdfrwt beam="1">  1       21 0.12165906E+00 0.25439579E+03</pdfrwt>
<pdfrwt beam="2">  1       21 0.23947750E-01 0.25439579E+03</pdfrwt>
<totfact> 0.80503793E+03</totfact>
</mgrwt>
</event>
<event>
 4    1  0.4043938E+000  0.1987867E+03  0.7546771E-02  0.1150767E+00
         21   -1    0    0  503  502  0.00000000000E+00  0.00000000000E+00  0.32784206676E+02  0.32784206676E+02  0.00000000000E+00 0. -1.
         21   -1    0    0  501  503 -0.00000000000E+00 -0.00000000000E+00 -0.18455898018E+04  0.18455898018E+04  0.00000000000E+00 0. -1.
          6    1    1    2  501    0 -0.97803132843E+02 -0.46575977467E+01 -0.14595731505E+04  0.14730478362E+04  0.17300000000E+03 0. -1.
         -6    1    1    2    0  502  0.97803132843E+02  0.46575977467E+01 -0.35323244459E+03  0.40532617226E+03  0.17300000000E+03 0. -1.
<mgrwt>
<rscale>  2 0.19878668E+03</rscale>
<asrwt>0</asrwt>
<pdfrwt beam="1">  1       21 0.50437251E-02 0.19878668E+03</pdfrwt>
<pdfrwt beam="2">  1       21 0.28393684E+00 0.19878668E+03</pdfrwt>
<totfact> 0.11125122E+04</totfact>
</mgrwt>
</event>
<event>
 4    1  0.4043938E+000  0.2335324E+03  0.7546771E-02  0.1124178E+00
         21   -1    0    0  503  502  0.00000000000E+00  0.00000000000E+00  0.14128236752E+03  0.14128236752E+03  0.00000000000E+00 0. -1.
         21   -1    0    0  501  503 -0.00000000000E+00 -0.00000000000E+00 -0.39248016070E+03  0.39248016070E+03  0.00000000000E+00 0. -1.
          6    1    1    2  501    0 -0.57638660865E+02  0.14589787040E+03 -0.15984646727E+03  0.28299875780E+03  0.17300000000E+03 0. -1.
         -6    1    1    2    0  502  0.57638660865E+02 -0.14589787040E+03 -0.91351325900E+02  0.25076377043E+03  0.17300000000E+03 0. -1.
<mgrwt>
<rscale>  2 0.23353245E+03</rscale>
<asrwt>0</asrwt>
<pdfrwt beam="1">  1       21 0.21735749E-01 0.23353245E+03</pdfrwt>
<pdfrwt beam="2">  1       21 0.60381564E-01 0.23353245E+03</pdfrwt>
<totfact> 0.49527524E+04</totfact>
</mgrwt>
</event>
<event>
 4    1  0.4043938E+000  0.2653013E+03  0.7546771E-02  0.1103999E+00
         21   -1    0    0  503  502  0.00000000000E+00  0.00000000000E+00  0.27403985449E+03  0.27403985449E+03  0.00000000000E+00 0. -1.
         21   -1    0    0  501  503 -0.00000000000E+00 -0.00000000000E+00 -0.27051954585E+03  0.27051954585E+03  0.00000000000E+00 0.  1.
          6    1    1    2  501    0  0.70807643880E+02 -0.18826063014E+03 -0.59464892328E+02  0.27188391036E+03  0.17300000000E+03 0.  1.
         -6    1    1    2    0  502 -0.70807643880E+02  0.18826063014E+03  0.62985200974E+02  0.27267548998E+03  0.17300000000E+03 0. -1.
<mgrwt>
<rscale>  2 0.26530131E+03</rscale>
<asrwt>0</asrwt>
<pdfrwt beam="1">  1       21 0.42159978E-01 0.26530131E+03</pdfrwt>
<pdfrwt beam="2">  1       21 0.41618392E-01 0.26530131E+03</pdfrwt>
<totfact> 0.29047274E+04</totfact>
</mgrwt>
</event>
<event>
 4    1  0.4043938E+000  0.1784736E+03  0.7546771E-02  0.1169289E+00
         21   -1    0    0  501  502  0.00000000000E+00  0.00000000000E+00  0.29469760263E+03  0.29469760263E+03  0.00000000000E+00 0.  1.
         21   -1    0    0  502  503 -0.00000000000E+00 -0.00000000000E+00 -0.10883674555E+03  0.10883674555E+03  0.00000000000E+00 0.  1.
          6    1    1    2  501    0 -0.41938618886E+02 -0.12843770732E+02  0.76177671922E+02  0.19405114764E+03  0.17300000000E+03 0. -1.
         -6    1    1    2    0  503  0.41938618886E+02  0.12843770732E+02  0.10968318516E+03  0.20948320054E+03  0.17300000000E+03 0. -1.
<mgrwt>
<rscale>  2 0.17847356E+03</rscale>
<asrwt>0</asrwt>
<pdfrwt beam="1">  1       21 0.45338092E-01 0.17847356E+03</pdfrwt>
<pdfrwt beam="2">  1       21 0.16744115E-01 0.17847356E+03</pdfrwt>
<totfact> 0.15038209E+05</totfact>
</mgrwt>
</event>
<event>
 4    1  0.4043938E+000  0.1743974E+03  0.7546771E-02  0.1173338E+00
         21   -1    0    0  501  502  0.00000000000E+00  0.00000000000E+00  0.32397913827E+03  0.32397913827E+03  0.00000000000E+00 0. -1.
         21   -1    0    0  502  503 -0.00000000000E+00 -0.00000000000E+00 -0.10363780661E+03  0.10363780661E+03  0.00000000000E+00 0. -1.
          6    1    1    2  501    0  0.57626688419E+01  0.21266448701E+02  0.44557742578E+02  0.17999961838E+03  0.17300000000E+03 0.  1.
         -6    1    1    2    0  503 -0.57626688419E+01 -0.21266448701E+02  0.17578358908E+03  0.24761732650E+03  0.17300000000E+03 0.  1.
<mgrwt>
<rscale>  2 0.17439745E+03</rscale>
<asrwt>0</asrwt>
<pdfrwt beam="1">  1       21 0.49842944E-01 0.17439745E+03</pdfrwt>
<pdfrwt beam="2">  1       21 0.15944278E-01 0.17439745E+03</pdfrwt>
<totfact> 0.13543783E+05</totfact>
</mgrwt>
</event>
<event>
 4    1  0.4043938E+000  0.2094845E+03  0.7546771E-02  0.1141975E+00
         21   -1    0    0  501  502  0.00000000000E+00  0.00000000000E+00  0.15000689071E+03  0.15000689071E+03  0.00000000000E+00 0. -1.
         21   -1    0    0  502  503 -0.00000000000E+00 -0.00000000000E+00 -0.29841318666E+03  0.29841318666E+03  0.00000000000E+00 0.  1.
          6    1    1    2  501    0  0.92582292632E+02  0.73370861264E+02 -0.42761998495E+02  0.21380447308E+03  0.17300000000E+03 0.  1.
         -6    1    1    2    0  503 -0.92582292632E+02 -0.73370861264E+02 -0.10564429746E+03  0.23461560429E+03  0.17300000000E+03 0. -1.
<mgrwt>
<rscale>  2 0.20948452E+03</rscale>
<asrwt>0</asrwt>
<pdfrwt beam="1">  1       21 0.23077983E-01 0.20948452E+03</pdfrwt>
<pdfrwt beam="2">  1       21 0.45909720E-01 0.20948452E+03</pdfrwt>
<totfact> 0.79620584E+04</totfact>
</mgrwt>
</event>
<event>
 4    1  0.4043938E+000  0.2200025E+03  0.7546771E-02  0.1133881E+00
         21   -1    0    0  503  502  0.00000000000E+00  0.00000000000E+00  0.28689382190E+03  0.28689382190E+03  0.00000000000E+00 0.  1.
         21   -1    0    0  501  503 -0.00000000000E+00 -0.00000000000E+00 -0.27753636425E+03  0.27753636425E+03  0.00000000000E+00 0.  1.
          6    1    1    2  501    0  0.10652761165E+02 -0.13549399417E+03 -0.17204407190E+03  0.27928527790E+03  0.17300000000E+03 0.  1.
         -6    1    1    2    0  502 -0.10652761165E+02  0.13549399417E+03  0.18140152955E+03  0.28514490825E+03  0.17300000000E+03 0.  1.
<mgrwt>
<rscale>  2 0.22000251E+03</rscale>
<asrwt>0</asrwt>
<pdfrwt beam="1">  1       21 0.44137511E-01 0.22000251E+03</pdfrwt>
<pdfrwt beam="2">  1       21 0.42697902E-01 0.22000251E+03</pdfrwt>
<totfact> 0.25624034E+04</totfact>
</mgrwt>
</event>
<event>
 4    1  0.4043938E+000  0.1953973E+03  0.7546771E-02  0.1153681E+00
         21   -1    0    0  501  502  0.00000000000E+00  0.00000000000E+00  0.12748082509E+04  0.12748082509E+04  0.00000000000E+00 0. -1.
         21   -1    0    0  502  503 -0.00000000000E+00 -0.00000000000E+00 -0.36801359027E+02  0.36801359027E+02  0.00000000000E+00 0.  1.
          6    1    1    2  501    0  0.65695387297E+02 -0.62731241306E+02  0.90197405897E+03  0.92289614562E+03  0.17300000000E+03 0. -1.
         -6    1    1    2    0  503 -0.65695387297E+02  0.62731241306E+02  0.33603283295E+03  0.38871346435E+03  0.17300000000E+03 0.  1.
<mgrwt>
<rscale>  2 0.19539727E+03</rscale>
<asrwt>0</asrwt>
<pdfrwt beam="1">  1       21 0.19612431E+00 0.19539727E+03</pdfrwt>
<pdfrwt beam="2">  1       21 0.56617485E-02 0.19539727E+03</pdfrwt>
<totfact> 0.30908488E+04</totfact>
</mgrwt>
</event>
<event>
 4    1  0.4043938E+000  0.1998336E+03  0.7546771E-02  0.1149879E+00
         21   -1    0    0  501  502  0.00000000000E+00  0.00000000000E+00  0.31542933857E+03  0.31542933857E+03  0.00000000000E+00 0.  1.
         21   -1    0    0  502  503 -0.00000000000E+00 -0.00000000000E+00 -0.24529645626E+03  0.24529645626E+03  0.00000000000E+00 0.  1.
          6    1    1    2  501    0  0.70859650350E+02  0.70593038156E+02  0.23009271566E+03  0.30475584471E+03  0.17300000000E+03 0.  1.
         -6    1    1    2    0  503 -0.70859650350E+02 -0.70593038156E+02 -0.15995983335E+03  0.25596995013E+03  0.17300000000E+03 0.  1.
<mgrwt>
<rscale>  2 0.19983360E+03</rscale>
<asrwt>0</asrwt>
<pdfrwt beam="1">  1       21 0.48527591E-01 0.19983360E+03</pdfrwt>
<pdfrwt beam="2">  1       21 0.37737916E-01 0.19983360E+03</pdfrwt>
<totfact> 0.27348660E+04</totfact>
</mgrwt>
</event>
<event>
 4    1  0.4043938E+000  0.2131401E+03  0.7546771E-02  0.1139103E+00
         21   -1    0    0  501  502  0.00000000000E+00  0.00000000000E+00  0.14343645474E+03  0.14343645474E+03  0.00000000000E+00 0. -1.
         21   -1    0    0  502  503 -0.00000000000E+00 -0.00000000000E+00 -0.32287810832E+03  0.32287810832E+03  0.00000000000E+00 0. -1.
          6    1    1    2  501    0 -0.73097799355E+01 -0.12428293875E+03 -0.57511679652E+02  0.22076293856E+03  0.17300000000E+03 0. -1.
         -6    1    1    2    0  503  0.73097799355E+01  0.12428293875E+03 -0.12192997393E+03  0.24555162449E+03  0.17300000000E+03 0. -1.
<mgrwt>
<rscale>  2 0.21314005E+03</rscale>
<asrwt>0</asrwt>
<pdfrwt beam="1">  1       21 0.22067147E-01 0.21314005E+03</pdfrwt>
<pdfrwt beam="2">  1       21 0.49673555E-01 0.21314005E+03</pdfrwt>
<totfact> 0.73478023E+04</totfact>
</mgrwt>
</event>
<event>
 4    1  0.4043938E+000  0.2056132E+03  0.7546771E-02  0.1145088E+00
         21   -1    0    0  503  502  0.00000000000E+00  0.00000000000E+00  0.94314714822E+02  0.94314714822E+02  0.00000000000E+00 0. -1.
         21   -1    0    0  501  503 -0.00000000000E+00 -0.00000000000E+00 -0.47547788177E+03  0.47547788177E+03  0.00000000000E+00 0. -1.
          6    1    1    2  501    0  0.29060888054E+02 -0.10725315508E+03 -0.25875441937E+03  0.33050056586E+03  0.17300000000E+03 0. -1.
         -6    1    1    2    0  502 -0.29060888054E+02  0.10725315508E+03 -0.12240874758E+03  0.23929203073E+03  0.17300000000E+03 0. -1.
<mgrwt>
<rscale>  2 0.20561317E+03</rscale>
<asrwt>0</asrwt>
<pdfrwt beam="1">  1       21 0.14509956E-01 0.20561317E+03</pdfrwt>
<pdfrwt beam="2">  1       21 0.73150443E-01 0.20561317E+03</pdfrwt>
<totfact> 0.69630063E+04</totfact>
</mgrwt>
</event>
<event>
 4    1  0.4043938E+000  0.2235564E+03  0.7546771E-02  0.1131259E+00
         21   -1    0    0  503  502  0.00000000000E+00  0.00000000000E+00  0.52360822391E+02  0.52360822391E+02  0.00000000000E+00 0. -1.
         21   -1    0    0  501  503 -0.00000000000E+00 -0.00000000000E+00 -0.14176876896E+04  0.14176876896E+04  0.00000000000E+00 0. -1.
          6    1    1    2  501    0 -0.12996529607E+03 -0.56191364106E+02 -0.11028077211E+04  0.11252387824E+04  0.17300000000E+03 0. -1.
         -6    1    1    2    0  502  0.12996529607E+03  0.56191364106E+02 -0.26251914610E+03  0.34480972964E+03  0.17300000000E+03 0. -1.
<mgrwt>
<rscale>  2 0.22355636E+03</rscale>
<asrwt>0</asrwt>
<pdfrwt beam="1">  1       21 0.80555098E-02 0.22355636E+03</pdfrwt>
<pdfrwt beam="2">  1       21 0.21810583E+00 0.22355636E+03</pdfrwt>
<totfact> 0.11945458E+04</totfact>
</mgrwt>
</event>
<event>
 4    1  0.4043938E+000  0.2273808E+03  0.7546771E-02  0.1128497E+00
         21   -1    0    0  503  502  0.00000000000E+00  0.00000000000E+00  0.65172034368E+02  0.65172034368E+02  0.00000000000E+00 0. -1.
         21   -1    0    0  501  503 -0.00000000000E+00 -0.00000000000E+00 -0.98474295063E+03  0.98474295063E+03  0.00000000000E+00 0. -1.
          6    1    1    2  501    0  0.17315078083E+02  0.14653746409E+03 -0.69123900686E+03  0.72767671731E+03  0.17300000000E+03 0. -1.
         -6    1    1    2    0  502 -0.17315078083E+02 -0.14653746409E+03 -0.22833190941E+03  0.32223826769E+03  0.17300000000E+03 0. -1.
<mgrwt>
<rscale>  2 0.22738083E+03</rscale>
<asrwt>0</asrwt>
<pdfrwt beam="1">  1       21 0.10026467E-01 0.22738083E+03</pdfrwt>
<pdfrwt beam="2">  1       21 0.15149891E+00 0.22738083E+03</pdfrwt>
<totfact> 0.23007796E+04</totfact>
</mgrwt>
</event>
<event>
 4    1  0.4043938E+000  0.1989663E+03  0.7546771E-02  0.1150614E+00
         21   -1    0    0  501  502  0.00000000000E+00  0.00000000000E+00  0.10832273347E+04  0.10832273347E+04  0.00000000000E+00 0. -1.
         21   -1    0    0  502  503 -0.00000000000E+00 -0.00000000000E+00 -0.38524793304E+02  0.38524793304E+02  0.00000000000E+00 0. -1.
          6    1    1    2  501    0 -0.14794017436E+02  0.97158267550E+02  0.64946733430E+03  0.67926092941E+03  0.17300000000E+03 0. -1.
         -6    1    1    2    0  503  0.14794017436E+02 -0.97158267550E+02  0.39523520713E+03  0.44249119863E+03  0.17300000000E+03 0. -1.
<mgrwt>
<rscale>  2 0.19896631E+03</rscale>
<asrwt>0</asrwt>
<pdfrwt beam="1">  1       21 0.16665034E+00 0.19896631E+03</pdfrwt>
<pdfrwt beam="2">  1       21 0.59268921E-02 0.19896631E+03</pdfrwt>
<totfact> 0.45202212E+04</totfact>
</mgrwt>
</event>
<event>
 4    1  0.4043938E+000  0.1810525E+03  0.7546771E-02  0.1166788E+00
         21   -1    0    0  501  502  0.00000000000E+00  0.00000000000E+00  0.23969674576E+03  0.23969674576E+03  0.00000000000E+00 0.  1.
         21   -1    0    0  502  503 -0.00000000000E+00 -0.00000000000E+00 -0.23011293813E+03  0.23011293813E+03  0.00000000000E+00 0.  1.
          6    1    1    2  501    0  0.30301883032E+02  0.43963670839E+02  0.15441352584E+03  0.23795702433E+03  0.17300000000E+03 0.  1.
         -6    1    1    2    0  503 -0.30301883032E+02 -0.43963670839E+02 -0.14482971820E+03  0.23185265956E+03  0.17300000000E+03 0.  1.
<mgrwt>
<rscale>  2 0.18105250E+03</rscale>
<asrwt>0</asrwt>
<pdfrwt beam="1">  1       21 0.36876423E-01 0.18105250E+03</pdfrwt>
<pdfrwt beam="2">  1       21 0.35401990E-01 0.18105250E+03</pdfrwt>
<totfact> 0.54848432E+04</totfact>
</mgrwt>
</event>
<event>
 4    1  0.4043938E+000  0.2105238E+03  0.7546771E-02  0.1141152E+00
         21   -1    0    0  503  502  0.00000000000E+00  0.00000000000E+00  0.86285474766E+03  0.86285474766E+03  0.00000000000E+00 0. -1.
         21   -1    0    0  501  503 -0.00000000000E+00 -0.00000000000E+00 -0.52024561506E+02  0.52024561506E+02  0.00000000000E+00 0. -1.
          6    1    1    2  501    0 -0.11748304381E+03  0.24269762025E+02  0.35389797732E+03  0.41178157472E+03  0.17300000000E+03 0. -1.
         -6    1    1    2    0  502  0.11748304381E+03 -0.24269762025E+02  0.45693220883E+03  0.50309773444E+03  0.17300000000E+03 0. -1.
<mgrwt>
<rscale>  2 0.21052384E+03</rscale>
<asrwt>0</asrwt>
<pdfrwt beam="1">  1       21 0.13274687E+00 0.21052384E+03</pdfrwt>
<pdfrwt beam="2">  1       21 0.80037794E-02 0.21052384E+03</pdfrwt>
<totfact> 0.48684980E+04</totfact>
</mgrwt>
</event>
<event>
 4    1  0.4043938E+000  0.2737070E+03  0.7546771E-02  0.1099177E+00
         21   -1    0    0  501  502  0.00000000000E+00  0.00000000000E+00  0.20404658578E+04  0.20404658578E+04  0.00000000000E+00 0. -1.
         21   -1    0    0  502  503 -0.00000000000E+00 -0.00000000000E+00 -0.42046222168E+02  0.42046222168E+02  0.00000000000E+00 0.  1.
          6    1    1    2  501    0 -0.25076734687E+02  0.21061261662E+03  0.62843419933E+03  0.68545244896E+03  0.17300000000E+03 0.  1.
         -6    1    1    2    0  503  0.25076734687E+02 -0.21061261662E+03  0.13699854363E+04  0.13970596310E+04  0.17300000000E+03 0. -1.
<mgrwt>
<rscale>  2 0.27370699E+03</rscale>
<asrwt>0</asrwt>
<pdfrwt beam="1">  1       21 0.31391775E+00 0.27370699E+03</pdfrwt>
<pdfrwt beam="2">  1       21 0.64686511E-02 0.27370699E+03</pdfrwt>
<totfact> 0.45326289E+03</totfact>
</mgrwt>
</event>
<event>
 4    1  0.4043938E+000  0.1898760E+03  0.7546771E-02  0.1158573E+00
         21   -1    0    0  503  502  0.00000000000E+00  0.00000000000E+00  0.39774784770E+03  0.39774784770E+03  0.00000000000E+00 0. -1.
         21   -1    0    0  501  503 -0.00000000000E+00 -0.00000000000E+00 -0.10794973980E+03  0.10794973980E+03  0.00000000000E+00 0. -1.
          6    1    1    2  501    0 -0.77732964282E+02 -0.90275340647E+01  0.43656664029E+02  0.19483021948E+03  0.17300000000E+03 0. -1.
         -6    1    1    2    0  502  0.77732964282E+02  0.90275340647E+01  0.24614144387E+03  0.31086736802E+03  0.17300000000E+03 0. -1.
<mgrwt>
<rscale>  2 0.18987604E+03</rscale>
<asrwt>0</asrwt>
<pdfrwt beam="1">  1       21 0.61191976E-01 0.18987604E+03</pdfrwt>
<pdfrwt beam="2">  1       21 0.16607652E-01 0.18987604E+03</pdfrwt>
<totfact> 0.80980766E+04</totfact>
</mgrwt>
</event>
<event>
 4    1  0.4043938E+000  0.1913800E+03  0.7546771E-02  0.1157223E+00
         21   -1    0    0  501  502  0.00000000000E+00  0.00000000000E+00  0.95286446456E+03  0.95286446456E+03  0.00000000000E+00 0.  1.
         21   -1    0    0  502  503 -0.00000000000E+00 -0.00000000000E+00 -0.86191518686E+02  0.86191518686E+02  0.00000000000E+00 0.  1.
          6    1    1    2  501    0  0.38889931372E+02  0.72006139504E+02  0.82004065206E+03  0.84207658911E+03  0.17300000000E+03 0.  1.
         -6    1    1    2    0  503 -0.38889931372E+02 -0.72006139504E+02  0.46632293811E+02  0.19697939414E+03  0.17300000000E+03 0.  1.
<mgrwt>
<rscale>  2 0.19138002E+03</rscale>
<asrwt>0</asrwt>
<pdfrwt beam="1">  1       21 0.14659453E+00 0.19138002E+03</pdfrwt>
<pdfrwt beam="2">  1       21 0.13260234E-01 0.19138002E+03</pdfrwt>
<totfact> 0.15585225E+04</totfact>
</mgrwt>
</event>
<event>
 4    1  0.4043938E+000  0.2101650E+03  0.7546771E-02  0.1141435E+00
         21   -1    0    0  501  502  0.00000000000E+00  0.00000000000E+00  0.30660104493E+02  0.30660104493E+02  0.00000000000E+00 0.  1.
         21   -1    0    0  502  503 -0.00000000000E+00 -0.00000000000E+00 -0.15017009017E+04  0.15017009017E+04  0.00000000000E+00 0.  1.
          6    1    1    2  501    0 -0.11901739447E+03  0.86720058938E+01 -0.58098886187E+03  0.61783282649E+03  0.17300000000E+03 0.  1.
         -6    1    1    2    0  503  0.11901739447E+03 -0.86720058938E+01 -0.89005193535E+03  0.91452817972E+03  0.17300000000E+03 0.  1.
<mgrwt>
<rscale>  2 0.21016504E+03</rscale>
<asrwt>0</asrwt>
<pdfrwt beam="1">  1       21 0.47169395E-02 0.21016504E+03</pdfrwt>
<pdfrwt beam="2">  1       21 0.23103089E+00 0.21016504E+03</pdfrwt>
<totfact> 0.25245366E+04</totfact>
</mgrwt>
</event>
<event>
 4    1  0.4043938E+000  0.2285874E+03  0.7546771E-02  0.1127638E+00
         21   -1    0    0  503  502  0.00000000000E+00  0.00000000000E+00  0.88019658228E+03  0.88019658228E+03  0.00000000000E+00 0.  1.
         21   -1    0    0  501  503 -0.00000000000E+00 -0.00000000000E+00 -0.25388712585E+03  0.25388712585E+03  0.00000000000E+00 0.  1.
          6    1    1    2  501    0 -0.19175793646E+01  0.14939714234E+03 -0.18318627136E+03  0.29293240392E+03  0.17300000000E+03 0.  1.
         -6    1    1    2    0  502  0.19175793646E+01 -0.14939714234E+03  0.80949572779E+03  0.84115130420E+03  0.17300000000E+03 0.  1.
<mgrwt>
<rscale>  2 0.22858736E+03</rscale>
<asrwt>0</asrwt>
<pdfrwt beam="1">  1       21 0.13541486E+00 0.22858736E+03</pdfrwt>
<pdfrwt beam="2">  1       21 0.39059558E-01 0.22858736E+03</pdfrwt>
<totfact> 0.23879127E+03</totfact>
</mgrwt>
</event>
<event>
 4    1  0.4043938E+000  0.1956041E+03  0.7546771E-02  0.1153502E+00
         21   -1    0    0  501  502  0.00000000000E+00  0.00000000000E+00  0.14901286817E+04  0.14901286817E+04  0.00000000000E+00 0. -1.
         21   -1    0    0  502  503 -0.00000000000E+00 -0.00000000000E+00 -0.26053632914E+02  0.26053632914E+02  0.00000000000E+00 0. -1.
          6    1    1    2  501    0 -0.29410325547E-01  0.91279687874E+02  0.64080429998E+03  0.66999338292E+03  0.17300000000E+03 0. -1.
         -6    1    1    2    0  503  0.29410325547E-01 -0.91279687874E+02  0.82327074884E+03  0.84618893173E+03  0.17300000000E+03 0. -1.
<mgrwt>
<rscale>  2 0.19560415E+03</rscale>
<asrwt>0</asrwt>
<pdfrwt beam="1">  1       21 0.22925050E+00 0.19560415E+03</pdfrwt>
<pdfrwt beam="2">  1       21 0.40082524E-02 0.19560415E+03</pdfrwt>
<totfact> 0.34431323E+04</totfact>
</mgrwt>
</event>
<event>
 4    1  0.4043938E+000  0.2420687E+03  0.7546771E-02  0.1118422E+00
         21   -1    0    0  501  502  0.00000000000E+00  0.00000000000E+00  0.45550930043E+03  0.45550930043E+03  0.00000000000E+00 0.  1.
         21   -1    0    0  502  503 -0.00000000000E+00 -0.00000000000E+00 -0.55251994663E+03  0.55251994663E+03  0.00000000000E+00 0.  1.
          6    1    1    2  501    0  0.10921387975E+03 -0.12938535134E+03  0.39295329814E+03  0.46152956048E+03  0.17300000000E+03 0.  1.
         -6    1    1    2    0  503 -0.10921387975E+03  0.12938535134E+03 -0.48996394435E+03  0.54649968658E+03  0.17300000000E+03 0.  1.
<mgrwt>
<rscale>  2 0.24206867E+03</rscale>
<asrwt>0</asrwt>
<pdfrwt beam="1">  1       21 0.70078354E-01 0.24206867E+03</pdfrwt>
<pdfrwt beam="2">  1       21 0.85003068E-01 0.24206867E+03</pdfrwt>
<totfact> 0.21267535E+03</totfact>
</mgrwt>
</event>
<event>
 4    1  0.4043938E+000  0.2722283E+03  0.7546771E-02  0.1100011E+00
         21   -1    0    0  501  502  0.00000000000E+00  0.00000000000E+00  0.64646299639E+03  0.64646299639E+03  0.00000000000E+00 0. -1.
         21   -1    0    0  502  503 -0.00000000000E+00 -0.00000000000E+00 -0.22157506571E+03  0.22157506571E+03  0.00000000000E+00 0.  1.
          6    1    1    2  501    0  0.18637766076E+03  0.97173240482E+02  0.51396350228E+03  0.58160704326E+03  0.17300000000E+03 0. -1.
         -6    1    1    2    0  503 -0.18637766076E+03 -0.97173240482E+02 -0.89075571600E+02  0.28643101884E+03  0.17300000000E+03 0.  1.
<mgrwt>
<rscale>  2 0.27222834E+03</rscale>
<asrwt>0</asrwt>
<pdfrwt beam="1">  1       21 0.99455844E-01 0.27222834E+03</pdfrwt>
<pdfrwt beam="2">  1       21 0.34088472E-01 0.27222834E+03</pdfrwt>
<totfact> 0.65471026E+03</totfact>
</mgrwt>
</event>
<event>
 4    1  0.4043938E+000  0.2121903E+03  0.7546771E-02  0.1139843E+00
         21   -1    0    0  503  502  0.00000000000E+00  0.00000000000E+00  0.29165452153E+03  0.29165452153E+03  0.00000000000E+00 0. -1.
         21   -1    0    0  501  503 -0.00000000000E+00 -0.00000000000E+00 -0.17399149138E+04  0.17399149138E+04  0.00000000000E+00 0.  1.
          6    1    1    2  501    0 -0.11642562215E+03  0.39253232420E+02 -0.16938047274E+04  0.17070439936E+04  0.17300000000E+03 0.  1.
         -6    1    1    2    0  502  0.11642562215E+03 -0.39253232420E+02  0.24554433515E+03  0.32452544164E+03  0.17300000000E+03 0. -1.
<mgrwt>
<rscale>  2 0.21219034E+03</rscale>
<asrwt>0</asrwt>
<pdfrwt beam="1">  1       21 0.44869926E-01 0.21219034E+03</pdfrwt>
<pdfrwt beam="2">  1       21 0.26767922E+00 0.21219034E+03</pdfrwt>
<totfact> 0.24322540E+02</totfact>
</mgrwt>
</event>
<event>
 4    1  0.4043938E+000  0.1908821E+03  0.7546771E-02  0.1157668E+00
         21   -1    0    0  503  502  0.00000000000E+00  0.00000000000E+00  0.13631435299E+03  0.13631435299E+03  0.00000000000E+00 0. -1.
         21   -1    0    0  501  503 -0.00000000000E+00 -0.00000000000E+00 -0.32175065567E+03  0.32175065567E+03  0.00000000000E+00 0. -1.
          6    1    1    2  501    0  0.78431428383E+02  0.18854150390E+02 -0.18694270223E+03  0.26717698602E+03  0.17300000000E+03 0. -1.
         -6    1    1    2    0  502 -0.78431428383E+02 -0.18854150390E+02  0.15063995433E+01  0.19088802263E+03  0.17300000000E+03 0. -1.
<mgrwt>
<rscale>  2 0.19088208E+03</rscale>
<asrwt>0</asrwt>
<pdfrwt beam="1">  1       21 0.20971439E-01 0.19088208E+03</pdfrwt>
<pdfrwt beam="2">  1       21 0.49500100E-01 0.19088208E+03</pdfrwt>
<totfact> 0.82247870E+04</totfact>
</mgrwt>
</event>
<event>
 4    1  0.4043938E+000  0.1879716E+03  0.7546771E-02  0.1160304E+00
         21   -1    0    0  501  502  0.00000000000E+00  0.00000000000E+00  0.10577776716E+04  0.10577776716E+04  0.00000000000E+00 0.  1.
         21   -1    0    0  502  503 -0.00000000000E+00 -0.00000000000E+00 -0.35749485986E+02  0.35749485986E+02  0.00000000000E+00 0. -1.
          6    1    1    2  501    0 -0.18155874133E+01 -0.73491684404E+02  0.65108267108E+03  0.67767393975E+03  0.17300000000E+03 0.  1.
         -6    1    1    2    0  503  0.18155874133E+01  0.73491684404E+02  0.37094551456E+03  0.41585321786E+03  0.17300000000E+03 0. -1.
<mgrwt>
<rscale>  2 0.18797160E+03</rscale>
<asrwt>0</asrwt>
<pdfrwt beam="1">  1       21 0.16273500E+00 0.18797160E+03</pdfrwt>
<pdfrwt beam="2">  1       21 0.54999217E-02 0.18797160E+03</pdfrwt>
<totfact> 0.55146411E+04</totfact>
</mgrwt>
</event>
<event>
 4    1  0.4043938E+000  0.1924325E+03  0.7546771E-02  0.1156286E+00
         21   -1    0    0  503  502  0.00000000000E+00  0.00000000000E+00  0.27083640385E+03  0.27083640385E+03  0.00000000000E+00 0. -1.
         21   -1    0    0  501  503 -0.00000000000E+00 -0.00000000000E+00 -0.47994639277E+03  0.47994639277E+03  0.00000000000E+00 0.  1.
          6    1    1    2  501    0  0.66879491308E+02  0.51267746617E+02 -0.42200460354E+03  0.46380829403E+03  0.17300000000E+03 0.  1.
         -6    1    1    2    0  502 -0.66879491308E+02 -0.51267746617E+02  0.21289461462E+03  0.28697450259E+03  0.17300000000E+03 0. -1.
<mgrwt>
<rscale>  2 0.19243245E+03</rscale>
<asrwt>0</asrwt>
<pdfrwt beam="1">  1       21 0.41667139E-01 0.19243245E+03</pdfrwt>
<pdfrwt beam="2">  1       21 0.73837906E-01 0.19243245E+03</pdfrwt>
<totfact> 0.91307687E+03</totfact>
</mgrwt>
</event>
<event>
 4    1  0.4043938E+000  0.3301355E+03  0.7546771E-02  0.1071077E+00
         21   -1    0    0  503  502  0.00000000000E+00  0.00000000000E+00  0.81937154333E+03  0.81937154333E+03  0.00000000000E+00 0.  1.
         21   -1    0    0  501  503 -0.00000000000E+00 -0.00000000000E+00 -0.16334574906E+03  0.16334574906E+03  0.00000000000E+00 0. -1.
          6    1    1    2  501    0 -0.26988218455E+03 -0.78892799814E+02  0.11628426208E+03  0.35001642391E+03  0.17300000000E+03 0. -1.
         -6    1    1    2    0  502  0.26988218455E+03  0.78892799814E+02  0.53974153219E+03  0.63270086847E+03  0.17300000000E+03 0.  1.
<mgrwt>
<rscale>  2 0.33013553E+03</rscale>
<asrwt>0</asrwt>
<pdfrwt beam="1">  1       21 0.12605716E+00 0.33013553E+03</pdfrwt>
<pdfrwt beam="2">  1       21 0.25130116E-01 0.33013553E+03</pdfrwt>
<totfact> 0.64485250E+03</totfact>
</mgrwt>
</event>
<event>
 4    1  0.4043938E+000  0.2221695E+03  0.7546771E-02  0.1132276E+00
         21   -1    0    0  501  502  0.00000000000E+00  0.00000000000E+00  0.98080184460E+03  0.98080184460E+03  0.00000000000E+00 0.  1.
         21   -1    0    0  502  503 -0.00000000000E+00 -0.00000000000E+00 -0.65727008252E+02  0.65727008252E+02  0.00000000000E+00 0. -1.
          6    1    1    2  501    0  0.40643560200E+02  0.13333560819E+03  0.71083542066E+03  0.74474578123E+03  0.17300000000E+03 0.  1.
         -6    1    1    2    0  503 -0.40643560200E+02 -0.13333560819E+03  0.20423941569E+03  0.30178307162E+03  0.17300000000E+03 0. -1.
<mgrwt>
<rscale>  2 0.22216949E+03</rscale>
<asrwt>0</asrwt>
<pdfrwt beam="1">  1       21 0.15089258E+00 0.22216949E+03</pdfrwt>
<pdfrwt beam="2">  1       21 0.10111848E-01 0.22216949E+03</pdfrwt>
<totfact> 0.22978022E+04</totfact>
</mgrwt>
</event>
<event>
 4    1  0.4043938E+000  0.2193442E+03  0.7546771E-02  0.1134373E+00
         21   -1    0    0  501  502  0.00000000000E+00  0.00000000000E+00  0.19974974471E+03  0.19974974471E+03  0.00000000000E+00 0. -1.
         21   -1    0    0  502  503 -0.00000000000E+00 -0.00000000000E+00 -0.28683812703E+03  0.28683812703E+03  0.00000000000E+00 0.  1.
          6    1    1    2  501    0 -0.32886931616E+01  0.13480373702E+03  0.53861691174E+02  0.22586045425E+03  0.17300000000E+03 0. -1.
         -6    1    1    2    0  503  0.32886931616E+01 -0.13480373702E+03 -0.14095007350E+03  0.26072741750E+03  0.17300000000E+03 0.  1.
<mgrwt>
<rscale>  2 0.21934417E+03</rscale>
<asrwt>0</asrwt>
<pdfrwt beam="1">  1       21 0.30730730E-01 0.21934417E+03</pdfrwt>
<pdfrwt beam="2">  1       21 0.44128943E-01 0.21934417E+03</pdfrwt>
<totfact> 0.49517512E+04</totfact>
</mgrwt>
</event>
<event>
 4    1  0.4043938E+000  0.1967657E+03  0.7546771E-02  0.1152497E+00
         21   -1    0    0  501  502  0.00000000000E+00  0.00000000000E+00  0.10081321309E+03  0.10081321309E+03  0.00000000000E+00 0.  1.
         21   -1    0    0  502  503 -0.00000000000E+00 -0.00000000000E+00 -0.83355121205E+03  0.83355121205E+03  0.00000000000E+00 0.  1.
          6    1    1    2  501    0  0.17054963780E+02  0.92178433464E+02 -0.23294558770E+02  0.19813977857E+03  0.17300000000E+03 0.  1.
         -6    1    1    2    0  503 -0.17054963780E+02 -0.92178433464E+02 -0.70944344019E+03  0.73622464657E+03  0.17300000000E+03 0.  1.
<mgrwt>
<rscale>  2 0.19676569E+03</rscale>
<asrwt>0</asrwt>
<pdfrwt beam="1">  1       21 0.15509725E-01 0.19676569E+03</pdfrwt>
<pdfrwt beam="2">  1       21 0.12823865E+00 0.19676569E+03</pdfrwt>
<totfact> 0.16466715E+04</totfact>
</mgrwt>
</event>
<event>
 4    1  0.4043938E+000  0.1942508E+03  0.7546771E-02  0.1154682E+00
         21   -1    0    0  503  502  0.00000000000E+00  0.00000000000E+00  0.13850311014E+03  0.13850311014E+03  0.00000000000E+00 0. -1.
         21   -1    0    0  501  503 -0.00000000000E+00 -0.00000000000E+00 -0.28643082338E+03  0.28643082338E+03  0.00000000000E+00 0.  1.
          6    1    1    2  501    0 -0.63279493709E+02  0.61644623366E+02 -0.12092641438E+03  0.22881554057E+03  0.17300000000E+03 0.  1.
         -6    1    1    2    0  502  0.63279493709E+02 -0.61644623366E+02 -0.27001298864E+02  0.19611839295E+03  0.17300000000E+03 0. -1.
<mgrwt>
<rscale>  2 0.19425075E+03</rscale>
<asrwt>0</asrwt>
<pdfrwt beam="1">  1       21 0.21308171E-01 0.19425075E+03</pdfrwt>
<pdfrwt beam="2">  1       21 0.44066280E-01 0.19425075E+03</pdfrwt>
<totfact> 0.10134878E+05</totfact>
</mgrwt>
</event>
<event>
 4    1  0.4043938E+000  0.2582795E+03  0.7546771E-02  0.1108181E+00
         21   -1    0    0  503  502  0.00000000000E+00  0.00000000000E+00  0.20640114678E+02  0.20640114678E+02  0.00000000000E+00 0. -1.
         21   -1    0    0  501  503 -0.00000000000E+00 -0.00000000000E+00 -0.32378950393E+04  0.32378950393E+04  0.00000000000E+00 0.  1.
          6    1    1    2  501    0  0.19171035729E+03 -0.51437903253E+01 -0.16782981222E+04  0.16980556253E+04  0.17300000000E+03 0.  1.
         -6    1    1    2    0  502 -0.19171035729E+03  0.51437903253E+01 -0.15389568024E+04  0.15604795287E+04  0.17300000000E+03 0. -1.
<mgrwt>
<rscale>  2 0.25827954E+03</rscale>
<asrwt>0</asrwt>
<pdfrwt beam="1">  1       21 0.31754024E-02 0.25827954E+03</pdfrwt>
<pdfrwt beam="2">  1       21 0.49813767E+00 0.25827954E+03</pdfrwt>
<totfact> 0.10276990E+03</totfact>
</mgrwt>
</event>
<event>
 4    1  0.4043938E+000  0.2210203E+03  0.7546771E-02  0.1133125E+00
         21   -1    0    0  503  502  0.00000000000E+00  0.00000000000E+00  0.42911083906E+03  0.42911083906E+03  0.00000000000E+00 0.  1.
         21   -1    0    0  501  503 -0.00000000000E+00 -0.00000000000E+00 -0.28996260984E+03  0.28996260984E+03  0.00000000000E+00 0.  1.
          6    1    1    2  501    0  0.13753917235E+03  0.19875297086E+01 -0.21063342986E+03  0.30531363543E+03  0.17300000000E+03 0.  1.
         -6    1    1    2    0  502 -0.13753917235E+03 -0.19875297086E+01  0.34978165908E+03  0.41375981346E+03  0.17300000000E+03 0.  1.
<mgrwt>
<rscale>  2 0.22102030E+03</rscale>
<asrwt>0</asrwt>
<pdfrwt beam="1">  1       21 0.66017052E-01 0.22102030E+03</pdfrwt>
<pdfrwt beam="2">  1       21 0.44609632E-01 0.22102030E+03</pdfrwt>
<totfact> 0.99740801E+03</totfact>
</mgrwt>
</event>
<event>
 4    1  0.4043938E+000  0.2105751E+03  0.7546771E-02  0.1141111E+00
         21   -1    0    0  503  502  0.00000000000E+00  0.00000000000E+00  0.19703412047E+03  0.19703412047E+03  0.00000000000E+00 0. -1.
         21   -1    0    0  501  503 -0.00000000000E+00 -0.00000000000E+00 -0.26517949041E+03  0.26517949041E+03  0.00000000000E+00 0.  1.
          6    1    1    2  501    0  0.60631790848E+02 -0.10361779938E+03  0.55834187757E+02  0.21785159842E+03  0.17300000000E+03 0. -1.
         -6    1    1    2    0  502 -0.60631790848E+02  0.10361779938E+03 -0.12397955770E+03  0.24436201247E+03  0.17300000000E+03 0. -1.
<mgrwt>
<rscale>  2 0.21057508E+03</rscale>
<asrwt>0</asrwt>
<pdfrwt beam="1">  1       21 0.30312942E-01 0.21057508E+03</pdfrwt>
<pdfrwt beam="2">  1       21 0.40796844E-01 0.21057508E+03</pdfrwt>
<totfact> 0.59944286E+04</totfact>
</mgrwt>
</event>
<event>
 4    1  0.4043938E+000  0.2631100E+03  0.7546771E-02  0.1105289E+00
         21   -1    0    0  503  502  0.00000000000E+00  0.00000000000E+00  0.98812406725E+02  0.98812406725E+02  0.00000000000E+00 0.  1.
         21   -1    0    0  501  503 -0.00000000000E+00 -0.00000000000E+00 -0.14447098550E+04  0.14447098550E+04  0.00000000000E+00 0.  1.
          6    1    1    2  501    0  0.54173279568E+02  0.19069118611E+03 -0.12268270355E+04  0.12547236539E+04  0.17300000000E+03 0.  1.
         -6    1    1    2    0  502 -0.54173279568E+02 -0.19069118611E+03 -0.11907041280E+03  0.28879860783E+03  0.17300000000E+03 0.  1.
<mgrwt>
<rscale>  2 0.26311000E+03</rscale>
<asrwt>0</asrwt>
<pdfrwt beam="1">  1       21 0.15201910E-01 0.26311000E+03</pdfrwt>
<pdfrwt beam="2">  1       21 0.22226304E+00 0.26311000E+03</pdfrwt>
<totfact> 0.35062722E+03</totfact>
</mgrwt>
</event>
<event>
 4    1  0.4043938E+000  0.2010379E+03  0.7546771E-02  0.1148866E+00
         21   -1    0    0  501  502  0.00000000000E+00  0.00000000000E+00  0.96682965685E+02  0.96682965685E+02  0.00000000000E+00 0. -1.
         21   -1    0    0  502  503 -0.00000000000E+00 -0.00000000000E+00 -0.48685811984E+03  0.48685811984E+03  0.00000000000E+00 0. -1.
          6    1    1    2  501    0 -0.82900919521E+02  0.60122220570E+02 -0.85382270703E+02  0.21841789307E+03  0.17300000000E+03 0. -1.
         -6    1    1    2    0  503  0.82900919521E+02 -0.60122220570E+02 -0.30479288346E+03  0.36512319246E+03  0.17300000000E+03 0. -1.
<mgrwt>
<rscale>  2 0.20103792E+03</rscale>
<asrwt>0</asrwt>
<pdfrwt beam="1">  1       21 0.14874302E-01 0.20103792E+03</pdfrwt>
<pdfrwt beam="2">  1       21 0.74901250E-01 0.20103792E+03</pdfrwt>
<totfact> 0.63269535E+04</totfact>
</mgrwt>
</event>
<event>
 4    1  0.4043938E+000  0.2114465E+03  0.7546771E-02  0.1140426E+00
         21   -1    0    0  503  502  0.00000000000E+00  0.00000000000E+00  0.78198063678E+02  0.78198063678E+02  0.00000000000E+00 0. -1.
         21   -1    0    0  501  503 -0.00000000000E+00 -0.00000000000E+00 -0.94665885355E+03  0.94665885355E+03  0.00000000000E+00 0. -1.
          6    1    1    2  501    0  0.11530970882E+03 -0.38526263562E+02 -0.11175217861E+03  0.23916135005E+03  0.17300000000E+03 0. -1.
         -6    1    1    2    0  502 -0.11530970882E+03  0.38526263562E+02 -0.75670861127E+03  0.78569556719E+03  0.17300000000E+03 0. -1.
<mgrwt>
<rscale>  2 0.21144645E+03</rscale>
<asrwt>0</asrwt>
<pdfrwt beam="1">  1       21 0.12030472E-01 0.21144645E+03</pdfrwt>
<pdfrwt beam="2">  1       21 0.14563982E+00 0.21144645E+03</pdfrwt>
<totfact> 0.18629905E+04</totfact>
</mgrwt>
</event>
<event>
 4    1  0.4043938E+000  0.2197195E+03  0.7546771E-02  0.1134092E+00
         21   -1    0    0  501  502  0.00000000000E+00  0.00000000000E+00  0.66565871320E+03  0.66565871320E+03  0.00000000000E+00 0. -1.
         21   -1    0    0  502  503 -0.00000000000E+00 -0.00000000000E+00 -0.12710175264E+03  0.12710175264E+03  0.00000000000E+00 0.  1.
          6    1    1    2  501    0  0.12961008743E+03  0.39355855505E+02  0.95368875125E+01  0.21992637484E+03  0.17300000000E+03 0.  1.
         -6    1    1    2    0  503 -0.12961008743E+03 -0.39355855505E+02  0.52902007305E+03  0.57283409101E+03  0.17300000000E+03 0. -1.
<mgrwt>
<rscale>  2 0.21971950E+03</rscale>
<asrwt>0</asrwt>
<pdfrwt beam="1">  1       21 0.10240903E+00 0.21971950E+03</pdfrwt>
<pdfrwt beam="2">  1       21 0.19554116E-01 0.21971950E+03</pdfrwt>
<totfact> 0.18366442E+04</totfact>
</mgrwt>
</event>
<event>
 4    1  0.4043938E+000  0.1903218E+03  0.7546771E-02  0.1158171E+00
         21   -1    0    0  501  502  0.00000000000E+00  0.00000000000E+00  0.23865385451E+02  0.23865385451E+02  0.00000000000E+00 0. -1.
         21   -1    0    0  502  503 -0.00000000000E+00 -0.00000000000E+00 -0.35865661906E+04  0.35865661906E+04  0.00000000000E+00 0. -1.
          6    1    1    2  501    0 -0.78908373456E+02  0.81756495620E+01 -0.41031823834E+03  0.45230899766E+03  0.17300000000E+03 0. -1.
         -6    1    1    2    0  503  0.78908373456E+02 -0.81756495620E+01 -0.31523825668E+04  0.31581225784E+04  0.17300000000E+03 0. -1.
<mgrwt>
<rscale>  2 0.19032176E+03</rscale>
<asrwt>0</asrwt>
<pdfrwt beam="1">  1       21 0.36715968E-02 0.19032176E+03</pdfrwt>
<pdfrwt beam="2">  1       21 0.55177955E+00 0.19032176E+03</pdfrwt>
<totfact> 0.36166846E+02</totfact>
</mgrwt>
</event>
<event>
 4    1  0.4043938E+000  0.1906687E+03  0.7546771E-02  0.1157860E+00
         21   -1    0    0  503  502  0.00000000000E+00  0.00000000000E+00  0.12285087077E+03  0.12285087077E+03  0.00000000000E+00 0. -1.
         21   -1    0    0  501  503 -0.00000000000E+00 -0.00000000000E+00 -0.62502483892E+03  0.62502483892E+03  0.00000000000E+00 0. -1.
          6    1    1    2  501    0 -0.29286376416E+02  0.74618079811E+02 -0.52242780523E+03  0.55613430155E+03  0.17300000000E+03 0. -1.
         -6    1    1    2    0  502  0.29286376416E+02 -0.74618079811E+02  0.20253837087E+02  0.19174140814E+03  0.17300000000E+03 0. -1.
<mgrwt>
<rscale>  2 0.19066869E+03</rscale>
<asrwt>0</asrwt>
<pdfrwt beam="1">  1       21 0.18900134E-01 0.19066869E+03</pdfrwt>
<pdfrwt beam="2">  1       21 0.96157666E-01 0.19066869E+03</pdfrwt>
<totfact> 0.23121926E+04</totfact>
</mgrwt>
</event>
<event>
 4    1  0.4043938E+000  0.1874459E+03  0.7546771E-02  0.1160785E+00
         21   -1    0    0  501  502  0.00000000000E+00  0.00000000000E+00  0.54698035463E+03  0.54698035463E+03  0.00000000000E+00 0. -1.
         21   -1    0    0  502  503 -0.00000000000E+00 -0.00000000000E+00 -0.64244179342E+02  0.64244179342E+02  0.00000000000E+00 0.  1.
          6    1    1    2  501    0  0.58934572111E+02 -0.41637477386E+02  0.24476470976E+03  0.30829486933E+03  0.17300000000E+03 0.  1.
         -6    1    1    2    0  503 -0.58934572111E+02  0.41637477386E+02  0.23797146553E+03  0.30292966464E+03  0.17300000000E+03 0.  1.
<mgrwt>
<rscale>  2 0.18744589E+03</rscale>
<asrwt>0</asrwt>
<pdfrwt beam="1">  1       21 0.84150821E-01 0.18744589E+03</pdfrwt>
<pdfrwt beam="2">  1       21 0.98837203E-02 0.18744589E+03</pdfrwt>
<totfact> 0.10177428E+05</totfact>
</mgrwt>
</event>
<event>
 4    1  0.4043938E+000  0.2262917E+03  0.7546771E-02  0.1129277E+00
         21   -1    0    0  501  502  0.00000000000E+00  0.00000000000E+00  0.17168294444E+03  0.17168294444E+03  0.00000000000E+00 0. -1.
         21   -1    0    0  502  503 -0.00000000000E+00 -0.00000000000E+00 -0.30122809651E+03  0.30122809651E+03  0.00000000000E+00 0.  1.
          6    1    1    2  501    0 -0.11909841887E+03 -0.84228784919E+02 -0.88203349079E+02  0.24287394338E+03  0.17300000000E+03 0.  1.
         -6    1    1    2    0  503  0.11909841887E+03  0.84228784919E+02 -0.41341802993E+02  0.23003709757E+03  0.17300000000E+03 0. -1.
<mgrwt>
<rscale>  2 0.22629167E+03</rscale>
<asrwt>0</asrwt>
<pdfrwt beam="1">  1       21 0.26412761E-01 0.22629167E+03</pdfrwt>
<pdfrwt beam="2">  1       21 0.46342783E-01 0.22629167E+03</pdfrwt>
<totfact> 0.59904415E+04</totfact>
</mgrwt>
</event>
<event>
 4    1  0.4043938E+000  0.1759796E+03  0.7546771E-02  0.1171752E+00
         21   -1    0    0  503  502  0.00000000000E+00  0.00000000000E+00  0.11741444506E+02  0.11741444506E+02  0.00000000000E+00 0.  1.
         21   -1    0    0  501  503 -0.00000000000E+00 -0.00000000000E+00 -0.29539222205E+04  0.29539222205E+04  0.00000000000E+00 0.  1.
          6    1    1    2  501    0 -0.13921655184E+02  0.29086218105E+02 -0.98582267672E+03  0.10014065960E+04  0.17300000000E+03 0.  1.
         -6    1    1    2    0  502  0.13921655184E+02 -0.29086218105E+02 -0.19563580993E+04  0.19642570690E+04  0.17300000000E+03 0.  1.
<mgrwt>
<rscale>  2 0.17597960E+03</rscale>
<asrwt>0</asrwt>
<pdfrwt beam="1">  1       21 0.18063740E-02 0.17597960E+03</pdfrwt>
<pdfrwt beam="2">  1       21 0.45445010E+00 0.17597960E+03</pdfrwt>
<totfact> 0.57863245E+03</totfact>
</mgrwt>
</event>
<event>
 4    1  0.4043938E+000  0.2149950E+03  0.7546771E-02  0.1137670E+00
         21   -1    0    0  503  502  0.00000000000E+00  0.00000000000E+00  0.35990414143E+03  0.35990414143E+03  0.00000000000E+00 0. -1.
         21   -1    0    0  501  503 -0.00000000000E+00 -0.00000000000E+00 -0.14285765620E+03  0.14285765620E+03  0.00000000000E+00 0.  1.
          6    1    1    2  501    0  0.12342650392E+03  0.32553746801E+02  0.28638585389E+02  0.21689402222E+03  0.17300000000E+03 0.  1.
         -6    1    1    2    0  502 -0.12342650392E+03 -0.32553746801E+02  0.18840789983E+03  0.28586777541E+03  0.17300000000E+03 0. -1.
<mgrwt>
<rscale>  2 0.21499500E+03</rscale>
<asrwt>0</asrwt>
<pdfrwt beam="1">  1       21 0.55369867E-01 0.21499500E+03</pdfrwt>
<pdfrwt beam="2">  1       21 0.21978101E-01 0.21499500E+03</pdfrwt>
<totfact> 0.58863250E+04</totfact>
</mgrwt>
</event>
<event>
 4    1  0.4043938E+000  0.1891510E+03  0.7546771E-02  0.1159229E+00
         21   -1    0    0  503  502  0.00000000000E+00  0.00000000000E+00  0.95419140555E+02  0.95419140555E+02  0.00000000000E+00 0. -1.
         21   -1    0    0  501  503 -0.00000000000E+00 -0.00000000000E+00 -0.38522649461E+03  0.38522649461E+03  0.00000000000E+00 0. -1.
          6    1    1    2  501    0  0.59467146025E+01 -0.76247846731E+02 -0.18414163542E+03  0.26398151345E+03  0.17300000000E+03 0. -1.
         -6    1    1    2    0  502 -0.59467146025E+01  0.76247846731E+02 -0.10566571863E+03  0.21666412172E+03  0.17300000000E+03 0. -1.
<mgrwt>
<rscale>  2 0.18915099E+03</rscale>
<asrwt>0</asrwt>
<pdfrwt beam="1">  1       21 0.14679868E-01 0.18915099E+03</pdfrwt>
<pdfrwt beam="2">  1       21 0.59265613E-01 0.18915099E+03</pdfrwt>
<totfact> 0.10869009E+05</totfact>
</mgrwt>
</event>
<event>
 4    1  0.4043938E+000  0.3013966E+03  0.7546771E-02  0.1084545E+00
         21   -1    0    0  501  502  0.00000000000E+00  0.00000000000E+00  0.27465901662E+03  0.27465901662E+03  0.00000000000E+00 0.  1.
         21   -1    0    0  502  503 -0.00000000000E+00 -0.00000000000E+00 -0.35861625231E+03  0.35861625231E+03  0.00000000000E+00 0. -1.
          6    1    1    2  501    0 -0.24519705050E+03  0.28095055860E+02  0.46306470608E+02  0.30493313195E+03  0.17300000000E+03 0.  1.
         -6    1    1    2    0  503  0.24519705050E+03 -0.28095055860E+02 -0.13026370631E+03  0.32834213698E+03  0.17300000000E+03 0. -1.
<mgrwt>
<rscale>  2 0.30139663E+03</rscale>
<asrwt>0</asrwt>
<pdfrwt beam="1">  1       21 0.42255234E-01 0.30139663E+03</pdfrwt>
<pdfrwt beam="2">  1       21 0.55171731E-01 0.30139663E+03</pdfrwt>
<totfact> 0.15790505E+04</totfact>
</mgrwt>
</event>
<event>
 4    1  0.4043938E+000  0.1759345E+03  0.7546771E-02  0.1171797E+00
         21   -1    0    0  503  502  0.00000000000E+00  0.00000000000E+00  0.88213959710E+02  0.88213959710E+02  0.00000000000E+00 0.  1.
         21   -1    0    0  501  503 -0.00000000000E+00 -0.00000000000E+00 -0.69725006269E+03  0.69725006269E+03  0.00000000000E+00 0.  1.
          6    1    1    2  501    0 -0.44421328240E+01 -0.31689345456E+02 -0.58131998386E+03  0.60735975401E+03  0.17300000000E+03 0.  1.
         -6    1    1    2    0  502  0.44421328240E+01  0.31689345456E+02 -0.27716119122E+02  0.17810426839E+03  0.17300000000E+03 0.  1.
<mgrwt>
<rscale>  2 0.17593450E+03</rscale>
<asrwt>0</asrwt>
<pdfrwt beam="1">  1       21 0.13571378E-01 0.17593450E+03</pdfrwt>
<pdfrwt beam="2">  1       21 0.10726924E+00 0.17593450E+03</pdfrwt>
<totfact> 0.32952514E+04</totfact>
</mgrwt>
</event>
<event>
 4    1  0.4043938E+000  0.1800518E+03  0.7546771E-02  0.1167753E+00
         21   -1    0    0  503  502  0.00000000000E+00  0.00000000000E+00  0.19703417989E+03  0.19703417989E+03  0.00000000000E+00 0. -1.
         21   -1    0    0  501  503 -0.00000000000E+00 -0.00000000000E+00 -0.23813843188E+03  0.23813843188E+03  0.00000000000E+00 0. -1.
          6    1    1    2  501    0  0.49173361318E+02  0.84635773853E+01  0.10041610905E+03  0.20616024486E+03  0.17300000000E+03 0. -1.
         -6    1    1    2    0  502 -0.49173361318E+02 -0.84635773853E+01 -0.14152036105E+03  0.22901236691E+03  0.17300000000E+03 0. -1.
<mgrwt>
<rscale>  2 0.18005180E+03</rscale>
<asrwt>0</asrwt>
<pdfrwt beam="1">  1       21 0.30312951E-01 0.18005180E+03</pdfrwt>
<pdfrwt beam="2">  1       21 0.36636682E-01 0.18005180E+03</pdfrwt>
<totfact> 0.75424083E+04</totfact>
</mgrwt>
</event>
<event>
 4    1  0.4043938E+000  0.2246483E+03  0.7546771E-02  0.1130464E+00
         21   -1    0    0  503  502  0.00000000000E+00  0.00000000000E+00  0.14557098614E+04  0.14557098614E+04  0.00000000000E+00 0. -1.
         21   -1    0    0  501  503 -0.00000000000E+00 -0.00000000000E+00 -0.37218608094E+02  0.37218608094E+02  0.00000000000E+00 0.  1.
          6    1    1    2  501    0  0.10147800584E+03  0.10119321527E+03  0.51384179052E+03  0.56080320806E+03  0.17300000000E+03 0. -1.
         -6    1    1    2    0  502 -0.10147800584E+03 -0.10119321527E+03  0.90464946276E+03  0.93212526141E+03  0.17300000000E+03 0. -1.
<mgrwt>
<rscale>  2 0.22464829E+03</rscale>
<asrwt>0</asrwt>
<pdfrwt beam="1">  1       21 0.22395532E+00 0.22464829E+03</pdfrwt>
<pdfrwt beam="2">  1       21 0.57259408E-02 0.22464829E+03</pdfrwt>
<totfact> 0.19824886E+04</totfact>
</mgrwt>
</event>
<event>
 4    1  0.4043938E+000  0.1872156E+03  0.7546771E-02  0.1160997E+00
         21   -1    0    0  501  502  0.00000000000E+00  0.00000000000E+00  0.22126377452E+03  0.22126377452E+03  0.00000000000E+00 0. -1.
         21   -1    0    0  502  503 -0.00000000000E+00 -0.00000000000E+00 -0.17015738394E+03  0.17015738394E+03  0.00000000000E+00 0.  1.
          6    1    1    2  501    0 -0.71321371783E+02  0.58256724706E+01  0.76983542634E+02  0.20242564652E+03  0.17300000000E+03 0. -1.
         -6    1    1    2    0  503  0.71321371783E+02 -0.58256724706E+01 -0.25877152055E+02  0.18899551193E+03  0.17300000000E+03 0.  1.
<mgrwt>
<rscale>  2 0.18721559E+03</rscale>
<asrwt>0</asrwt>
<pdfrwt beam="1">  1       21 0.34040580E-01 0.18721559E+03</pdfrwt>
<pdfrwt beam="2">  1       21 0.26178059E-01 0.18721559E+03</pdfrwt>
<totfact> 0.11554480E+05</totfact>
</mgrwt>
</event>
<event>
 4    1  0.4043938E+000  0.1832804E+03  0.7546771E-02  0.1164666E+00
         21   -1    0    0  503  502  0.00000000000E+00  0.00000000000E+00  0.19975351143E+03  0.19975351143E+03  0.00000000000E+00 0.  1.
         21   -1    0    0  501  503 -0.00000000000E+00 -0.00000000000E+00 -0.41752797818E+03  0.41752797818E+03  0.00000000000E+00 0.  1.
          6    1    1    2  501    0 -0.53836512535E+02  0.27646281153E+02 -0.34740781237E+03  0.39278986117E+03  0.17300000000E+03 0.  1.
         -6    1    1    2    0  502  0.53836512535E+02 -0.27646281153E+02  0.12963334562E+03  0.22449162844E+03  0.17300000000E+03 0.  1.
<mgrwt>
<rscale>  2 0.18328035E+03</rscale>
<asrwt>0</asrwt>
<pdfrwt beam="1">  1       21 0.30731310E-01 0.18328035E+03</pdfrwt>
<pdfrwt beam="2">  1       21 0.64235073E-01 0.18328035E+03</pdfrwt>
<totfact> 0.22859818E+04</totfact>
</mgrwt>
</event>
<event>
 4    1  0.4043938E+000  0.2124713E+03  0.7546771E-02  0.1139624E+00
         21   -1    0    0  503  502  0.00000000000E+00  0.00000000000E+00  0.18400227923E+03  0.18400227923E+03  0.00000000000E+00 0.  1.
         21   -1    0    0  501  503 -0.00000000000E+00 -0.00000000000E+00 -0.25761857825E+03  0.25761857825E+03  0.00000000000E+00 0. -1.
          6    1    1    2  501    0  0.91960955374E+02  0.82208565656E+02 -0.85004488738E+02  0.22884455136E+03  0.17300000000E+03 0. -1.
         -6    1    1    2    0  502 -0.91960955374E+02 -0.82208565656E+02  0.11388189724E+02  0.21277630612E+03  0.17300000000E+03 0. -1.
<mgrwt>
<rscale>  2 0.21247133E+03</rscale>
<asrwt>0</asrwt>
<pdfrwt beam="1">  1       21 0.28308043E-01 0.21247133E+03</pdfrwt>
<pdfrwt beam="2">  1       21 0.39633627E-01 0.21247133E+03</pdfrwt>
<totfact> 0.72568343E+04</totfact>
</mgrwt>
</event>
<event>
 4    1  0.4043938E+000  0.2534734E+03  0.7546771E-02  0.1111129E+00
         21   -1    0    0  503  502  0.00000000000E+00  0.00000000000E+00  0.30886756550E+03  0.30886756550E+03  0.00000000000E+00 0.  1.
         21   -1    0    0  501  503 -0.00000000000E+00 -0.00000000000E+00 -0.20874157606E+03  0.20874157606E+03  0.00000000000E+00 0.  1.
          6    1    1    2  501    0 -0.16158033553E+03  0.90617733115E+02  0.34783602789E+02  0.25584893474E+03  0.17300000000E+03 0.  1.
         -6    1    1    2    0  502  0.16158033553E+03 -0.90617733115E+02  0.65342386652E+02  0.26176020683E+03  0.17300000000E+03 0.  1.
<mgrwt>
<rscale>  2 0.25347343E+03</rscale>
<asrwt>0</asrwt>
<pdfrwt beam="1">  1       21 0.47518087E-01 0.25347343E+03</pdfrwt>
<pdfrwt beam="2">  1       21 0.32114089E-01 0.25347343E+03</pdfrwt>
<totfact> 0.38391325E+04</totfact>
</mgrwt>
</event>
<event>
 4    1  0.4043938E+000  0.2224312E+03  0.7546771E-02  0.1132083E+00
         21   -1    0    0  503  502  0.00000000000E+00  0.00000000000E+00  0.18643442365E+04  0.18643442365E+04  0.00000000000E+00 0. -1.
         21   -1    0    0  501  503 -0.00000000000E+00 -0.00000000000E+00 -0.21782098434E+03  0.21782098434E+03  0.00000000000E+00 0.  1.
          6    1    1    2  501    0 -0.75078662346E+02  0.11793996229E+03 -0.15234266723E+03  0.26959957067E+03  0.17300000000E+03 0.  1.
         -6    1    1    2    0  502  0.75078662346E+02 -0.11793996229E+03  0.17988659194E+04  0.18125656502E+04  0.17300000000E+03 0. -1.
<mgrwt>
<rscale>  2 0.22243120E+03</rscale>
<asrwt>0</asrwt>
<pdfrwt beam="1">  1       21 0.28682218E+00 0.22243120E+03</pdfrwt>
<pdfrwt beam="2">  1       21 0.33510922E-01 0.22243120E+03</pdfrwt>
<totfact> 0.33472473E+02</totfact>
</mgrwt>
</event>
<event>
 4    1  0.4043938E+000  0.2286955E+03  0.7546771E-02  0.1127561E+00
         21   -1    0    0  501  502  0.00000000000E+00  0.00000000000E+00  0.74090115182E+02  0.74090115182E+02  0.00000000000E+00 0.  1.
         21   -1    0    0  502  503 -0.00000000000E+00 -0.00000000000E+00 -0.71716157300E+03  0.71716157300E+03  0.00000000000E+00 0.  1.
          6    1    1    2  501    0  0.81615608082E+02 -0.12534560772E+03 -0.27200135224E+03  0.35536792832E+03  0.17300000000E+03 0.  1.
         -6    1    1    2    0  503 -0.81615608082E+02  0.12534560772E+03 -0.37107010558E+03  0.43588375987E+03  0.17300000000E+03 0.  1.
<mgrwt>
<rscale>  2 0.22869549E+03</rscale>
<asrwt>0</asrwt>
<pdfrwt beam="1">  1       21 0.11398479E-01 0.22869549E+03</pdfrwt>
<pdfrwt beam="2">  1       21 0.11033255E+00 0.22869549E+03</pdfrwt>
<totfact> 0.40930781E+04</totfact>
</mgrwt>
</event>
<event>
 4    1  0.4043938E+000  0.2010918E+03  0.7546771E-02  0.1148821E+00
         21   -1    0    0  501  502  0.00000000000E+00  0.00000000000E+00  0.77958413008E+03  0.77958413008E+03  0.00000000000E+00 0. -1.
         21   -1    0    0  502  503 -0.00000000000E+00 -0.00000000000E+00 -0.60049629602E+02  0.60049629602E+02  0.00000000000E+00 0. -1.
          6    1    1    2  501    0 -0.98586438519E+02 -0.28100609334E+02  0.51469915333E+03  0.55258768403E+03  0.17300000000E+03 0.  1.
         -6    1    1    2    0  503  0.98586438519E+02  0.28100609334E+02  0.20483534715E+03  0.28704607565E+03  0.17300000000E+03 0.  1.
<mgrwt>
<rscale>  2 0.20109184E+03</rscale>
<asrwt>0</asrwt>
<pdfrwt beam="1">  1       21 0.11993601E+00 0.20109184E+03</pdfrwt>
<pdfrwt beam="2">  1       21 0.92384051E-02 0.20109184E+03</pdfrwt>
<totfact> 0.49114759E+04</totfact>
</mgrwt>
</event>
<event>
 4    1  0.4043938E+000  0.1755137E+03  0.7546771E-02  0.1172217E+00
         21   -1    0    0  501  502  0.00000000000E+00  0.00000000000E+00  0.29589866836E+03  0.29589866836E+03  0.00000000000E+00 0.  1.
         21   -1    0    0  502  503 -0.00000000000E+00 -0.00000000000E+00 -0.30453584785E+03  0.30453584785E+03  0.00000000000E+00 0.  1.
          6    1    1    2  501    0  0.17411344093E+02  0.23935222060E+02  0.23923628428E+03  0.29671375006E+03  0.17300000000E+03 0.  1.
         -6    1    1    2    0  503 -0.17411344093E+02 -0.23935222060E+02 -0.24787346376E+03  0.30372076615E+03  0.17300000000E+03 0.  1.
<mgrwt>
<rscale>  2 0.17551367E+03</rscale>
<asrwt>0</asrwt>
<pdfrwt beam="1">  1       21 0.45522872E-01 0.17551367E+03</pdfrwt>
<pdfrwt beam="2">  1       21 0.46851669E-01 0.17551367E+03</pdfrwt>
<totfact> 0.20388826E+04</totfact>
</mgrwt>
</event>
<event>
 4    1  0.4043938E+000  0.2531158E+03  0.7546771E-02  0.1111351E+00
         21   -1    0    0  503  502  0.00000000000E+00  0.00000000000E+00  0.19597142067E+03  0.19597142067E+03  0.00000000000E+00 0. -1.
         21   -1    0    0  501  503 -0.00000000000E+00 -0.00000000000E+00 -0.33103613223E+03  0.33103613223E+03  0.00000000000E+00 0. -1.
          6    1    1    2  501    0 -0.93833450839E+02 -0.15916631653E+03 -0.38161463159E+02  0.25597642486E+03  0.17300000000E+03 0. -1.
         -6    1    1    2    0  502  0.93833450839E+02  0.15916631653E+03 -0.96903248403E+02  0.27103112804E+03  0.17300000000E+03 0. -1.
<mgrwt>
<rscale>  2 0.25311585E+03</rscale>
<asrwt>0</asrwt>
<pdfrwt beam="1">  1       21 0.30149450E-01 0.25311585E+03</pdfrwt>
<pdfrwt beam="2">  1       21 0.50928635E-01 0.25311585E+03</pdfrwt>
<totfact> 0.37606743E+04</totfact>
</mgrwt>
</event>
<event>
 4    1  0.4043938E+000  0.1858933E+03  0.7546771E-02  0.1162218E+00
         21   -1    0    0  503  502  0.00000000000E+00  0.00000000000E+00  0.30957203009E+03  0.30957203009E+03  0.00000000000E+00 0. -1.
         21   -1    0    0  501  503 -0.00000000000E+00 -0.00000000000E+00 -0.18257739423E+03  0.18257739423E+03  0.00000000000E+00 0. -1.
          6    1    1    2  501    0  0.44566933518E+02  0.51391717493E+02 -0.89902069965E+02  0.20649140993E+03  0.17300000000E+03 0.  1.
         -6    1    1    2    0  502 -0.44566933518E+02 -0.51391717493E+02  0.21689670582E+03  0.28565801439E+03  0.17300000000E+03 0.  1.
<mgrwt>
<rscale>  2 0.18589330E+03</rscale>
<asrwt>0</asrwt>
<pdfrwt beam="1">  1       21 0.47626466E-01 0.18589330E+03</pdfrwt>
<pdfrwt beam="2">  1       21 0.28088830E-01 0.18589330E+03</pdfrwt>
<totfact> 0.51207500E+04</totfact>
</mgrwt>
</event>
<event>
 4    1  0.4043938E+000  0.1856667E+03  0.7546771E-02  0.1162429E+00
         21   -1    0    0  501  502  0.00000000000E+00  0.00000000000E+00  0.86414071852E+02  0.86414071852E+02  0.00000000000E+00 0.  1.
         21   -1    0    0  502  503 -0.00000000000E+00 -0.00000000000E+00 -0.59207629264E+03  0.59207629264E+03  0.00000000000E+00 0.  1.
          6    1    1    2  501    0  0.66617995942E+02  0.10254691977E+02 -0.59063271273E+02  0.19483476616E+03  0.17300000000E+03 0.  1.
         -6    1    1    2    0  503 -0.66617995942E+02 -0.10254691977E+02 -0.44659894952E+03  0.48365559834E+03  0.17300000000E+03 0.  1.
<mgrwt>
<rscale>  2 0.18566668E+03</rscale>
<asrwt>0</asrwt>
<pdfrwt beam="1">  1       21 0.13294473E-01 0.18566668E+03</pdfrwt>
<pdfrwt beam="2">  1       21 0.91088659E-01 0.18566668E+03</pdfrwt>
<totfact> 0.50050570E+04</totfact>
</mgrwt>
</event>
<event>
 4    1  0.4043938E+000  0.2037393E+03  0.7546771E-02  0.1146622E+00
         21   -1    0    0  503  502  0.00000000000E+00  0.00000000000E+00  0.10580124645E+03  0.10580124645E+03  0.00000000000E+00 0. -1.
         21   -1    0    0  501  503 -0.00000000000E+00 -0.00000000000E+00 -0.72827865640E+03  0.72827865640E+03  0.00000000000E+00 0. -1.
          6    1    1    2  501    0  0.43996902112E+02 -0.98208851916E+02 -0.59448290769E+03  0.62842631512E+03  0.17300000000E+03 0. -1.
         -6    1    1    2    0  502 -0.43996902112E+02  0.98208851916E+02 -0.27994502257E+02  0.20565358773E+03  0.17300000000E+03 0. -1.
<mgrwt>
<rscale>  2 0.20373931E+03</rscale>
<asrwt>0</asrwt>
<pdfrwt beam="1">  1       21 0.16277114E-01 0.20373931E+03</pdfrwt>
<pdfrwt beam="2">  1       21 0.11204287E+00 0.20373931E+03</pdfrwt>
<totfact> 0.20959056E+04</totfact>
</mgrwt>
</event>
<event>
 4    1  0.4043938E+000  0.2450868E+03  0.7546771E-02  0.1116450E+00
         21   -1    0    0  503  502  0.00000000000E+00  0.00000000000E+00  0.39228153623E+03  0.39228153623E+03  0.00000000000E+00 0.  1.
         21   -1    0    0  501  503 -0.00000000000E+00 -0.00000000000E+00 -0.98026429776E+03  0.98026429776E+03  0.00000000000E+00 0. -1.
          6    1    1    2  501    0 -0.89476267397E+02  0.14877003388E+03 -0.92438961258E+03  0.95632822883E+03  0.17300000000E+03 0. -1.
         -6    1    1    2    0  502  0.89476267397E+02 -0.14877003388E+03  0.33640685105E+03  0.41621760516E+03  0.17300000000E+03 0.  1.
<mgrwt>
<rscale>  2 0.24508677E+03</rscale>
<asrwt>0</asrwt>
<pdfrwt beam="1">  1       21 0.60351006E-01 0.24508677E+03</pdfrwt>
<pdfrwt beam="2">  1       21 0.15080989E+00 0.24508677E+03</pdfrwt>
<totfact> 0.71620146E+02</totfact>
</mgrwt>
</event>
<event>
 4    1  0.4043938E+000  0.2069215E+03  0.7546771E-02  0.1144027E+00
         21   -1    0    0  503  502  0.00000000000E+00  0.00000000000E+00  0.40167822457E+03  0.40167822457E+03  0.00000000000E+00 0. -1.
         21   -1    0    0  501  503 -0.00000000000E+00 -0.00000000000E+00 -0.14868572917E+03  0.14868572917E+03  0.00000000000E+00 0. -1.
          6    1    1    2  501    0  0.24873373715E+01  0.11349595671E+03 -0.19917998674E+02  0.20787795869E+03  0.17300000000E+03 0. -1.
         -6    1    1    2    0  502 -0.24873373715E+01 -0.11349595671E+03  0.27291049407E+03  0.34248599506E+03  0.17300000000E+03 0. -1.
<mgrwt>
<rscale>  2 0.20692153E+03</rscale>
<asrwt>0</asrwt>
<pdfrwt beam="1">  1       21 0.61796649E-01 0.20692153E+03</pdfrwt>
<pdfrwt beam="2">  1       21 0.22874728E-01 0.20692153E+03</pdfrwt>
<totfact> 0.43294122E+04</totfact>
</mgrwt>
</event>
<event>
 4    1  0.4043938E+000  0.1960617E+03  0.7546771E-02  0.1153105E+00
         21   -1    0    0  503  502  0.00000000000E+00  0.00000000000E+00  0.77449069738E+02  0.77449069738E+02  0.00000000000E+00 0.  1.
         21   -1    0    0  501  503 -0.00000000000E+00 -0.00000000000E+00 -0.13452305791E+04  0.13452305791E+04  0.00000000000E+00 0. -1.
          6    1    1    2  501    0  0.41039090938E+02 -0.82625495827E+02 -0.11989676626E+04  0.12148924379E+04  0.17300000000E+03 0. -1.
         -6    1    1    2    0  502 -0.41039090938E+02  0.82625495827E+02 -0.68813846744E+02  0.20778721099E+03  0.17300000000E+03 0.  1.
<mgrwt>
<rscale>  2 0.19606167E+03</rscale>
<asrwt>0</asrwt>
<pdfrwt beam="1">  1       21 0.11915241E-01 0.19606167E+03</pdfrwt>
<pdfrwt beam="2">  1       21 0.20695855E+00 0.19606167E+03</pdfrwt>
<totfact> 0.71845931E+03</totfact>
</mgrwt>
</event>
<event>
 4    1  0.4043938E+000  0.1929623E+03  0.7546771E-02  0.1155816E+00
         21   -1    0    0  501  502  0.00000000000E+00  0.00000000000E+00  0.58937104817E+02  0.58937104817E+02  0.00000000000E+00 0.  1.
         21   -1    0    0  502  503 -0.00000000000E+00 -0.00000000000E+00 -0.66309094282E+03  0.66309094282E+03  0.00000000000E+00 0.  1.
          6    1    1    2  501    0  0.18039779911E+02  0.83546456921E+02 -0.22361039513E+03  0.29535750022E+03  0.17300000000E+03 0.  1.
         -6    1    1    2    0  503 -0.18039779911E+02 -0.83546456921E+02 -0.38054344287E+03  0.42667054742E+03  0.17300000000E+03 0.  1.
<mgrwt>
<rscale>  2 0.19296229E+03</rscale>
<asrwt>0</asrwt>
<pdfrwt beam="1">  1       21 0.90672473E-02 0.19296229E+03</pdfrwt>
<pdfrwt beam="2">  1       21 0.10201399E+00 0.19296229E+03</pdfrwt>
<totfact> 0.75474466E+04</totfact>
</mgrwt>
</event>
<event>
 4    1  0.4043938E+000  0.1838489E+03  0.7546771E-02  0.1164129E+00
         21   -1    0    0  503  502  0.00000000000E+00  0.00000000000E+00  0.31332675132E+03  0.31332675132E+03  0.00000000000E+00 0. -1.
         21   -1    0    0  501  503 -0.00000000000E+00 -0.00000000000E+00 -0.11327348561E+03  0.11327348561E+03  0.00000000000E+00 0. -1.
          6    1    1    2  501    0 -0.59745481358E+02 -0.17375412127E+02  0.14658780276E+03  0.23513487918E+03  0.17300000000E+03 0. -1.
         -6    1    1    2    0  502  0.59745481358E+02  0.17375412127E+02  0.53465462945E+02  0.19146535775E+03  0.17300000000E+03 0. -1.
<mgrwt>
<rscale>  2 0.18384893E+03</rscale>
<asrwt>0</asrwt>
<pdfrwt beam="1">  1       21 0.48204115E-01 0.18384893E+03</pdfrwt>
<pdfrwt beam="2">  1       21 0.17426690E-01 0.18384893E+03</pdfrwt>
<totfact> 0.12292208E+05</totfact>
</mgrwt>
</event>
<event>
 4    1  0.4043938E+000  0.1743783E+03  0.7546771E-02  0.1173357E+00
         21   -1    0    0  501  502  0.00000000000E+00  0.00000000000E+00  0.48157636884E+03  0.48157636884E+03  0.00000000000E+00 0.  1.
         21   -1    0    0  502  503 -0.00000000000E+00 -0.00000000000E+00 -0.63248384438E+02  0.63248384438E+02  0.00000000000E+00 0.  1.
          6    1    1    2  501    0  0.21499296367E+02  0.40687481470E+01  0.19800038672E+03  0.26384072392E+03  0.17300000000E+03 0.  1.
         -6    1    1    2    0  503 -0.21499296367E+02 -0.40687481470E+01  0.22032759768E+03  0.28098402936E+03  0.17300000000E+03 0.  1.
<mgrwt>
<rscale>  2 0.17437825E+03</rscale>
<asrwt>0</asrwt>
<pdfrwt beam="1">  1       21 0.74088670E-01 0.17437825E+03</pdfrwt>
<pdfrwt beam="2">  1       21 0.97305210E-02 0.17437825E+03</pdfrwt>
<totfact> 0.14002438E+05</totfact>
</mgrwt>
</event>
<event>
 4    1  0.4043938E+000  0.2031722E+03  0.7546771E-02  0.1147090E+00
         21   -1    0    0  501  502  0.00000000000E+00  0.00000000000E+00  0.24941728973E+04  0.24941728973E+04  0.00000000000E+00 0.  1.
         21   -1    0    0  502  503 -0.00000000000E+00 -0.00000000000E+00 -0.24423888948E+02  0.24423888948E+02  0.00000000000E+00 0.  1.
          6    1    1    2  501    0 -0.23120774190E+02  0.10399690767E+03  0.19498840526E+04  0.19604404468E+04  0.17300000000E+03 0.  1.
         -6    1    1    2    0  503  0.23120774190E+02 -0.10399690767E+03  0.51986495572E+03  0.55815633938E+03  0.17300000000E+03 0.  1.
<mgrwt>
<rscale>  2 0.20317216E+03</rscale>
<asrwt>0</asrwt>
<pdfrwt beam="1">  1       21 0.38371871E+00 0.20317216E+03</pdfrwt>
<pdfrwt beam="2">  1       21 0.37575233E-02 0.20317216E+03</pdfrwt>
<totfact> 0.47106835E+03</totfact>
</mgrwt>
</event>
<event>
 4    1  0.4043938E+000  0.2308721E+03  0.7546771E-02  0.1126027E+00
         21   -1    0    0  503  502  0.00000000000E+00  0.00000000000E+00  0.11291764191E+04  0.11291764191E+04  0.00000000000E+00 0.  1.
         21   -1    0    0  501  503 -0.00000000000E+00 -0.00000000000E+00 -0.47216805574E+02  0.47216805574E+02  0.00000000000E+00 0.  1.
          6    1    1    2  501    0 -0.56413904949E+02 -0.14209293551E+03  0.53138987107E+03  0.57937649769E+03  0.17300000000E+03 0.  1.
         -6    1    1    2    0  502  0.56413904949E+02  0.14209293551E+03  0.55056974242E+03  0.59701672695E+03  0.17300000000E+03 0.  1.
<mgrwt>
<rscale>  2 0.23087211E+03</rscale>
<asrwt>0</asrwt>
<pdfrwt beam="1">  1       21 0.17371943E+00 0.23087211E+03</pdfrwt>
<pdfrwt beam="2">  1       21 0.72641248E-02 0.23087211E+03</pdfrwt>
<totfact> 0.27830509E+04</totfact>
</mgrwt>
</event>
<event>
 4    1  0.4043938E+000  0.1822003E+03  0.7546771E-02  0.1165690E+00
         21   -1    0    0  501  502  0.00000000000E+00  0.00000000000E+00  0.13690822589E+03  0.13690822589E+03  0.00000000000E+00 0. -1.
         21   -1    0    0  502  503 -0.00000000000E+00 -0.00000000000E+00 -0.24286867871E+03  0.24286867871E+03  0.00000000000E+00 0. -1.
          6    1    1    2  501    0 -0.43300206356E+02 -0.37323442806E+02 -0.45343999225E+02  0.18775789070E+03  0.17300000000E+03 0. -1.
         -6    1    1    2    0  503  0.43300206356E+02  0.37323442806E+02 -0.60616453593E+02  0.19201901390E+03  0.17300000000E+03 0. -1.
<mgrwt>
<rscale>  2 0.18220029E+03</rscale>
<asrwt>0</asrwt>
<pdfrwt beam="1">  1       21 0.21062804E-01 0.18220029E+03</pdfrwt>
<pdfrwt beam="2">  1       21 0.37364412E-01 0.18220029E+03</pdfrwt>
<totfact> 0.14521972E+05</totfact>
</mgrwt>
</event>
<event>
 4    1  0.4043938E+000  0.2177626E+03  0.7546771E-02  0.1135562E+00
         21   -1    0    0  503  502  0.00000000000E+00  0.00000000000E+00  0.15203904819E+03  0.15203904819E+03  0.00000000000E+00 0. -1.
         21   -1    0    0  501  503 -0.00000000000E+00 -0.00000000000E+00 -0.47434641431E+03  0.47434641431E+03  0.00000000000E+00 0. -1.
          6    1    1    2  501    0  0.13081706836E+03 -0.19453448352E+02 -0.34443693042E+03  0.40750133872E+03  0.17300000000E+03 0. -1.
         -6    1    1    2    0  502 -0.13081706836E+03  0.19453448352E+02  0.22129564296E+02  0.21888412378E+03  0.17300000000E+03 0. -1.
<mgrwt>
<rscale>  2 0.21776258E+03</rscale>
<asrwt>0</asrwt>
<pdfrwt beam="1">  1       21 0.23390623E-01 0.21776258E+03</pdfrwt>
<pdfrwt beam="2">  1       21 0.72976370E-01 0.21776258E+03</pdfrwt>
<totfact> 0.28651955E+04</totfact>
</mgrwt>
</event>
<event>
 4    1  0.4043938E+000  0.1816210E+03  0.7546771E-02  0.1166243E+00
         21   -1    0    0  501  502  0.00000000000E+00  0.00000000000E+00  0.22183470567E+03  0.22183470567E+03  0.00000000000E+00 0.  1.
         21   -1    0    0  502  503 -0.00000000000E+00 -0.00000000000E+00 -0.17738566717E+03  0.17738566717E+03  0.00000000000E+00 0.  1.
          6    1    1    2  501    0 -0.44729256211E+02  0.32503425689E+02 -0.58050018023E+02  0.19067245117E+03  0.17300000000E+03 0.  1.
         -6    1    1    2    0  503  0.44729256211E+02 -0.32503425689E+02  0.10249905652E+03  0.20854792167E+03  0.17300000000E+03 0.  1.
<mgrwt>
<rscale>  2 0.18162098E+03</rscale>
<asrwt>0</asrwt>
<pdfrwt beam="1">  1       21 0.34128416E-01 0.18162098E+03</pdfrwt>
<pdfrwt beam="2">  1       21 0.27290103E-01 0.18162098E+03</pdfrwt>
<totfact> 0.10634337E+05</totfact>
</mgrwt>
</event>
<event>
 4    1  0.4043938E+000  0.1886823E+03  0.7546771E-02  0.1159655E+00
         21   -1    0    0  501  502  0.00000000000E+00  0.00000000000E+00  0.28593284440E+03  0.28593284440E+03  0.00000000000E+00 0.  1.
         21   -1    0    0  502  503 -0.00000000000E+00 -0.00000000000E+00 -0.12491620949E+03  0.12491620949E+03  0.00000000000E+00 0. -1.
          6    1    1    2  501    0 -0.59564660031E+02  0.46087502973E+02  0.68769200111E+02  0.20082382712E+03  0.17300000000E+03 0.  1.
         -6    1    1    2    0  503  0.59564660031E+02 -0.46087502973E+02  0.92247434797E+02  0.21002522677E+03  0.17300000000E+03 0.  1.
<mgrwt>
<rscale>  2 0.18868229E+03</rscale>
<asrwt>0</asrwt>
<pdfrwt beam="1">  1       21 0.43989668E-01 0.18868229E+03</pdfrwt>
<pdfrwt beam="2">  1       21 0.19217878E-01 0.18868229E+03</pdfrwt>
<totfact> 0.12361644E+05</totfact>
</mgrwt>
</event>
<event>
 4    1  0.4043938E+000  0.1889735E+03  0.7546771E-02  0.1159390E+00
         21   -1    0    0  501  502  0.00000000000E+00  0.00000000000E+00  0.37237375285E+03  0.37237375285E+03  0.00000000000E+00 0. -1.
         21   -1    0    0  502  503 -0.00000000000E+00 -0.00000000000E+00 -0.12650541125E+03  0.12650541125E+03  0.00000000000E+00 0.  1.
          6    1    1    2  501    0  0.48251074861E+02 -0.58769049759E+02  0.24562263919E+03  0.30990554742E+03  0.17300000000E+03 0. -1.
         -6    1    1    2    0  503 -0.48251074861E+02  0.58769049759E+02  0.24570240805E+00  0.18897361669E+03  0.17300000000E+03 0.  1.
<mgrwt>
<rscale>  2 0.18897346E+03</rscale>
<asrwt>0</asrwt>
<pdfrwt beam="1">  1       21 0.57288269E-01 0.18897346E+03</pdfrwt>
<pdfrwt beam="2">  1       21 0.19462371E-01 0.18897346E+03</pdfrwt>
<totfact> 0.69586758E+04</totfact>
</mgrwt>
</event>
<event>
 4    1  0.4043938E+000  0.1928168E+03  0.7546771E-02  0.1155945E+00
         21   -1    0    0  503  502  0.00000000000E+00  0.00000000000E+00  0.95976641000E+02  0.95976641000E+02  0.00000000000E+00 0.  1.
         21   -1    0    0  501  503 -0.00000000000E+00 -0.00000000000E+00 -0.39786251670E+03  0.39786251670E+03  0.00000000000E+00 0.  1.
          6    1    1    2  501    0 -0.12707510663E+02  0.84189332827E+02 -0.19104442781E+03  0.27143378196E+03  0.17300000000E+03 0.  1.
         -6    1    1    2    0  502  0.12707510663E+02 -0.84189332827E+02 -0.11084144788E+03  0.22240537574E+03  0.17300000000E+03 0.  1.
<mgrwt>
<rscale>  2 0.19281682E+03</rscale>
<asrwt>0</asrwt>
<pdfrwt beam="1">  1       21 0.14765637E-01 0.19281682E+03</pdfrwt>
<pdfrwt beam="2">  1       21 0.61209618E-01 0.19281682E+03</pdfrwt>
<totfact> 0.10020803E+05</totfact>
</mgrwt>
</event>
<event>
 4    1  0.4043938E+000  0.6445510E+03  0.7546771E-02  0.9817058E-01
         21   -1    0    0  503  502  0.00000000000E+00  0.00000000000E+00  0.15270589532E+04  0.15270589532E+04  0.00000000000E+00 0. -1.
         21   -1    0    0  501  503 -0.00000000000E+00 -0.00000000000E+00 -0.32264191745E+03  0.32264191745E+03  0.00000000000E+00 0.  1.
          6    1    1    2  501    0 -0.53497897276E+03 -0.31514195918E+03  0.23600308176E+03  0.68639887116E+03  0.17300000000E+03 0.  1.
         -6    1    1    2    0  502  0.53497897276E+03  0.31514195918E+03  0.96841395399E+03  0.11633019995E+04  0.17300000000E+03 0. -1.
<mgrwt>
<rscale>  2 0.64455097E+03</rscale>
<asrwt>0</asrwt>
<pdfrwt beam="1">  1       21 0.23493214E+00 0.64455097E+03</pdfrwt>
<pdfrwt beam="2">  1       21 0.49637219E-01 0.64455097E+03</pdfrwt>
<totfact> 0.23273389E+02</totfact>
</mgrwt>
</event>
<event>
 4    1  0.4043938E+000  0.2764548E+03  0.7546771E-02  0.1097641E+00
         21   -1    0    0  501  502  0.00000000000E+00  0.00000000000E+00  0.17669464997E+03  0.17669464997E+03  0.00000000000E+00 0.  1.
         21   -1    0    0  502  503 -0.00000000000E+00 -0.00000000000E+00 -0.77380153556E+03  0.77380153556E+03  0.00000000000E+00 0. -1.
          6    1    1    2  501    0  0.15649228564E+03  0.14835236528E+03  0.17056109075E+02  0.27698045167E+03  0.17300000000E+03 0.  1.
         -6    1    1    2    0  503 -0.15649228564E+03 -0.14835236528E+03 -0.61416299466E+03  0.67351573386E+03  0.17300000000E+03 0. -1.
<mgrwt>
<rscale>  2 0.27645481E+03</rscale>
<asrwt>0</asrwt>
<pdfrwt beam="1">  1       21 0.27183793E-01 0.27645481E+03</pdfrwt>
<pdfrwt beam="2">  1       21 0.11904639E+00 0.27645481E+03</pdfrwt>
<totfact> 0.65749527E+03</totfact>
</mgrwt>
</event>
<event>
 4    1  0.4043938E+000  0.1733271E+03  0.7546771E-02  0.1174422E+00
         21   -1    0    0  501  502  0.00000000000E+00  0.00000000000E+00  0.61366620359E+03  0.61366620359E+03  0.00000000000E+00 0.  1.
         21   -1    0    0  502  503 -0.00000000000E+00 -0.00000000000E+00 -0.82825574087E+02  0.82825574087E+02  0.00000000000E+00 0.  1.
          6    1    1    2  501    0  0.15478216324E+01  0.10530228949E+02  0.48811631244E+03  0.51797665579E+03  0.17300000000E+03 0.  1.
         -6    1    1    2    0  503 -0.15478216324E+01 -0.10530228949E+02  0.42724317063E+02  0.17851512189E+03  0.17300000000E+03 0.  1.
<mgrwt>
<rscale>  2 0.17332709E+03</rscale>
<asrwt>0</asrwt>
<pdfrwt beam="1">  1       21 0.94410182E-01 0.17332709E+03</pdfrwt>
<pdfrwt beam="2">  1       21 0.12742396E-01 0.17332709E+03</pdfrwt>
<totfact> 0.50012074E+04</totfact>
</mgrwt>
</event>
<event>
 4    1  0.4043938E+000  0.2040459E+03  0.7546771E-02  0.1146370E+00
         21   -1    0    0  501  502  0.00000000000E+00  0.00000000000E+00  0.16166084968E+03  0.16166084968E+03  0.00000000000E+00 0.  1.
         21   -1    0    0  502  503 -0.00000000000E+00 -0.00000000000E+00 -0.25850040615E+03  0.25850040615E+03  0.00000000000E+00 0. -1.
          6    1    1    2  501    0 -0.35714055807E+02  0.10212845388E+03 -0.35638607211E+02  0.20713479958E+03  0.17300000000E+03 0.  1.
         -6    1    1    2    0  503  0.35714055807E+02 -0.10212845388E+03 -0.61200949258E+02  0.21302645625E+03  0.17300000000E+03 0. -1.
<mgrwt>
<rscale>  2 0.20404586E+03</rscale>
<asrwt>0</asrwt>
<pdfrwt beam="1">  1       21 0.24870900E-01 0.20404586E+03</pdfrwt>
<pdfrwt beam="2">  1       21 0.39769293E-01 0.20404586E+03</pdfrwt>
<totfact> 0.92789294E+04</totfact>
</mgrwt>
</event>
<event>
 4    1  0.4043938E+000  0.2037986E+03  0.7546771E-02  0.1146573E+00
         21   -1    0    0  501  502  0.00000000000E+00  0.00000000000E+00  0.28182426024E+04  0.28182426024E+04  0.00000000000E+00 0.  1.
         21   -1    0    0  502  503 -0.00000000000E+00 -0.00000000000E+00 -0.19917837310E+02  0.19917837310E+02  0.00000000000E+00 0.  1.
          6    1    1    2  501    0 -0.58185457528E+02  0.90660386764E+02  0.21228728157E+04  0.21326328434E+04  0.17300000000E+03 0.  1.
         -6    1    1    2    0  503  0.58185457528E+02 -0.90660386764E+02  0.67545194946E+03  0.70552759636E+03  0.17300000000E+03 0.  1.
<mgrwt>
<rscale>  2 0.20379856E+03</rscale>
<asrwt>0</asrwt>
<pdfrwt beam="1">  1       21 0.43357547E+00 0.20379856E+03</pdfrwt>
<pdfrwt beam="2">  1       21 0.30642849E-02 0.20379856E+03</pdfrwt>
<totfact> 0.32067134E+03</totfact>
</mgrwt>
</event>
<event>
 4    1  0.4043938E+000  0.2014635E+03  0.7546771E-02  0.1148510E+00
         21   -1    0    0  501  502  0.00000000000E+00  0.00000000000E+00  0.29374568334E+03  0.29374568334E+03  0.00000000000E+00 0.  1.
         21   -1    0    0  502  503 -0.00000000000E+00 -0.00000000000E+00 -0.20401173942E+03  0.20401173942E+03  0.00000000000E+00 0.  1.
          6    1    1    2  501    0 -0.28369658260E+02  0.99265800417E+02  0.18625186521E+03  0.27436707881E+03  0.17300000000E+03 0.  1.
         -6    1    1    2    0  503  0.28369658260E+02 -0.99265800417E+02 -0.96517921285E+02  0.22339034395E+03  0.17300000000E+03 0.  1.
<mgrwt>
<rscale>  2 0.20146349E+03</rscale>
<asrwt>0</asrwt>
<pdfrwt beam="1">  1       21 0.45191644E-01 0.20146349E+03</pdfrwt>
<pdfrwt beam="2">  1       21 0.31386421E-01 0.20146349E+03</pdfrwt>
<totfact> 0.45626202E+04</totfact>
</mgrwt>
</event>
<event>
 4    1  0.4043938E+000  0.2182929E+03  0.7546771E-02  0.1135162E+00
         21   -1    0    0  503  502  0.00000000000E+00  0.00000000000E+00  0.54589761107E+02  0.54589761107E+02  0.00000000000E+00 0.  1.
         21   -1    0    0  501  503 -0.00000000000E+00 -0.00000000000E+00 -0.92373699708E+03  0.92373699708E+03  0.00000000000E+00 0. -1.
          6    1    1    2  501    0 -0.39619650736E+02 -0.12709467397E+03 -0.54932045607E+03  0.59110467460E+03  0.17300000000E+03 0. -1.
         -6    1    1    2    0  502  0.39619650736E+02  0.12709467397E+03 -0.31982677990E+03  0.38722208359E+03  0.17300000000E+03 0.  1.
<mgrwt>
<rscale>  2 0.21829286E+03</rscale>
<asrwt>0</asrwt>
<pdfrwt beam="1">  1       21 0.83984256E-02 0.21829286E+03</pdfrwt>
<pdfrwt beam="2">  1       21 0.14211337E+00 0.21829286E+03</pdfrwt>
<totfact> 0.37394799E+04</totfact>
</mgrwt>
</event>
<event>
 4    1  0.4043938E+000  0.2143312E+03  0.7546771E-02  0.1138181E+00
         21   -1    0    0  503  502  0.00000000000E+00  0.00000000000E+00  0.47268498795E+02  0.47268498795E+02  0.00000000000E+00 0. -1.
         21   -1    0    0  501  503 -0.00000000000E+00 -0.00000000000E+00 -0.10216788810E+04  0.10216788810E+04  0.00000000000E+00 0.  1.
          6    1    1    2  501    0 -0.11483732726E+03 -0.53115498045E+02 -0.60524045688E+03  0.64206999503E+03  0.17300000000E+03 0.  1.
         -6    1    1    2    0  502  0.11483732726E+03  0.53115498045E+02 -0.36916992532E+03  0.42687738477E+03  0.17300000000E+03 0. -1.
<mgrwt>
<rscale>  2 0.21433121E+03</rscale>
<asrwt>0</asrwt>
<pdfrwt beam="1">  1       21 0.72720769E-02 0.21433121E+03</pdfrwt>
<pdfrwt beam="2">  1       21 0.15718136E+00 0.21433121E+03</pdfrwt>
<totfact> 0.36904239E+04</totfact>
</mgrwt>
</event>
<event>
 4    1  0.4043938E+000  0.1826561E+03  0.7546771E-02  0.1165257E+00
         21   -1    0    0  503  502  0.00000000000E+00  0.00000000000E+00  0.51867421556E+03  0.51867421556E+03  0.00000000000E+00 0.  1.
         21   -1    0    0  501  503 -0.00000000000E+00 -0.00000000000E+00 -0.94168470298E+02  0.94168470298E+02  0.00000000000E+00 0.  1.
          6    1    1    2  501    0 -0.20425675610E+02 -0.54927549810E+02  0.39749504878E+02  0.18693118277E+03  0.17300000000E+03 0.  1.
         -6    1    1    2    0  502  0.20425675610E+02  0.54927549810E+02  0.38475624038E+03  0.42591150309E+03  0.17300000000E+03 0.  1.
<mgrwt>
<rscale>  2 0.18265608E+03</rscale>
<asrwt>0</asrwt>
<pdfrwt beam="1">  1       21 0.79796031E-01 0.18265608E+03</pdfrwt>
<pdfrwt beam="2">  1       21 0.14487457E-01 0.18265608E+03</pdfrwt>
<totfact> 0.58074120E+04</totfact>
</mgrwt>
</event>
<event>
 4    1  0.4043938E+000  0.2992539E+03  0.7546771E-02  0.1085614E+00
         21   -1    0    0  501  502  0.00000000000E+00  0.00000000000E+00  0.36436467004E+03  0.36436467004E+03  0.00000000000E+00 0. -1.
         21   -1    0    0  502  503 -0.00000000000E+00 -0.00000000000E+00 -0.40338202807E+03  0.40338202807E+03  0.00000000000E+00 0.  1.
          6    1    1    2  501    0  0.21699536753E+03 -0.11196828292E+03  0.22043708974E+03  0.37167915794E+03  0.17300000000E+03 0. -1.
         -6    1    1    2    0  503 -0.21699536753E+03  0.11196828292E+03 -0.25945444778E+03  0.39606754018E+03  0.17300000000E+03 0.  1.
<mgrwt>
<rscale>  2 0.29925388E+03</rscale>
<asrwt>0</asrwt>
<pdfrwt beam="1">  1       21 0.56056103E-01 0.29925388E+03</pdfrwt>
<pdfrwt beam="2">  1       21 0.62058774E-01 0.29925388E+03</pdfrwt>
<totfact> 0.67701879E+03</totfact>
</mgrwt>
</event>
<event>
 4    1  0.4043938E+000  0.1751198E+03  0.7546771E-02  0.1172611E+00
         21   -1    0    0  501  502  0.00000000000E+00  0.00000000000E+00  0.27175371175E+02  0.27175371175E+02  0.00000000000E+00 0.  1.
         21   -1    0    0  502  503 -0.00000000000E+00 -0.00000000000E+00 -0.12315041157E+04  0.12315041157E+04  0.00000000000E+00 0.  1.
          6    1    1    2  501    0  0.10413184016E+02 -0.25090165244E+02 -0.42013986977E+03  0.45517519810E+03  0.17300000000E+03 0. -1.
         -6    1    1    2    0  503 -0.10413184016E+02  0.25090165244E+02 -0.78418887474E+03  0.80350428876E+03  0.17300000000E+03 0. -1.
<mgrwt>
<rscale>  2 0.17511982E+03</rscale>
<asrwt>0</asrwt>
<pdfrwt beam="1">  1       21 0.41808256E-02 0.17511982E+03</pdfrwt>
<pdfrwt beam="2">  1       21 0.18946220E+00 0.17511982E+03</pdfrwt>
<totfact> 0.57841942E+04</totfact>
</mgrwt>
</event>
<event>
 4    1  0.4043938E+000  0.2015451E+03  0.7546771E-02  0.1148442E+00
         21   -1    0    0  501  502  0.00000000000E+00  0.00000000000E+00  0.38531189234E+02  0.38531189234E+02  0.00000000000E+00 0.  1.
         21   -1    0    0  502  503 -0.00000000000E+00 -0.00000000000E+00 -0.13351392135E+04  0.13351392135E+04  0.00000000000E+00 0.  1.
          6    1    1    2  501    0  0.77569290726E+02  0.68369864759E+02 -0.96335317306E+03  0.98421022618E+03  0.17300000000E+03 0.  1.
         -6    1    1    2    0  503 -0.77569290726E+02 -0.68369864759E+02 -0.33325485122E+03  0.38946017657E+03  0.17300000000E+03 0.  1.
<mgrwt>
<rscale>  2 0.20154511E+03</rscale>
<asrwt>0</asrwt>
<pdfrwt beam="1">  1       21 0.59278756E-02 0.20154511E+03</pdfrwt>
<pdfrwt beam="2">  1       21 0.20540602E+00 0.20154511E+03</pdfrwt>
<totfact> 0.24802374E+04</totfact>
</mgrwt>
</event>
<event>
 4    1  0.4043938E+000  0.2186304E+03  0.7546771E-02  0.1134908E+00
         21   -1    0    0  501  502  0.00000000000E+00  0.00000000000E+00  0.43701231250E+03  0.43701231250E+03  0.00000000000E+00 0. -1.
         21   -1    0    0  502  503 -0.00000000000E+00 -0.00000000000E+00 -0.13914400154E+03  0.13914400154E+03  0.00000000000E+00 0.  1.
          6    1    1    2  501    0 -0.12708126111E+03 -0.41480146080E+02  0.28217674493E+03  0.35696353430E+03  0.17300000000E+03 0. -1.
         -6    1    1    2    0  503  0.12708126111E+03  0.41480146080E+02  0.15691566039E+02  0.21919277974E+03  0.17300000000E+03 0.  1.
<mgrwt>
<rscale>  2 0.21863039E+03</rscale>
<asrwt>0</asrwt>
<pdfrwt beam="1">  1       21 0.67232663E-01 0.21863039E+03</pdfrwt>
<pdfrwt beam="2">  1       21 0.21406770E-01 0.21863039E+03</pdfrwt>
<totfact> 0.40608745E+04</totfact>
</mgrwt>
</event>
<event>
 4    1  0.4043938E+000  0.1749588E+03  0.7546771E-02  0.1172773E+00
         21   -1    0    0  503  502  0.00000000000E+00  0.00000000000E+00  0.41422873034E+03  0.41422873034E+03  0.00000000000E+00 0. -1.
         21   -1    0    0  501  503 -0.00000000000E+00 -0.00000000000E+00 -0.11759872213E+03  0.11759872213E+03  0.00000000000E+00 0. -1.
          6    1    1    2  501    0 -0.23762637364E+02 -0.10812138847E+02 -0.13785764482E+02  0.17550103300E+03  0.17300000000E+03 0. -1.
         -6    1    1    2    0  502  0.23762637364E+02  0.10812138847E+02  0.31041577269E+03  0.35632641948E+03  0.17300000000E+03 0. -1.
<mgrwt>
<rscale>  2 0.17495875E+03</rscale>
<asrwt>0</asrwt>
<pdfrwt beam="1">  1       21 0.63727497E-01 0.17495875E+03</pdfrwt>
<pdfrwt beam="2">  1       21 0.18092111E-01 0.17495875E+03</pdfrwt>
<totfact> 0.63780356E+04</totfact>
</mgrwt>
</event>
<event>
 4    1  0.4043938E+000  0.2709916E+03  0.7546771E-02  0.1100713E+00
         21   -1    0    0  501  502  0.00000000000E+00  0.00000000000E+00  0.51633097203E+03  0.51633097203E+03  0.00000000000E+00 0. -1.
         21   -1    0    0  502  503 -0.00000000000E+00 -0.00000000000E+00 -0.79267699757E+03  0.79267699757E+03  0.00000000000E+00 0. -1.
          6    1    1    2  501    0  0.14972756775E+03  0.14522080970E+03  0.45471269486E+03  0.52933927021E+03  0.17300000000E+03 0. -1.
         -6    1    1    2    0  503 -0.14972756775E+03 -0.14522080970E+03 -0.73105872041E+03  0.77966869939E+03  0.17300000000E+03 0. -1.
<mgrwt>
<rscale>  2 0.27099156E+03</rscale>
<asrwt>0</asrwt>
<pdfrwt beam="1">  1       21 0.79435535E-01 0.27099156E+03</pdfrwt>
<pdfrwt beam="2">  1       21 0.12195031E+00 0.27099156E+03</pdfrwt>
<totfact> 0.65999601E+02</totfact>
</mgrwt>
</event>
<event>
 4    1  0.4043938E+000  0.1868644E+03  0.7546771E-02  0.1161320E+00
         21   -1    0    0  501  502  0.00000000000E+00  0.00000000000E+00  0.35541481826E+02  0.35541481826E+02  0.00000000000E+00 0. -1.
         21   -1    0    0  502  503 -0.00000000000E+00 -0.00000000000E+00 -0.15568479446E+04  0.15568479446E+04  0.00000000000E+00 0. -1.
          6    1    1    2  501    0  0.47741830999E+02  0.52057866780E+02 -0.27704185115E+03  0.33417135007E+03  0.17300000000E+03 0. -1.
         -6    1    1    2    0  503 -0.47741830999E+02 -0.52057866780E+02 -0.12442646117E+04  0.12582180764E+04  0.17300000000E+03 0. -1.
<mgrwt>
<rscale>  2 0.18686440E+03</rscale>
<asrwt>0</asrwt>
<pdfrwt beam="1">  1       21 0.54679197E-02 0.18686440E+03</pdfrwt>
<pdfrwt beam="2">  1       21 0.23951510E+00 0.18686440E+03</pdfrwt>
<totfact> 0.17810333E+04</totfact>
</mgrwt>
</event>
<event>
 4    1  0.4043938E+000  0.2453012E+03  0.7546771E-02  0.1116311E+00
         21   -1    0    0  501  502  0.00000000000E+00  0.00000000000E+00  0.26117158525E+03  0.26117158525E+03  0.00000000000E+00 0. -1.
         21   -1    0    0  502  503 -0.00000000000E+00 -0.00000000000E+00 -0.35082020315E+03  0.35082020315E+03  0.00000000000E+00 0. -1.
          6    1    1    2  501    0  0.15116491659E+03  0.85981699700E+02  0.13445559032E+03  0.27973378498E+03  0.17300000000E+03 0. -1.
         -6    1    1    2    0  503 -0.15116491659E+03 -0.85981699700E+02 -0.22410420822E+03  0.33225800341E+03  0.17300000000E+03 0. -1.
<mgrwt>
<rscale>  2 0.24530121E+03</rscale>
<asrwt>0</asrwt>
<pdfrwt beam="1">  1       21 0.40180244E-01 0.24530121E+03</pdfrwt>
<pdfrwt beam="2">  1       21 0.53972339E-01 0.24530121E+03</pdfrwt>
<totfact> 0.18814718E+04</totfact>
</mgrwt>
</event>
<event>
 4    1  0.4043938E+000  0.2032396E+03  0.7546771E-02  0.1147034E+00
         21   -1    0    0  501  502  0.00000000000E+00  0.00000000000E+00  0.13455539740E+04  0.13455539740E+04  0.00000000000E+00 0.  1.
         21   -1    0    0  502  503 -0.00000000000E+00 -0.00000000000E+00 -0.44169295646E+02  0.44169295646E+02  0.00000000000E+00 0.  1.
          6    1    1    2  501    0 -0.10360961249E+03 -0.25344959399E+02  0.10344320609E+04  0.10542087114E+04  0.17300000000E+03 0.  1.
         -6    1    1    2    0  503  0.10360961249E+03  0.25344959399E+02  0.26695261746E+03  0.33551455815E+03  0.17300000000E+03 0.  1.
<mgrwt>
<rscale>  2 0.20323956E+03</rscale>
<asrwt>0</asrwt>
<pdfrwt beam="1">  1       21 0.20700827E+00 0.20323956E+03</pdfrwt>
<pdfrwt beam="2">  1       21 0.67952773E-02 0.20323956E+03</pdfrwt>
<totfact> 0.19134883E+04</totfact>
</mgrwt>
</event>
<event>
 4    1  0.4043938E+000  0.2508092E+03  0.7546771E-02  0.1112795E+00
         21   -1    0    0  503  502  0.00000000000E+00  0.00000000000E+00  0.23851055817E+03  0.23851055817E+03  0.00000000000E+00 0. -1.
         21   -1    0    0  501  503 -0.00000000000E+00 -0.00000000000E+00 -0.27026874026E+03  0.27026874026E+03  0.00000000000E+00 0. -1.
          6    1    1    2  501    0 -0.39149246871E+01  0.18155138716E+03 -0.55411412458E+02  0.25685727057E+03  0.17300000000E+03 0. -1.
         -6    1    1    2    0  502  0.39149246871E+01 -0.18155138716E+03  0.23653230365E+02  0.25192202786E+03  0.17300000000E+03 0. -1.
<mgrwt>
<rscale>  2 0.25080916E+03</rscale>
<asrwt>0</asrwt>
<pdfrwt beam="1">  1       21 0.36693932E-01 0.25080916E+03</pdfrwt>
<pdfrwt beam="2">  1       21 0.41579806E-01 0.25080916E+03</pdfrwt>
<totfact> 0.38811812E+04</totfact>
</mgrwt>
</event>
<event>
 4    1  0.4043938E+000  0.2050402E+03  0.7546771E-02  0.1145555E+00
         21   -1    0    0  503  502  0.00000000000E+00  0.00000000000E+00  0.41982168061E+03  0.41982168061E+03  0.00000000000E+00 0.  1.
         21   -1    0    0  501  503 -0.00000000000E+00 -0.00000000000E+00 -0.10893016428E+03  0.10893016428E+03  0.00000000000E+00 0.  1.
          6    1    1    2  501    0 -0.31298968492E+02 -0.10551241019E+03  0.80350262267E+02  0.22022183993E+03  0.17300000000E+03 0.  1.
         -6    1    1    2    0  502  0.31298968492E+02  0.10551241019E+03  0.23054125407E+03  0.30853000496E+03  0.17300000000E+03 0.  1.
<mgrwt>
<rscale>  2 0.20504023E+03</rscale>
<asrwt>0</asrwt>
<pdfrwt beam="1">  1       21 0.64587950E-01 0.20504023E+03</pdfrwt>
<pdfrwt beam="2">  1       21 0.16758487E-01 0.20504023E+03</pdfrwt>
<totfact> 0.70383921E+04</totfact>
</mgrwt>
</event>
<event>
 4    1  0.4043938E+000  0.2160578E+03  0.7546771E-02  0.1136857E+00
         21   -1    0    0  503  502  0.00000000000E+00  0.00000000000E+00  0.14106555922E+03  0.14106555922E+03  0.00000000000E+00 0. -1.
         21   -1    0    0  501  503 -0.00000000000E+00 -0.00000000000E+00 -0.39520025472E+03  0.39520025472E+03  0.00000000000E+00 0. -1.
          6    1    1    2  501    0  0.48474358635E+02  0.12000923331E+03 -0.23520843410E+03  0.31938063028E+03  0.17300000000E+03 0. -1.
         -6    1    1    2    0  502 -0.48474358635E+02 -0.12000923331E+03 -0.18926261404E+02  0.21688518367E+03  0.17300000000E+03 0. -1.
<mgrwt>
<rscale>  2 0.21605782E+03</rscale>
<asrwt>0</asrwt>
<pdfrwt beam="1">  1       21 0.21702394E-01 0.21605782E+03</pdfrwt>
<pdfrwt beam="2">  1       21 0.60800039E-01 0.21605782E+03</pdfrwt>
<totfact> 0.49317197E+04</totfact>
</mgrwt>
</event>
<event>
 4    1  0.4043938E+000  0.2301474E+03  0.7546771E-02  0.1126536E+00
         21   -1    0    0  503  502  0.00000000000E+00  0.00000000000E+00  0.89267205183E+02  0.89267205183E+02  0.00000000000E+00 0. -1.
         21   -1    0    0  501  503 -0.00000000000E+00 -0.00000000000E+00 -0.11600246335E+04  0.11600246335E+04  0.00000000000E+00 0. -1.
          6    1    1    2  501    0  0.17355091039E+02 -0.15078997069E+03 -0.97195725719E+03  0.99883368198E+03  0.17300000000E+03 0. -1.
         -6    1    1    2    0  502 -0.17355091039E+02  0.15078997069E+03 -0.98800171129E+02  0.25045815671E+03  0.17300000000E+03 0. -1.
<mgrwt>
<rscale>  2 0.23014738E+03</rscale>
<asrwt>0</asrwt>
<pdfrwt beam="1">  1       21 0.13733418E-01 0.23014738E+03</pdfrwt>
<pdfrwt beam="2">  1       21 0.17846531E+00 0.23014738E+03</pdfrwt>
<totfact> 0.83350880E+03</totfact>
</mgrwt>
</event>
<event>
 4    1  0.4043938E+000  0.1955358E+03  0.7546771E-02  0.1153561E+00
         21   -1    0    0  501  502  0.00000000000E+00  0.00000000000E+00  0.58385063104E+03  0.58385063104E+03  0.00000000000E+00 0.  1.
         21   -1    0    0  502  503 -0.00000000000E+00 -0.00000000000E+00 -0.66845463269E+02  0.66845463269E+02  0.00000000000E+00 0.  1.
          6    1    1    2  501    0 -0.73510135589E+01 -0.90836194013E+02  0.30489412032E+03  0.36220805644E+03  0.17300000000E+03 0.  1.
         -6    1    1    2    0  503  0.73510135589E+01  0.90836194013E+02  0.21211104745E+03  0.28848803787E+03  0.17300000000E+03 0.  1.
<mgrwt>
<rscale>  2 0.19553581E+03</rscale>
<asrwt>0</asrwt>
<pdfrwt beam="1">  1       21 0.89823171E-01 0.19553581E+03</pdfrwt>
<pdfrwt beam="2">  1       21 0.10283918E-01 0.19553581E+03</pdfrwt>
<totfact> 0.81399627E+04</totfact>
</mgrwt>
</event>
<event>
 4    1  0.4043938E+000  0.2037353E+03  0.7546771E-02  0.1146625E+00
         21   -1    0    0  503  502  0.00000000000E+00  0.00000000000E+00  0.29227898625E+03  0.29227898625E+03  0.00000000000E+00 0.  1.
         21   -1    0    0  501  503 -0.00000000000E+00 -0.00000000000E+00 -0.17704504921E+03  0.17704504921E+03  0.00000000000E+00 0.  1.
          6    1    1    2  501    0 -0.24711967173E+02 -0.10473001345E+03 -0.46763700486E+02  0.20903325267E+03  0.17300000000E+03 0.  1.
         -6    1    1    2    0  502  0.24711967173E+02  0.10473001345E+03  0.16199763753E+03  0.26029078279E+03  0.17300000000E+03 0.  1.
<mgrwt>
<rscale>  2 0.20373526E+03</rscale>
<asrwt>0</asrwt>
<pdfrwt beam="1">  1       21 0.44965998E-01 0.20373526E+03</pdfrwt>
<pdfrwt beam="2">  1       21 0.27237700E-01 0.20373526E+03</pdfrwt>
<totfact> 0.60675714E+04</totfact>
</mgrwt>
</event>
<event>
 4    1  0.4043938E+000  0.1889819E+03  0.7546771E-02  0.1159383E+00
         21   -1    0    0  501  502  0.00000000000E+00  0.00000000000E+00  0.95028707083E+02  0.95028707083E+02  0.00000000000E+00 0.  1.
         21   -1    0    0  502  503 -0.00000000000E+00 -0.00000000000E+00 -0.12813854799E+04  0.12813854799E+04  0.00000000000E+00 0.  1.
          6    1    1    2  501    0  0.25417771082E+02 -0.71687406256E+02 -0.14632223378E+02  0.18954748551E+03  0.17300000000E+03 0.  1.
         -6    1    1    2    0  503 -0.25417771082E+02  0.71687406256E+02 -0.11717245494E+04  0.11868667014E+04  0.17300000000E+03 0.  1.
<mgrwt>
<rscale>  2 0.18898187E+03</rscale>
<asrwt>0</asrwt>
<pdfrwt beam="1">  1       21 0.14619801E-01 0.18898187E+03</pdfrwt>
<pdfrwt beam="2">  1       21 0.19713623E+00 0.18898187E+03</pdfrwt>
<totfact> 0.57778424E+03</totfact>
</mgrwt>
</event>
<event>
 4    1  0.4043938E+000  0.1940964E+03  0.7546771E-02  0.1154818E+00
         21   -1    0    0  503  502  0.00000000000E+00  0.00000000000E+00  0.11105818258E+03  0.11105818258E+03  0.00000000000E+00 0.  1.
         21   -1    0    0  501  503 -0.00000000000E+00 -0.00000000000E+00 -0.44291197237E+03  0.44291197237E+03  0.00000000000E+00 0.  1.
          6    1    1    2  501    0 -0.85229649228E+02 -0.21916220723E+02 -0.29994558878E+03  0.35726848457E+03  0.17300000000E+03 0.  1.
         -6    1    1    2    0  502  0.85229649228E+02  0.21916220723E+02 -0.31908201010E+02  0.19670167038E+03  0.17300000000E+03 0.  1.
<mgrwt>
<rscale>  2 0.19409640E+03</rscale>
<asrwt>0</asrwt>
<pdfrwt beam="1">  1       21 0.17085874E-01 0.19409640E+03</pdfrwt>
<pdfrwt beam="2">  1       21 0.68140303E-01 0.19409640E+03</pdfrwt>
<totfact> 0.60728518E+04</totfact>
</mgrwt>
</event>
<event>
 4    1  0.4043938E+000  0.2306106E+03  0.7546771E-02  0.1126211E+00
         21   -1    0    0  503  502  0.00000000000E+00  0.00000000000E+00  0.34444613378E+03  0.34444613378E+03  0.00000000000E+00 0. -1.
         21   -1    0    0  501  503 -0.00000000000E+00 -0.00000000000E+00 -0.28682099840E+03  0.28682099840E+03  0.00000000000E+00 0. -1.
          6    1    1    2  501    0  0.11024247011E+03  0.10535106064E+03 -0.18565519351E+03  0.29605590531E+03  0.17300000000E+03 0. -1.
         -6    1    1    2    0  502 -0.11024247011E+03 -0.10535106064E+03  0.24328032889E+03  0.33521122687E+03  0.17300000000E+03 0. -1.
<mgrwt>
<rscale>  2 0.23061060E+03</rscale>
<asrwt>0</asrwt>
<pdfrwt beam="1">  1       21 0.52991713E-01 0.23061060E+03</pdfrwt>
<pdfrwt beam="2">  1       21 0.44126308E-01 0.23061060E+03</pdfrwt>
<totfact> 0.16272277E+04</totfact>
</mgrwt>
</event>
<event>
 4    1  0.4043938E+000  0.2751178E+03  0.7546771E-02  0.1098386E+00
         21   -1    0    0  501  502  0.00000000000E+00  0.00000000000E+00  0.65101152866E+02  0.65101152866E+02  0.00000000000E+00 0. -1.
         21   -1    0    0  502  503 -0.00000000000E+00 -0.00000000000E+00 -0.11772474621E+04  0.11772474621E+04  0.00000000000E+00 0.  1.
          6    1    1    2  501    0 -0.27567475241E+02 -0.21213406876E+03 -0.48690210749E+03  0.55925261832E+03  0.17300000000E+03 0. -1.
         -6    1    1    2    0  503  0.27567475241E+02  0.21213406876E+03 -0.62524420174E+03  0.68309599664E+03  0.17300000000E+03 0.  1.
<mgrwt>
<rscale>  2 0.27511785E+03</rscale>
<asrwt>0</asrwt>
<pdfrwt beam="1">  1       21 0.10015562E-01 0.27511785E+03</pdfrwt>
<pdfrwt beam="2">  1       21 0.18111499E+00 0.27511785E+03</pdfrwt>
<totfact> 0.13704966E+04</totfact>
</mgrwt>
</event>
<event>
 4    1  0.4043938E+000  0.2069706E+03  0.7546771E-02  0.1143988E+00
         21   -1    0    0  503  502  0.00000000000E+00  0.00000000000E+00  0.42232393255E+03  0.42232393255E+03  0.00000000000E+00 0. -1.
         21   -1    0    0  501  503 -0.00000000000E+00 -0.00000000000E+00 -0.10172187318E+03  0.10172187318E+03  0.00000000000E+00 0. -1.
          6    1    1    2  501    0  0.44050672504E+01  0.11352724371E+03  0.14629530709E+03  0.25345444671E+03  0.17300000000E+03 0. -1.
         -6    1    1    2    0  502 -0.44050672504E+01 -0.11352724371E+03  0.17430675228E+03  0.27059135901E+03  0.17300000000E+03 0. -1.
<mgrwt>
<rscale>  2 0.20697063E+03</rscale>
<asrwt>0</asrwt>
<pdfrwt beam="1">  1       21 0.64972912E-01 0.20697063E+03</pdfrwt>
<pdfrwt beam="2">  1       21 0.15649519E-01 0.20697063E+03</pdfrwt>
<totfact> 0.78713781E+04</totfact>
</mgrwt>
</event>
<event>
 4    1  0.4043938E+000  0.2203919E+03  0.7546771E-02  0.1133591E+00
         21   -1    0    0  501  502  0.00000000000E+00  0.00000000000E+00  0.24777218967E+02  0.24777218967E+02  0.00000000000E+00 0. -1.
         21   -1    0    0  502  503 -0.00000000000E+00 -0.00000000000E+00 -0.19692180240E+04  0.19692180240E+04  0.00000000000E+00 0. -1.
          6    1    1    2  501    0 -0.11152929295E+03 -0.78770655358E+02 -0.10390376453E+04  0.10621543333E+04  0.17300000000E+03 0. -1.
         -6    1    1    2    0  503  0.11152929295E+03  0.78770655358E+02 -0.90540315968E+03  0.93184090965E+03  0.17300000000E+03 0. -1.
<mgrwt>
<rscale>  2 0.22039192E+03</rscale>
<asrwt>0</asrwt>
<pdfrwt beam="1">  1       21 0.38118795E-02 0.22039192E+03</pdfrwt>
<pdfrwt beam="2">  1       21 0.30295664E+00 0.22039192E+03</pdfrwt>
<totfact> 0.13563249E+04</totfact>
</mgrwt>
</event>
<event>
 4    1  0.4043938E+000  0.1878126E+03  0.7546771E-02  0.1160449E+00
         21   -1    0    0  501  502  0.00000000000E+00  0.00000000000E+00  0.64996214847E+02  0.64996214847E+02  0.00000000000E+00 0. -1.
         21   -1    0    0  502  503 -0.00000000000E+00 -0.00000000000E+00 -0.54536183011E+03  0.54536183011E+03  0.00000000000E+00 0. -1.
          6    1    1    2  501    0 -0.23752128755E+02 -0.69140541826E+02 -0.21887021421E+03  0.28840552840E+03  0.17300000000E+03 0. -1.
         -6    1    1    2    0  503  0.23752128755E+02  0.69140541826E+02 -0.26149540105E+03  0.32195251656E+03  0.17300000000E+03 0. -1.
<mgrwt>
<rscale>  2 0.18781261E+03</rscale>
<asrwt>0</asrwt>
<pdfrwt beam="1">  1       21 0.99994175E-02 0.18781261E+03</pdfrwt>
<pdfrwt beam="2">  1       21 0.83901821E-01 0.18781261E+03</pdfrwt>
<totfact> 0.10036713E+05</totfact>
</mgrwt>
</event>
<event>
 4    1  0.4043938E+000  0.2338142E+03  0.7546771E-02  0.1123984E+00
         21   -1    0    0  501  502  0.00000000000E+00  0.00000000000E+00  0.37272880176E+03  0.37272880176E+03  0.00000000000E+00 0.  1.
         21   -1    0    0  502  503 -0.00000000000E+00 -0.00000000000E+00 -0.14712697700E+03  0.14712697700E+03  0.00000000000E+00 0.  1.
          6    1    1    2  501    0  0.14261011304E+03  0.66350970055E+02  0.12724611758E+03  0.26619667543E+03  0.17300000000E+03 0.  1.
         -6    1    1    2    0  503 -0.14261011304E+03 -0.66350970055E+02  0.98355707185E+02  0.25365910333E+03  0.17300000000E+03 0.  1.
<mgrwt>
<rscale>  2 0.23381423E+03</rscale>
<asrwt>0</asrwt>
<pdfrwt beam="1">  1       21 0.57342892E-01 0.23381423E+03</pdfrwt>
<pdfrwt beam="2">  1       21 0.22634920E-01 0.23381423E+03</pdfrwt>
<totfact> 0.51247073E+04</totfact>
</mgrwt>
</event>
<event>
 4    1  0.4043938E+000  0.2040757E+03  0.7546771E-02  0.1146345E+00
         21   -1    0    0  503  502  0.00000000000E+00  0.00000000000E+00  0.24936335374E+03  0.24936335374E+03  0.00000000000E+00 0. -1.
         21   -1    0    0  501  503 -0.00000000000E+00 -0.00000000000E+00 -0.24465681030E+03  0.24465681030E+03  0.00000000000E+00 0.  1.
          6    1    1    2  501    0 -0.85707856090E+02  0.66121481870E+02 -0.13679885103E+03  0.24568437599E+03  0.17300000000E+03 0.  1.
         -6    1    1    2    0  502  0.85707856090E+02 -0.66121481870E+02  0.14150539448E+03  0.24833578805E+03  0.17300000000E+03 0. -1.
<mgrwt>
<rscale>  2 0.20407569E+03</rscale>
<asrwt>0</asrwt>
<pdfrwt beam="1">  1       21 0.38363593E-01 0.20407569E+03</pdfrwt>
<pdfrwt beam="2">  1       21 0.37639509E-01 0.20407569E+03</pdfrwt>
<totfact> 0.44348660E+04</totfact>
</mgrwt>
</event>
<event>
 4    1  0.4043938E+000  0.2694327E+03  0.7546771E-02  0.1101605E+00
         21   -1    0    0  503  502  0.00000000000E+00  0.00000000000E+00  0.38486854158E+03  0.38486854158E+03  0.00000000000E+00 0. -1.
         21   -1    0    0  501  503 -0.00000000000E+00 -0.00000000000E+00 -0.18875870393E+03  0.18875870393E+03  0.00000000000E+00 0.  1.
          6    1    1    2  501    0 -0.20482765989E+03 -0.26657497799E+02  0.10582332418E+03  0.28946946019E+03  0.17300000000E+03 0.  1.
         -6    1    1    2    0  502  0.20482765989E+03  0.26657497799E+02  0.90286513467E+02  0.28415778532E+03  0.17300000000E+03 0. -1.
<mgrwt>
<rscale>  2 0.26943272E+03</rscale>
<asrwt>0</asrwt>
<pdfrwt beam="1">  1       21 0.59210545E-01 0.26943272E+03</pdfrwt>
<pdfrwt beam="2">  1       21 0.29039801E-01 0.26943272E+03</pdfrwt>
<totfact> 0.29157198E+04</totfact>
</mgrwt>
</event>
<event>
 4    1  0.4043938E+000  0.1825199E+03  0.7546771E-02  0.1165386E+00
         21   -1    0    0  501  502  0.00000000000E+00  0.00000000000E+00  0.73665049424E+03  0.73665049424E+03  0.00000000000E+00 0. -1.
         21   -1    0    0  502  503 -0.00000000000E+00 -0.00000000000E+00 -0.45580384399E+02  0.45580384399E+02  0.00000000000E+00 0.  1.
          6    1    1    2  501    0 -0.57073940434E+02  0.11273110824E+02  0.38016936369E+03  0.42171348424E+03  0.17300000000E+03 0. -1.
         -6    1    1    2    0  503  0.57073940434E+02 -0.11273110824E+02  0.31090074615E+03  0.36051739440E+03  0.17300000000E+03 0.  1.
<mgrwt>
<rscale>  2 0.18251991E+03</rscale>
<asrwt>0</asrwt>
<pdfrwt beam="1">  1       21 0.11333084E+00 0.18251991E+03</pdfrwt>
<pdfrwt beam="2">  1       21 0.70123674E-02 0.18251991E+03</pdfrwt>
<totfact> 0.92019604E+04</totfact>
</mgrwt>
</event>
<event>
 4    1  0.4043938E+000  0.1737145E+03  0.7546771E-02  0.1174029E+00
         21   -1    0    0  503  502  0.00000000000E+00  0.00000000000E+00  0.66443001448E+03  0.66443001448E+03  0.00000000000E+00 0. -1.
         21   -1    0    0  501  503 -0.00000000000E+00 -0.00000000000E+00 -0.17390562314E+03  0.17390562314E+03  0.00000000000E+00 0. -1.
          6    1    1    2  501    0 -0.72766548594E+01 -0.13955704773E+02 -0.11503651796E+03  0.20835093440E+03  0.17300000000E+03 0. -1.
         -6    1    1    2    0  502  0.72766548594E+01  0.13955704773E+02  0.60556090931E+03  0.62998470322E+03  0.17300000000E+03 0. -1.
<mgrwt>
<rscale>  2 0.17371445E+03</rscale>
<asrwt>0</asrwt>
<pdfrwt beam="1">  1       21 0.10222000E+00 0.17371445E+03</pdfrwt>
<pdfrwt beam="2">  1       21 0.26754712E-01 0.17371445E+03</pdfrwt>
<totfact> 0.10504477E+04</totfact>
</mgrwt>
</event>
<event>
 4    1  0.4043938E+000  0.1970508E+03  0.7546771E-02  0.1152251E+00
         21   -1    0    0  503  502  0.00000000000E+00  0.00000000000E+00  0.18236332942E+03  0.18236332942E+03  0.00000000000E+00 0.  1.
         21   -1    0    0  501  503 -0.00000000000E+00 -0.00000000000E+00 -0.32953010423E+03  0.32953010423E+03  0.00000000000E+00 0.  1.
          6    1    1    2  501    0  0.59208638621E+02 -0.73446195828E+02 -0.22583713758E+03  0.29971890044E+03  0.17300000000E+03 0.  1.
         -6    1    1    2    0  502 -0.59208638621E+02  0.73446195828E+02  0.78670362770E+02  0.21217453322E+03  0.17300000000E+03 0.  1.
<mgrwt>
<rscale>  2 0.19705077E+03</rscale>
<asrwt>0</asrwt>
<pdfrwt beam="1">  1       21 0.28055897E-01 0.19705077E+03</pdfrwt>
<pdfrwt beam="2">  1       21 0.50696939E-01 0.19705077E+03</pdfrwt>
<totfact> 0.44830252E+04</totfact>
</mgrwt>
</event>
<event>
 4    1  0.4043938E+000  0.1914590E+03  0.7546771E-02  0.1157152E+00
         21   -1    0    0  501  502  0.00000000000E+00  0.00000000000E+00  0.17122770767E+04  0.17122770767E+04  0.00000000000E+00 0. -1.
         21   -1    0    0  502  503 -0.00000000000E+00 -0.00000000000E+00 -0.35256440041E+02  0.35256440041E+02  0.00000000000E+00 0.  1.
          6    1    1    2  501    0 -0.80257382801E+02  0.16920416189E+02  0.13861256706E+04  0.13992858617E+04  0.17300000000E+03 0. -1.
         -6    1    1    2    0  503  0.80257382801E+02 -0.16920416189E+02  0.29089496602E+03  0.34824765503E+03  0.17300000000E+03 0.  1.
<mgrwt>
<rscale>  2 0.19145900E+03</rscale>
<asrwt>0</asrwt>
<pdfrwt beam="1">  1       21 0.26342718E+00 0.19145900E+03</pdfrwt>
<pdfrwt beam="2">  1       21 0.54240690E-02 0.19145900E+03</pdfrwt>
<totfact> 0.13015628E+04</totfact>
</mgrwt>
</event>
<event>
 4    1  0.4043938E+000  0.1869151E+03  0.7546771E-02  0.1161274E+00
         21   -1    0    0  503  502  0.00000000000E+00  0.00000000000E+00  0.93033285224E+03  0.93033285224E+03  0.00000000000E+00 0. -1.
         21   -1    0    0  501  503 -0.00000000000E+00 -0.00000000000E+00 -0.16871054141E+03  0.16871054141E+03  0.00000000000E+00 0.  1.
          6    1    1    2  501    0  0.29640299908E+02  0.64262771070E+02 -0.10370643311E+03  0.21375751540E+03  0.17300000000E+03 0.  1.
         -6    1    1    2    0  502 -0.29640299908E+02 -0.64262771070E+02  0.86532874394E+03  0.88528587824E+03  0.17300000000E+03 0. -1.
<mgrwt>
<rscale>  2 0.18691509E+03</rscale>
<asrwt>0</asrwt>
<pdfrwt beam="1">  1       21 0.14312813E+00 0.18691509E+03</pdfrwt>
<pdfrwt beam="2">  1       21 0.25955469E-01 0.18691509E+03</pdfrwt>
<totfact> 0.47870762E+03</totfact>
</mgrwt>
</event>
<event>
 4    1  0.4043938E+000  0.1985630E+03  0.7546771E-02  0.1150957E+00
         21   -1    0    0  501  502  0.00000000000E+00  0.00000000000E+00  0.65825826203E+03  0.65825826203E+03  0.00000000000E+00 0.  1.
         21   -1    0    0  502  503 -0.00000000000E+00 -0.00000000000E+00 -0.95468596471E+02  0.95468596471E+02  0.00000000000E+00 0.  1.
          6    1    1    2  501    0  0.60274704069E+02 -0.76584752085E+02  0.51143803342E+03  0.54863113859E+03  0.17300000000E+03 0.  1.
         -6    1    1    2    0  503 -0.60274704069E+02  0.76584752085E+02  0.51351632139E+02  0.20509571991E+03  0.17300000000E+03 0.  1.
<mgrwt>
<rscale>  2 0.19856300E+03</rscale>
<asrwt>0</asrwt>
<pdfrwt beam="1">  1       21 0.10127050E+00 0.19856300E+03</pdfrwt>
<pdfrwt beam="2">  1       21 0.14687477E-01 0.19856300E+03</pdfrwt>
<totfact> 0.32363455E+04</totfact>
</mgrwt>
</event>
<event>
 4    1  0.4043938E+000  0.1984909E+03  0.7546771E-02  0.1151018E+00
         21   -1    0    0  503  502  0.00000000000E+00  0.00000000000E+00  0.26325625618E+03  0.26325625618E+03  0.00000000000E+00 0. -1.
         21   -1    0    0  501  503 -0.00000000000E+00 -0.00000000000E+00 -0.26849953696E+03  0.26849953696E+03  0.00000000000E+00 0.  1.
          6    1    1    2  501    0  0.81664729537E+02  0.52919913811E+02 -0.17950742166E+03  0.26762204648E+03  0.17300000000E+03 0.  1.
         -6    1    1    2    0  502 -0.81664729537E+02 -0.52919913811E+02  0.17426414089E+03  0.26413374666E+03  0.17300000000E+03 0. -1.
<mgrwt>
<rscale>  2 0.19849092E+03</rscale>
<asrwt>0</asrwt>
<pdfrwt beam="1">  1       21 0.40500963E-01 0.19849092E+03</pdfrwt>
<pdfrwt beam="2">  1       21 0.41307621E-01 0.19849092E+03</pdfrwt>
<totfact> 0.33045749E+04</totfact>
</mgrwt>
</event>
<event>
 4    1  0.4043938E+000  0.2428682E+03  0.7546771E-02  0.1117897E+00
         21   -1    0    0  501  502  0.00000000000E+00  0.00000000000E+00  0.52833382996E+03  0.52833382996E+03  0.00000000000E+00 0. -1.
         21   -1    0    0  502  503 -0.00000000000E+00 -0.00000000000E+00 -0.11312628256E+03  0.11312628256E+03  0.00000000000E+00 0.  1.
          6    1    1    2  501    0 -0.16902817640E+03  0.22033187383E+02  0.17088306110E+03  0.29696128760E+03  0.17300000000E+03 0.  1.
         -6    1    1    2    0  503  0.16902817640E+03 -0.22033187383E+02  0.24432448630E+03  0.34449882492E+03  0.17300000000E+03 0. -1.
<mgrwt>
<rscale>  2 0.24286825E+03</rscale>
<asrwt>0</asrwt>
<pdfrwt beam="1">  1       21 0.81282126E-01 0.24286825E+03</pdfrwt>
<pdfrwt beam="2">  1       21 0.17404044E-01 0.24286825E+03</pdfrwt>
<totfact> 0.38673575E+04</totfact>
</mgrwt>
</event>
<event>
 4    1  0.4043938E+000  0.2265860E+03  0.7546771E-02  0.1129066E+00
         21   -1    0    0  501  502  0.00000000000E+00  0.00000000000E+00  0.12716686969E+03  0.12716686969E+03  0.00000000000E+00 0. -1.
         21   -1    0    0  502  503 -0.00000000000E+00 -0.00000000000E+00 -0.54698798006E+03  0.54698798006E+03  0.00000000000E+00 0.  1.
          6    1    1    2  501    0  0.14371171013E+03  0.27552691291E+02 -0.37406748075E+02  0.22965293647E+03  0.17300000000E+03 0. -1.
         -6    1    1    2    0  503 -0.14371171013E+03 -0.27552691291E+02 -0.38241436229E+03  0.44450191328E+03  0.17300000000E+03 0.  1.
<mgrwt>
<rscale>  2 0.22658598E+03</rscale>
<asrwt>0</asrwt>
<pdfrwt beam="1">  1       21 0.19564134E-01 0.22658598E+03</pdfrwt>
<pdfrwt beam="2">  1       21 0.84151997E-01 0.22658598E+03</pdfrwt>
<totfact> 0.28950595E+04</totfact>
</mgrwt>
</event>
<event>
 4    1  0.4043938E+000  0.2250584E+03  0.7546771E-02  0.1130167E+00
         21   -1    0    0  501  502  0.00000000000E+00  0.00000000000E+00  0.62052460439E+02  0.62052460439E+02  0.00000000000E+00 0. -1.
         21   -1    0    0  502  503 -0.00000000000E+00 -0.00000000000E+00 -0.92853154474E+03  0.92853154474E+03  0.00000000000E+00 0. -1.
          6    1    1    2  501    0 -0.83625045835E+02 -0.11717135367E+03 -0.60546107570E+03  0.64593683019E+03  0.17300000000E+03 0. -1.
         -6    1    1    2    0  503  0.83625045835E+02  0.11717135367E+03 -0.26101800861E+03  0.34464717499E+03  0.17300000000E+03 0. -1.
<mgrwt>
<rscale>  2 0.22505838E+03</rscale>
<asrwt>0</asrwt>
<pdfrwt beam="1">  1       21 0.95465331E-02 0.22505838E+03</pdfrwt>
<pdfrwt beam="2">  1       21 0.14285100E+00 0.22505838E+03</pdfrwt>
<totfact> 0.29337553E+04</totfact>
</mgrwt>
</event>
<event>
 4    1  0.4043938E+000  0.2596336E+03  0.7546771E-02  0.1107364E+00
         21   -1    0    0  501  502  0.00000000000E+00  0.00000000000E+00  0.72452997985E+02  0.72452997985E+02  0.00000000000E+00 0. -1.
         21   -1    0    0  502  503 -0.00000000000E+00 -0.00000000000E+00 -0.14953040205E+04  0.14953040205E+04  0.00000000000E+00 0. -1.
          6    1    1    2  501    0  0.22810639151E+02  0.19225058537E+03 -0.22961660540E+03  0.34660265191E+03  0.17300000000E+03 0. -1.
         -6    1    1    2    0  503 -0.22810639151E+02 -0.19225058537E+03 -0.11932344171E+04  0.12211543666E+04  0.17300000000E+03 0. -1.
<mgrwt>
<rscale>  2 0.25963361E+03</rscale>
<asrwt>0</asrwt>
<pdfrwt beam="1">  1       21 0.11146617E-01 0.25963361E+03</pdfrwt>
<pdfrwt beam="2">  1       21 0.23004674E+00 0.25963361E+03</pdfrwt>
<totfact> 0.55250680E+03</totfact>
</mgrwt>
</event>
<event>
 4    1  0.4043938E+000  0.2460843E+03  0.7546771E-02  0.1115805E+00
         21   -1    0    0  503  502  0.00000000000E+00  0.00000000000E+00  0.53309600856E+03  0.53309600856E+03  0.00000000000E+00 0. -1.
         21   -1    0    0  501  503 -0.00000000000E+00 -0.00000000000E+00 -0.11874823551E+03  0.11874823551E+03  0.00000000000E+00 0.  1.
          6    1    1    2  501    0 -0.12384784409E+03 -0.12365351300E+03  0.13928392305E+03  0.28276755645E+03  0.17300000000E+03 0.  1.
         -6    1    1    2    0  502  0.12384784409E+03  0.12365351300E+03  0.27506385000E+03  0.36907668762E+03  0.17300000000E+03 0. -1.
<mgrwt>
<rscale>  2 0.24608429E+03</rscale>
<asrwt>0</asrwt>
<pdfrwt beam="1">  1       21 0.82014769E-01 0.24608429E+03</pdfrwt>
<pdfrwt beam="2">  1       21 0.18268960E-01 0.24608429E+03</pdfrwt>
<totfact> 0.34575518E+04</totfact>
</mgrwt>
</event>
<event>
 4    1  0.4043938E+000  0.2000950E+03  0.7546771E-02  0.1149659E+00
         21   -1    0    0  501  502  0.00000000000E+00  0.00000000000E+00  0.17609320088E+04  0.17609320088E+04  0.00000000000E+00 0.  1.
         21   -1    0    0  502  503 -0.00000000000E+00 -0.00000000000E+00 -0.23021626870E+02  0.23021626870E+02  0.00000000000E+00 0. -1.
          6    1    1    2  501    0  0.58022844374E+02  0.82111840738E+02  0.76974503290E+03  0.79532724116E+03  0.17300000000E+03 0. -1.
         -6    1    1    2    0  503 -0.58022844374E+02 -0.82111840738E+02  0.96816534905E+03  0.98862639452E+03  0.17300000000E+03 0. -1.
<mgrwt>
<rscale>  2 0.20009499E+03</rscale>
<asrwt>0</asrwt>
<pdfrwt beam="1">  1       21 0.27091251E+00 0.20009499E+03</pdfrwt>
<pdfrwt beam="2">  1       21 0.35417901E-02 0.20009499E+03</pdfrwt>
<totfact> 0.23956731E+04</totfact>
</mgrwt>
</event>
<event>
 4    1  0.4043938E+000  0.2142338E+03  0.7546771E-02  0.1138256E+00
         21   -1    0    0  503  502  0.00000000000E+00  0.00000000000E+00  0.16689396672E+03  0.16689396672E+03  0.00000000000E+00 0. -1.
         21   -1    0    0  501  503 -0.00000000000E+00 -0.00000000000E+00 -0.28488102013E+03  0.28488102013E+03  0.00000000000E+00 0. -1.
          6    1    1    2  501    0  0.10570060813E+03  0.69242493996E+02 -0.10105860710E+03  0.23687334929E+03  0.17300000000E+03 0.  1.
         -6    1    1    2    0  502 -0.10570060813E+03 -0.69242493996E+02 -0.16928446319E+02  0.21490163756E+03  0.17300000000E+03 0.  1.
<mgrwt>
<rscale>  2 0.21423385E+03</rscale>
<asrwt>0</asrwt>
<pdfrwt beam="1">  1       21 0.25675995E-01 0.21423385E+03</pdfrwt>
<pdfrwt beam="2">  1       21 0.43827849E-01 0.21423385E+03</pdfrwt>
<totfact> 0.71321680E+04</totfact>
</mgrwt>
</event>
<event>
 4    1  0.4043938E+000  0.2291177E+03  0.7546771E-02  0.1127262E+00
         21   -1    0    0  501  502  0.00000000000E+00  0.00000000000E+00  0.50830446150E+03  0.50830446150E+03  0.00000000000E+00 0.  1.
         21   -1    0    0  502  503 -0.00000000000E+00 -0.00000000000E+00 -0.18140314037E+03  0.18140314037E+03  0.00000000000E+00 0. -1.
          6    1    1    2  501    0 -0.11174476373E+03  0.10039442722E+03  0.38976783303E+03  0.45212155103E+03  0.17300000000E+03 0.  1.
         -6    1    1    2    0  503  0.11174476373E+03 -0.10039442722E+03 -0.62866511899E+02  0.23758605084E+03  0.17300000000E+03 0. -1.
<mgrwt>
<rscale>  2 0.22911773E+03</rscale>
<asrwt>0</asrwt>
<pdfrwt beam="1">  1       21 0.78200686E-01 0.22911773E+03</pdfrwt>
<pdfrwt beam="2">  1       21 0.27908176E-01 0.22911773E+03</pdfrwt>
<totfact> 0.17370424E+04</totfact>
</mgrwt>
</event>
<event>
 4    1  0.4043938E+000  0.1873479E+03  0.7546771E-02  0.1160875E+00
         21   -1    0    0  503  502  0.00000000000E+00  0.00000000000E+00  0.71625227450E+02  0.71625227450E+02  0.00000000000E+00 0. -1.
         21   -1    0    0  501  503 -0.00000000000E+00 -0.00000000000E+00 -0.64668601874E+03  0.64668601874E+03  0.00000000000E+00 0. -1.
          6    1    1    2  501    0 -0.71899532854E+02 -0.83893578653E+00 -0.46429496711E+03  0.50066861608E+03  0.17300000000E+03 0. -1.
         -6    1    1    2    0  502  0.71899532854E+02  0.83893578653E+00 -0.11076582418E+03  0.21764263012E+03  0.17300000000E+03 0. -1.
<mgrwt>
<rscale>  2 0.18734793E+03</rscale>
<asrwt>0</asrwt>
<pdfrwt beam="1">  1       21 0.11019266E-01 0.18734793E+03</pdfrwt>
<pdfrwt beam="2">  1       21 0.99490156E-01 0.18734793E+03</pdfrwt>
<totfact> 0.56916357E+04</totfact>
</mgrwt>
</event>
<event>
 4    1  0.4043938E+000  0.1921697E+03  0.7546771E-02  0.1156519E+00
         21   -1    0    0  501  502  0.00000000000E+00  0.00000000000E+00  0.48449750132E+03  0.48449750132E+03  0.00000000000E+00 0.  1.
         21   -1    0    0  502  503 -0.00000000000E+00 -0.00000000000E+00 -0.11892313289E+03  0.11892313289E+03  0.00000000000E+00 0.  1.
          6    1    1    2  501    0 -0.77315961773E+02 -0.31975830246E+02  0.36357882063E+03  0.41124052630E+03  0.17300000000E+03 0.  1.
         -6    1    1    2    0  503  0.77315961773E+02  0.31975830246E+02  0.19955477983E+01  0.19218010791E+03  0.17300000000E+03 0.  1.
<mgrwt>
<rscale>  2 0.19216975E+03</rscale>
<asrwt>0</asrwt>
<pdfrwt beam="1">  1       21 0.74538076E-01 0.19216975E+03</pdfrwt>
<pdfrwt beam="2">  1       21 0.18295867E-01 0.19216975E+03</pdfrwt>
<totfact> 0.43925881E+04</totfact>
</mgrwt>
</event>
<event>
 4    1  0.4043938E+000  0.1910342E+03  0.7546771E-02  0.1157532E+00
         21   -1    0    0  501  502  0.00000000000E+00  0.00000000000E+00  0.59659928449E+03  0.59659928449E+03  0.00000000000E+00 0. -1.
         21   -1    0    0  502  503 -0.00000000000E+00 -0.00000000000E+00 -0.18179786290E+03  0.18179786290E+03  0.00000000000E+00 0. -1.
          6    1    1    2  501    0 -0.73814413954E+02  0.33414318380E+02  0.52443070284E+03  0.55814124239E+03  0.17300000000E+03 0. -1.
         -6    1    1    2    0  503  0.73814413954E+02 -0.33414318380E+02 -0.10962928125E+03  0.22025590500E+03  0.17300000000E+03 0. -1.
<mgrwt>
<rscale>  2 0.19103425E+03</rscale>
<asrwt>0</asrwt>
<pdfrwt beam="1">  1       21 0.91784504E-01 0.19103425E+03</pdfrwt>
<pdfrwt beam="2">  1       21 0.27968902E-01 0.19103425E+03</pdfrwt>
<totfact> 0.12270095E+04</totfact>
</mgrwt>
</event>
<event>
 4    1  0.4043938E+000  0.2235470E+03  0.7546771E-02  0.1131266E+00
         21   -1    0    0  501  502  0.00000000000E+00  0.00000000000E+00  0.24338146075E+03  0.24338146075E+03  0.00000000000E+00 0.  1.
         21   -1    0    0  502  503 -0.00000000000E+00 -0.00000000000E+00 -0.21541051574E+03  0.21541051574E+03  0.00000000000E+00 0.  1.
          6    1    1    2  501    0  0.41815305206E+02 -0.13526181547E+03 -0.35641148717E+02  0.22637042641E+03  0.17300000000E+03 0.  1.
         -6    1    1    2    0  503 -0.41815305206E+02  0.13526181547E+03  0.63612093730E+02  0.23242155008E+03  0.17300000000E+03 0.  1.
<mgrwt>
<rscale>  2 0.22354704E+03</rscale>
<asrwt>0</asrwt>
<pdfrwt beam="1">  1       21 0.37443302E-01 0.22354704E+03</pdfrwt>
<pdfrwt beam="2">  1       21 0.33140079E-01 0.22354704E+03</pdfrwt>
<totfact> 0.59477891E+04</totfact>
</mgrwt>
</event>
<event>
 4    1  0.4043938E+000  0.2258959E+03  0.7546771E-02  0.1129562E+00
         21   -1    0    0  503  502  0.00000000000E+00  0.00000000000E+00  0.91153252653E+02  0.91153252653E+02  0.00000000000E+00 0.  1.
         21   -1    0    0  501  503 -0.00000000000E+00 -0.00000000000E+00 -0.59230539432E+03  0.59230539432E+03  0.00000000000E+00 0.  1.
          6    1    1    2  501    0 -0.11304394794E+03 -0.91219602051E+02 -0.17053968062E+03  0.28304192734E+03  0.17300000000E+03 0.  1.
         -6    1    1    2    0  502  0.11304394794E+03  0.91219602051E+02 -0.33061246104E+03  0.40041671963E+03  0.17300000000E+03 0.  1.
<mgrwt>
<rscale>  2 0.22589588E+03</rscale>
<asrwt>0</asrwt>
<pdfrwt beam="1">  1       21 0.14023578E-01 0.22589588E+03</pdfrwt>
<pdfrwt beam="2">  1       21 0.91123905E-01 0.22589588E+03</pdfrwt>
<totfact> 0.44506004E+04</totfact>
</mgrwt>
</event>
<event>
 4    1  0.4043938E+000  0.2036558E+03  0.7546771E-02  0.1146691E+00
         21   -1    0    0  503  502  0.00000000000E+00  0.00000000000E+00  0.94200388110E+03  0.94200388110E+03  0.00000000000E+00 0.  1.
         21   -1    0    0  501  503 -0.00000000000E+00 -0.00000000000E+00 -0.56897071668E+02  0.56897071668E+02  0.00000000000E+00 0.  1.
          6    1    1    2  501    0 -0.27037079831E+02 -0.10399856141E+03  0.20503331545E+03  0.28898852037E+03  0.17300000000E+03 0.  1.
         -6    1    1    2    0  502  0.27037079831E+02  0.10399856141E+03  0.68007349398E+03  0.70991243240E+03  0.17300000000E+03 0.  1.
<mgrwt>
<rscale>  2 0.20365585E+03</rscale>
<asrwt>0</asrwt>
<pdfrwt beam="1">  1       21 0.14492366E+00 0.20365585E+03</pdfrwt>
<pdfrwt beam="2">  1       21 0.87533963E-02 0.20365585E+03</pdfrwt>
<totfact> 0.33324286E+04</totfact>
</mgrwt>
</event>
<event>
 4    1  0.4043938E+000  0.2854980E+03  0.7546771E-02  0.1092723E+00
         21   -1    0    0  501  502  0.00000000000E+00  0.00000000000E+00  0.20575477900E+03  0.20575477900E+03  0.00000000000E+00 0. -1.
         21   -1    0    0  502  503 -0.00000000000E+00 -0.00000000000E+00 -0.58152739200E+03  0.58152739200E+03  0.00000000000E+00 0. -1.
          6    1    1    2  501    0 -0.13807738837E+03 -0.18031842108E+03  0.34366605524E+02  0.28755897088E+03  0.17300000000E+03 0. -1.
         -6    1    1    2    0  503  0.13807738837E+03  0.18031842108E+03 -0.41013921853E+03  0.49972320012E+03  0.17300000000E+03 0. -1.
<mgrwt>
<rscale>  2 0.28549798E+03</rscale>
<asrwt>0</asrwt>
<pdfrwt beam="1">  1       21 0.31654581E-01 0.28549798E+03</pdfrwt>
<pdfrwt beam="2">  1       21 0.89465752E-01 0.28549798E+03</pdfrwt>
<totfact> 0.96742094E+03</totfact>
</mgrwt>
</event>
<event>
 4    1  0.4043938E+000  0.2283763E+03  0.7546771E-02  0.1127788E+00
         21   -1    0    0  501  502  0.00000000000E+00  0.00000000000E+00  0.10581197082E+03  0.10581197082E+03  0.00000000000E+00 0.  1.
         21   -1    0    0  502  503 -0.00000000000E+00 -0.00000000000E+00 -0.49637083039E+03  0.49637083039E+03  0.00000000000E+00 0.  1.
          6    1    1    2  501    0 -0.24893669961E+02 -0.14699329794E+03 -0.17013640878E+03  0.28478434303E+03  0.17300000000E+03 0.  1.
         -6    1    1    2    0  503  0.24893669961E+02  0.14699329794E+03 -0.22042245079E+03  0.31739845818E+03  0.17300000000E+03 0.  1.
<mgrwt>
<rscale>  2 0.22837628E+03</rscale>
<asrwt>0</asrwt>
<pdfrwt beam="1">  1       21 0.16278765E-01 0.22837628E+03</pdfrwt>
<pdfrwt beam="2">  1       21 0.76364743E-01 0.22837628E+03</pdfrwt>
<totfact> 0.50722419E+04</totfact>
</mgrwt>
</event>
<event>
 4    1  0.4043938E+000  0.2013692E+03  0.7546771E-02  0.1148589E+00
         21   -1    0    0  501  502  0.00000000000E+00  0.00000000000E+00  0.24114616529E+03  0.24114616529E+03  0.00000000000E+00 0. -1.
         21   -1    0    0  502  503 -0.00000000000E+00 -0.00000000000E+00 -0.34170097418E+03  0.34170097418E+03  0.00000000000E+00 0. -1.
          6    1    1    2  501    0  0.10305544105E+03 -0.37539709120E+00  0.15741028243E+03  0.25559257006E+03  0.17300000000E+03 0. -1.
         -6    1    1    2    0  503 -0.10305544105E+03  0.37539709120E+00 -0.25796509133E+03  0.32725456941E+03  0.17300000000E+03 0. -1.
<mgrwt>
<rscale>  2 0.20136923E+03</rscale>
<asrwt>0</asrwt>
<pdfrwt beam="1">  1       21 0.37099410E-01 0.20136923E+03</pdfrwt>
<pdfrwt beam="2">  1       21 0.52569380E-01 0.20136923E+03</pdfrwt>
<totfact> 0.23920612E+04</totfact>
</mgrwt>
</event>
<event>
 4    1  0.4043938E+000  0.2403872E+03  0.7546771E-02  0.1119535E+00
         21   -1    0    0  503  502  0.00000000000E+00  0.00000000000E+00  0.10292451615E+03  0.10292451615E+03  0.00000000000E+00 0. -1.
         21   -1    0    0  501  503 -0.00000000000E+00 -0.00000000000E+00 -0.63511777898E+03  0.63511777898E+03  0.00000000000E+00 0. -1.
          6    1    1    2  501    0  0.13857662485E+03 -0.93024373027E+02 -0.39178359862E+03  0.45965248077E+03  0.17300000000E+03 0. -1.
         -6    1    1    2    0  502 -0.13857662485E+03  0.93024373027E+02 -0.14040966422E+03  0.27838981436E+03  0.17300000000E+03 0. -1.
<mgrwt>
<rscale>  2 0.24038722E+03</rscale>
<asrwt>0</asrwt>
<pdfrwt beam="1">  1       21 0.15834541E-01 0.24038722E+03</pdfrwt>
<pdfrwt beam="2">  1       21 0.97710429E-01 0.24038722E+03</pdfrwt>
<totfact> 0.30045225E+04</totfact>
</mgrwt>
</event>
<event>
 4    1  0.4043938E+000  0.1886963E+03  0.7546771E-02  0.1159643E+00
         21   -1    0    0  503  502  0.00000000000E+00  0.00000000000E+00  0.75552935266E+03  0.75552935266E+03  0.00000000000E+00 0. -1.
         21   -1    0    0  501  503 -0.00000000000E+00 -0.00000000000E+00 -0.49698226106E+02  0.49698226106E+02  0.00000000000E+00 0. -1.
          6    1    1    2  501    0 -0.35818883425E+02  0.66289387416E+02  0.26134861149E+03  0.32234976659E+03  0.17300000000E+03 0. -1.
         -6    1    1    2    0  502  0.35818883425E+02 -0.66289387416E+02  0.44448251507E+03  0.48287781218E+03  0.17300000000E+03 0. -1.
<mgrwt>
<rscale>  2 0.18869625E+03</rscale>
<asrwt>0</asrwt>
<pdfrwt beam="1">  1       21 0.11623528E+00 0.18869625E+03</pdfrwt>
<pdfrwt beam="2">  1       21 0.76458815E-02 0.18869625E+03</pdfrwt>
<totfact> 0.74291011E+04</totfact>
</mgrwt>
</event>
<event>
 4    1  0.4043938E+000  0.2345210E+03  0.7546771E-02  0.1123498E+00
         21   -1    0    0  501  502  0.00000000000E+00  0.00000000000E+00  0.30558480123E+03  0.30558480123E+03  0.00000000000E+00 0. -1.
         21   -1    0    0  502  503 -0.00000000000E+00 -0.00000000000E+00 -0.19491633925E+03  0.19491633925E+03  0.00000000000E+00 0. -1.
          6    1    1    2  501    0  0.14182480236E+03  0.70404786353E+02  0.12460141813E+03  0.26556660540E+03  0.17300000000E+03 0. -1.
         -6    1    1    2    0  503 -0.14182480236E+03 -0.70404786353E+02 -0.13932956152E+02  0.23493453508E+03  0.17300000000E+03 0. -1.
<mgrwt>
<rscale>  2 0.23452102E+03</rscale>
<asrwt>0</asrwt>
<pdfrwt beam="1">  1       21 0.47013046E-01 0.23452102E+03</pdfrwt>
<pdfrwt beam="2">  1       21 0.29987129E-01 0.23452102E+03</pdfrwt>
<totfact> 0.45280060E+04</totfact>
</mgrwt>
</event>
<event>
 4    1  0.4043938E+000  0.1881715E+03  0.7546771E-02  0.1160121E+00
         21   -1    0    0  503  502  0.00000000000E+00  0.00000000000E+00  0.95184710305E+03  0.95184710305E+03  0.00000000000E+00 0. -1.
         21   -1    0    0  501  503 -0.00000000000E+00 -0.00000000000E+00 -0.37764145451E+02  0.37764145451E+02  0.00000000000E+00 0. -1.
          6    1    1    2  501    0 -0.45333662319E+01  0.73884737666E+02  0.51753011275E+03  0.55067769473E+03  0.17300000000E+03 0. -1.
         -6    1    1    2    0  502  0.45333662319E+01 -0.73884737666E+02  0.39655284485E+03  0.43893355378E+03  0.17300000000E+03 0. -1.
<mgrwt>
<rscale>  2 0.18817148E+03</rscale>
<asrwt>0</asrwt>
<pdfrwt beam="1">  1       21 0.14643800E+00 0.18817148E+03</pdfrwt>
<pdfrwt beam="2">  1       21 0.58098693E-02 0.18817148E+03</pdfrwt>
<totfact> 0.66480643E+04</totfact>
</mgrwt>
</event>
<event>
 4    1  0.4043938E+000  0.1987526E+03  0.7546771E-02  0.1150796E+00
         21   -1    0    0  501  502  0.00000000000E+00  0.00000000000E+00  0.53105962842E+03  0.53105962842E+03  0.00000000000E+00 0.  1.
         21   -1    0    0  502  503 -0.00000000000E+00 -0.00000000000E+00 -0.83470769924E+02  0.83470769924E+02  0.00000000000E+00 0.  1.
          6    1    1    2  501    0 -0.96781613760E+02 -0.14384046151E+02  0.32517156916E+03  0.38110252024E+03  0.17300000000E+03 0.  1.
         -6    1    1    2    0  503  0.96781613760E+02  0.14384046151E+02  0.12241728933E+03  0.23342787810E+03  0.17300000000E+03 0.  1.
<mgrwt>
<rscale>  2 0.19875256E+03</rscale>
<asrwt>0</asrwt>
<pdfrwt beam="1">  1       21 0.81701479E-01 0.19875256E+03</pdfrwt>
<pdfrwt beam="2">  1       21 0.12841657E-01 0.19875256E+03</pdfrwt>
<totfact> 0.67950237E+04</totfact>
</mgrwt>
</event>
<event>
 4    1  0.4043938E+000  0.1966816E+03  0.7546771E-02  0.1152569E+00
         21   -1    0    0  501  502  0.00000000000E+00  0.00000000000E+00  0.21105146171E+04  0.21105146171E+04  0.00000000000E+00 0. -1.
         21   -1    0    0  502  503 -0.00000000000E+00 -0.00000000000E+00 -0.42946533817E+03  0.42946533817E+03  0.00000000000E+00 0.  1.
          6    1    1    2  501    0 -0.64392370518E+02  0.67884327569E+02  0.20831183674E+04  0.20923828024E+04  0.17300000000E+03 0. -1.
         -6    1    1    2    0  503  0.64392370518E+02 -0.67884327569E+02 -0.40206908848E+03  0.44759715283E+03  0.17300000000E+03 0.  1.
<mgrwt>
<rscale>  2 0.19668162E+03</rscale>
<asrwt>0</asrwt>
<pdfrwt beam="1">  1       21 0.32469455E+00 0.19668162E+03</pdfrwt>
<pdfrwt beam="2">  1       21 0.66071591E-01 0.19668162E+03</pdfrwt>
<totfact> 0.51337537E+01</totfact>
</mgrwt>
</event>
<event>
 4    1  0.4043938E+000  0.2381477E+03  0.7546771E-02  0.1121033E+00
         21   -1    0    0  501  502  0.00000000000E+00  0.00000000000E+00  0.51609810583E+02  0.51609810583E+02  0.00000000000E+00 0. -1.
         21   -1    0    0  502  503 -0.00000000000E+00 -0.00000000000E+00 -0.11449183257E+04  0.11449183257E+04  0.00000000000E+00 0. -1.
          6    1    1    2  501    0 -0.10157499624E+03 -0.12832718686E+03 -0.66658796910E+03  0.70785158565E+03  0.17300000000E+03 0. -1.
         -6    1    1    2    0  503  0.10157499624E+03  0.12832718686E+03 -0.42672054598E+03  0.48867655060E+03  0.17300000000E+03 0. -1.
<mgrwt>
<rscale>  2 0.23814774E+03</rscale>
<asrwt>0</asrwt>
<pdfrwt beam="1">  1       21 0.79399720E-02 0.23814774E+03</pdfrwt>
<pdfrwt beam="2">  1       21 0.17614126E+00 0.23814774E+03</pdfrwt>
<totfact> 0.22825189E+04</totfact>
</mgrwt>
</event>
<event>
 4    1  0.4043938E+000  0.1869688E+03  0.7546771E-02  0.1161224E+00
         21   -1    0    0  501  502  0.00000000000E+00  0.00000000000E+00  0.43489303451E+02  0.43489303451E+02  0.00000000000E+00 0. -1.
         21   -1    0    0  502  503 -0.00000000000E+00 -0.00000000000E+00 -0.10156400834E+04  0.10156400834E+04  0.00000000000E+00 0. -1.
          6    1    1    2  501    0  0.18718256494E+02 -0.68395476186E+02 -0.72792129937E+03  0.75154955416E+03  0.17300000000E+03 0. -1.
         -6    1    1    2    0  503 -0.18718256494E+02  0.68395476186E+02 -0.24422948056E+03  0.30757983267E+03  0.17300000000E+03 0. -1.
<mgrwt>
<rscale>  2 0.18696875E+03</rscale>
<asrwt>0</asrwt>
<pdfrwt beam="1">  1       21 0.66906622E-02 0.18696875E+03</pdfrwt>
<pdfrwt beam="2">  1       21 0.15625232E+00 0.18696875E+03</pdfrwt>
<totfact> 0.44012163E+04</totfact>
</mgrwt>
</event>
<event>
 4    1  0.4043938E+000  0.2419675E+03  0.7546771E-02  0.1118489E+00
         21   -1    0    0  501  502  0.00000000000E+00  0.00000000000E+00  0.47828887268E+03  0.47828887268E+03  0.00000000000E+00 0.  1.
         21   -1    0    0  502  503 -0.00000000000E+00 -0.00000000000E+00 -0.12520690038E+03  0.12520690038E+03  0.00000000000E+00 0.  1.
          6    1    1    2  501    0  0.46413100363E+02  0.16268093242E+03  0.22162463835E+03  0.32812458302E+03  0.17300000000E+03 0.  1.
         -6    1    1    2    0  503 -0.46413100363E+02 -0.16268093242E+03  0.13145733395E+03  0.27537119005E+03  0.17300000000E+03 0.  1.
<mgrwt>
<rscale>  2 0.24196748E+03</rscale>
<asrwt>0</asrwt>
<pdfrwt beam="1">  1       21 0.73582903E-01 0.24196748E+03</pdfrwt>
<pdfrwt beam="2">  1       21 0.19262600E-01 0.24196748E+03</pdfrwt>
<totfact> 0.40104255E+04</totfact>
</mgrwt>
</event>
<event>
 4    1  0.4043938E+000  0.2845490E+03  0.7546771E-02  0.1093230E+00
         21   -1    0    0  501  502  0.00000000000E+00  0.00000000000E+00  0.27116973219E+03  0.27116973219E+03  0.00000000000E+00 0. -1.
         21   -1    0    0  502  503 -0.00000000000E+00 -0.00000000000E+00 -0.45770960971E+03  0.45770960971E+03  0.00000000000E+00 0.  1.
          6    1    1    2  501    0 -0.74964831218E+02 -0.21311827505E+03  0.12160943207E+03  0.30944624582E+03  0.17300000000E+03 0. -1.
         -6    1    1    2    0  503  0.74964831218E+02  0.21311827505E+03 -0.30814930959E+03  0.41943309608E+03  0.17300000000E+03 0.  1.
<mgrwt>
<rscale>  2 0.28454899E+03</rscale>
<asrwt>0</asrwt>
<pdfrwt beam="1">  1       21 0.41718421E-01 0.28454899E+03</pdfrwt>
<pdfrwt beam="2">  1       21 0.70416862E-01 0.28454899E+03</pdfrwt>
<totfact> 0.95854705E+03</totfact>
</mgrwt>
</event>
<event>
 4    1  0.4043938E+000  0.1896123E+03  0.7546771E-02  0.1158812E+00
         21   -1    0    0  501  502  0.00000000000E+00  0.00000000000E+00  0.13571316654E+03  0.13571316654E+03  0.00000000000E+00 0. -1.
         21   -1    0    0  502  503 -0.00000000000E+00 -0.00000000000E+00 -0.33307919354E+03  0.33307919354E+03  0.00000000000E+00 0.  1.
          6    1    1    2  501    0 -0.61670255274E+02  0.47123086322E+02  0.73513568659E+01  0.18975470507E+03  0.17300000000E+03 0. -1.
         -6    1    1    2    0  503  0.61670255274E+02 -0.47123086322E+02 -0.20471738387E+03  0.27903765500E+03  0.17300000000E+03 0.  1.
<mgrwt>
<rscale>  2 0.18961225E+03</rscale>
<asrwt>0</asrwt>
<pdfrwt beam="1">  1       21 0.20878949E-01 0.18961225E+03</pdfrwt>
<pdfrwt beam="2">  1       21 0.51242952E-01 0.18961225E+03</pdfrwt>
<totfact> 0.77193977E+04</totfact>
</mgrwt>
</event>
<event>
 4    1  0.4043938E+000  0.1851743E+03  0.7546771E-02  0.1162887E+00
         21   -1    0    0  503  502  0.00000000000E+00  0.00000000000E+00  0.32887879127E+02  0.32887879127E+02  0.00000000000E+00 0. -1.
         21   -1    0    0  501  503 -0.00000000000E+00 -0.00000000000E+00 -0.10577354657E+04  0.10577354657E+04  0.00000000000E+00 0. -1.
          6    1    1    2  501    0  0.65344632292E+02  0.95192010441E+01 -0.57761329693E+03  0.60656958130E+03  0.17300000000E+03 0. -1.
         -6    1    1    2    0  502 -0.65344632292E+02 -0.95192010441E+01 -0.44723428962E+03  0.48405376351E+03  0.17300000000E+03 0. -1.
<mgrwt>
<rscale>  2 0.18517434E+03</rscale>
<asrwt>0</asrwt>
<pdfrwt beam="1">  1       21 0.50596737E-02 0.18517434E+03</pdfrwt>
<pdfrwt beam="2">  1       21 0.16272853E+00 0.18517434E+03</pdfrwt>
<totfact> 0.63649816E+04</totfact>
</mgrwt>
</event>
<event>
 4    1  0.4043938E+000  0.1892836E+03  0.7546771E-02  0.1159109E+00
         21   -1    0    0  501  502  0.00000000000E+00  0.00000000000E+00  0.26274892865E+02  0.26274892865E+02  0.00000000000E+00 0.  1.
         21   -1    0    0  502  503 -0.00000000000E+00 -0.00000000000E+00 -0.14968192264E+04  0.14968192264E+04  0.00000000000E+00 0.  1.
          6    1    1    2  501    0 -0.61967499782E+02  0.45379714425E+02 -0.96247047911E+03  0.98090657694E+03  0.17300000000E+03 0. -1.
         -6    1    1    2    0  503  0.61967499782E+02 -0.45379714425E+02 -0.50807385441E+03  0.54218754232E+03  0.17300000000E+03 0. -1.
<mgrwt>
<rscale>  2 0.18928362E+03</rscale>
<asrwt>0</asrwt>
<pdfrwt beam="1">  1       21 0.40422895E-02 0.18928362E+03</pdfrwt>
<pdfrwt beam="2">  1       21 0.23027998E+00 0.18928362E+03</pdfrwt>
<totfact> 0.33626453E+04</totfact>
</mgrwt>
</event>
<event>
 4    1  0.4043938E+000  0.2286491E+03  0.7546771E-02  0.1127594E+00
         21   -1    0    0  501  502  0.00000000000E+00  0.00000000000E+00  0.10917673251E+04  0.10917673251E+04  0.00000000000E+00 0. -1.
         21   -1    0    0  502  503 -0.00000000000E+00 -0.00000000000E+00 -0.54886977883E+02  0.54886977883E+02  0.00000000000E+00 0.  1.
          6    1    1    2  501    0  0.29485366996E+02  0.14656740859E+03  0.72320086058E+03  0.75848525159E+03  0.17300000000E+03 0.  1.
         -6    1    1    2    0  503 -0.29485366996E+02 -0.14656740859E+03  0.31367948663E+03  0.38816905139E+03  0.17300000000E+03 0.  1.
<mgrwt>
<rscale>  2 0.22864906E+03</rscale>
<asrwt>0</asrwt>
<pdfrwt beam="1">  1       21 0.16796419E+00 0.22864906E+03</pdfrwt>
<pdfrwt beam="2">  1       21 0.84441513E-02 0.22864906E+03</pdfrwt>
<totfact> 0.23530602E+04</totfact>
</mgrwt>
</event>
<event>
 4    1  0.4043938E+000  0.2287724E+03  0.7546771E-02  0.1127507E+00
         21   -1    0    0  503  502  0.00000000000E+00  0.00000000000E+00  0.41519483540E+03  0.41519483540E+03  0.00000000000E+00 0. -1.
         21   -1    0    0  501  503 -0.00000000000E+00 -0.00000000000E+00 -0.32354912437E+03  0.32354912437E+03  0.00000000000E+00 0.  1.
          6    1    1    2  501    0  0.68734701392E+02 -0.13297869996E+03 -0.24276130352E+03  0.33357134815E+03  0.17300000000E+03 0. -1.
         -6    1    1    2    0  502 -0.68734701392E+02  0.13297869996E+03  0.33440701456E+03  0.40517261161E+03  0.17300000000E+03 0. -1.
<mgrwt>
<rscale>  2 0.22877236E+03</rscale>
<asrwt>0</asrwt>
<pdfrwt beam="1">  1       21 0.63876129E-01 0.22877236E+03</pdfrwt>
<pdfrwt beam="2">  1       21 0.49776788E-01 0.22877236E+03</pdfrwt>
<totfact> 0.84970305E+03</totfact>
</mgrwt>
</event>
<event>
 4    1  0.4043938E+000  0.2024757E+03  0.7546771E-02  0.1147667E+00
         21   -1    0    0  501  502  0.00000000000E+00  0.00000000000E+00  0.99790764726E+02  0.99790764726E+02  0.00000000000E+00 0. -1.
         21   -1    0    0  502  503 -0.00000000000E+00 -0.00000000000E+00 -0.45486235846E+03  0.45486235846E+03  0.00000000000E+00 0.  1.
          6    1    1    2  501    0 -0.80183436154E+02 -0.68102905490E+02 -0.26382761036E+03  0.33256788353E+03  0.17300000000E+03 0.  1.
         -6    1    1    2    0  503  0.80183436154E+02  0.68102905490E+02 -0.91243983375E+02  0.22208523965E+03  0.17300000000E+03 0. -1.
<mgrwt>
<rscale>  2 0.20247565E+03</rscale>
<asrwt>0</asrwt>
<pdfrwt beam="1">  1       21 0.15352425E-01 0.20247565E+03</pdfrwt>
<pdfrwt beam="2">  1       21 0.69978825E-01 0.20247565E+03</pdfrwt>
<totfact> 0.69408830E+04</totfact>
</mgrwt>
</event>
<event>
 4    1  0.4043938E+000  0.1769314E+03  0.7546771E-02  0.1170806E+00
         21   -1    0    0  503  502  0.00000000000E+00  0.00000000000E+00  0.16321942786E+03  0.16321942786E+03  0.00000000000E+00 0. -1.
         21   -1    0    0  501  503 -0.00000000000E+00 -0.00000000000E+00 -0.27827591716E+03  0.27827591716E+03  0.00000000000E+00 0. -1.
          6    1    1    2  501    0  0.25891453223E+02  0.26558776433E+02 -0.18058839834E+03  0.25281792969E+03  0.17300000000E+03 0. -1.
         -6    1    1    2    0  502 -0.25891453223E+02 -0.26558776433E+02  0.65531909043E+02  0.18867741534E+03  0.17300000000E+03 0. -1.
<mgrwt>
<rscale>  2 0.17693144E+03</rscale>
<asrwt>0</asrwt>
<pdfrwt beam="1">  1       21 0.25110681E-01 0.17693144E+03</pdfrwt>
<pdfrwt beam="2">  1       21 0.42811680E-01 0.17693144E+03</pdfrwt>
<totfact> 0.79326529E+04</totfact>
</mgrwt>
</event>
<event>
 4    1  0.4043938E+000  0.2159420E+03  0.7546771E-02  0.1136945E+00
         21   -1    0    0  503  502  0.00000000000E+00  0.00000000000E+00  0.19972489235E+03  0.19972489235E+03  0.00000000000E+00 0.  1.
         21   -1    0    0  501  503 -0.00000000000E+00 -0.00000000000E+00 -0.31020189270E+03  0.31020189270E+03  0.00000000000E+00 0. -1.
          6    1    1    2  501    0 -0.11546751402E+03 -0.58044662210E+02 -0.18204080290E+03  0.28243545019E+03  0.17300000000E+03 0. -1.
         -6    1    1    2    0  502  0.11546751402E+03  0.58044662210E+02  0.71563802545E+02  0.22749133487E+03  0.17300000000E+03 0.  1.
<mgrwt>
<rscale>  2 0.21594196E+03</rscale>
<asrwt>0</asrwt>
<pdfrwt beam="1">  1       21 0.30726907E-01 0.21594196E+03</pdfrwt>
<pdfrwt beam="2">  1       21 0.47723368E-01 0.21594196E+03</pdfrwt>
<totfact> 0.42198996E+04</totfact>
</mgrwt>
</event>
<event>
 4    1  0.4043938E+000  0.2198331E+03  0.7546771E-02  0.1134008E+00
         21   -1    0    0  503  502  0.00000000000E+00  0.00000000000E+00  0.16566120961E+04  0.16566120961E+04  0.00000000000E+00 0. -1.
         21   -1    0    0  501  503 -0.00000000000E+00 -0.00000000000E+00 -0.33798188889E+02  0.33798188889E+02  0.00000000000E+00 0. -1.
          6    1    1    2  501    0  0.13141333853E+03 -0.33587686140E+02  0.49870568495E+03  0.54500821865E+03  0.17300000000E+03 0. -1.
         -6    1    1    2    0  502 -0.13141333853E+03  0.33587686140E+02  0.11241082223E+04  0.11454020664E+04  0.17300000000E+03 0. -1.
<mgrwt>
<rscale>  2 0.21983311E+03</rscale>
<asrwt>0</asrwt>
<pdfrwt beam="1">  1       21 0.25486334E+00 0.21983311E+03</pdfrwt>
<pdfrwt beam="2">  1       21 0.51997227E-02 0.21983311E+03</pdfrwt>
<totfact> 0.15302621E+04</totfact>
</mgrwt>
</event>
<event>
 4    1  0.4043938E+000  0.1870641E+03  0.7546771E-02  0.1161136E+00
         21   -1    0    0  503  502  0.00000000000E+00  0.00000000000E+00  0.77092050637E+02  0.77092050637E+02  0.00000000000E+00 0.  1.
         21   -1    0    0  501  503 -0.00000000000E+00 -0.00000000000E+00 -0.49705911296E+03  0.49705911296E+03  0.00000000000E+00 0.  1.
          6    1    1    2  501    0 -0.51872350736E+02 -0.48715754621E+02 -0.29456413959E+03  0.34894268562E+03  0.17300000000E+03 0.  1.
         -6    1    1    2    0  502  0.51872350736E+02  0.48715754621E+02 -0.12540292273E+03  0.22520847797E+03  0.17300000000E+03 0.  1.
<mgrwt>
<rscale>  2 0.18706407E+03</rscale>
<asrwt>0</asrwt>
<pdfrwt beam="1">  1       21 0.11860315E-01 0.18706407E+03</pdfrwt>
<pdfrwt beam="2">  1       21 0.76470634E-01 0.18706407E+03</pdfrwt>
<totfact> 0.91429606E+04</totfact>
</mgrwt>
</event>
<event>
 4    1  0.4043938E+000  0.4100689E+03  0.7546771E-02  0.1040348E+00
         21   -1    0    0  503  502  0.00000000000E+00  0.00000000000E+00  0.27512913001E+03  0.27512913001E+03  0.00000000000E+00 0. -1.
         21   -1    0    0  501  503 -0.00000000000E+00 -0.00000000000E+00 -0.77027527272E+03  0.77027527272E+03  0.00000000000E+00 0.  1.
          6    1    1    2  501    0  0.36844229380E+03 -0.49777058397E+02 -0.48511748363E+03  0.63521291889E+03  0.17300000000E+03 0. -1.
         -6    1    1    2    0  502 -0.36844229380E+03  0.49777058397E+02 -0.10028659076E+02  0.41019148383E+03  0.17300000000E+03 0. -1.
<mgrwt>
<rscale>  2 0.41006887E+03</rscale>
<asrwt>0</asrwt>
<pdfrwt beam="1">  1       21 0.42327559E-01 0.41006887E+03</pdfrwt>
<pdfrwt beam="2">  1       21 0.11850389E+00 0.41006887E+03</pdfrwt>
<totfact> 0.25694812E+03</totfact>
</mgrwt>
</event>
<event>
 4    1  0.4043938E+000  0.2095844E+03  0.7546771E-02  0.1141896E+00
         21   -1    0    0  501  502  0.00000000000E+00  0.00000000000E+00  0.35889287192E+03  0.35889287192E+03  0.00000000000E+00 0.  1.
         21   -1    0    0  502  503 -0.00000000000E+00 -0.00000000000E+00 -0.24524146712E+03  0.24524146712E+03  0.00000000000E+00 0.  1.
          6    1    1    2  501    0 -0.91494299795E+02  0.75002689956E+02  0.27061858417E+03  0.34228647139E+03  0.17300000000E+03 0.  1.
         -6    1    1    2    0  503  0.91494299795E+02 -0.75002689956E+02 -0.15696717937E+03  0.26184786766E+03  0.17300000000E+03 0.  1.
<mgrwt>
<rscale>  2 0.20958438E+03</rscale>
<asrwt>0</asrwt>
<pdfrwt beam="1">  1       21 0.55214288E-01 0.20958438E+03</pdfrwt>
<pdfrwt beam="2">  1       21 0.37729457E-01 0.20958438E+03</pdfrwt>
<totfact> 0.20750449E+04</totfact>
</mgrwt>
</event>
<event>
 4    1  0.4043938E+000  0.1916272E+03  0.7546771E-02  0.1157002E+00
         21   -1    0    0  503  502  0.00000000000E+00  0.00000000000E+00  0.13548471996E+04  0.13548471996E+04  0.00000000000E+00 0. -1.
         21   -1    0    0  501  503 -0.00000000000E+00 -0.00000000000E+00 -0.34970025558E+02  0.34970025558E+02  0.00000000000E+00 0. -1.
          6    1    1    2  501    0  0.71131150396E+02  0.41621615213E+02  0.33034916125E+03  0.38190518162E+03  0.17300000000E+03 0. -1.
         -6    1    1    2    0  502 -0.71131150396E+02 -0.41621615213E+02  0.98952801282E+03  0.10079120436E+04  0.17300000000E+03 0. -1.
<mgrwt>
<rscale>  2 0.19162724E+03</rscale>
<asrwt>0</asrwt>
<pdfrwt beam="1">  1       21 0.20843799E+00 0.19162724E+03</pdfrwt>
<pdfrwt beam="2">  1       21 0.53800050E-02 0.19162724E+03</pdfrwt>
<totfact> 0.28212389E+04</totfact>
</mgrwt>
</event>
<event>
 4    1  0.4043938E+000  0.2449658E+03  0.7546771E-02  0.1116528E+00
         21   -1    0    0  501  502  0.00000000000E+00  0.00000000000E+00  0.19503146870E+03  0.19503146870E+03  0.00000000000E+00 0.  1.
         21   -1    0    0  502  503 -0.00000000000E+00 -0.00000000000E+00 -0.31807159743E+03  0.31807159743E+03  0.00000000000E+00 0.  1.
          6    1    1    2  501    0 -0.13123048668E+03  0.11339225663E+03 -0.15159340666E+02  0.24543441101E+03  0.17300000000E+03 0.  1.
         -6    1    1    2    0  503  0.13123048668E+03 -0.11339225663E+03 -0.10788078807E+03  0.26766865512E+03  0.17300000000E+03 0.  1.
<mgrwt>
<rscale>  2 0.24496580E+03</rscale>
<asrwt>0</asrwt>
<pdfrwt beam="1">  1       21 0.30004841E-01 0.24496580E+03</pdfrwt>
<pdfrwt beam="2">  1       21 0.48934092E-01 0.24496580E+03</pdfrwt>
<totfact> 0.41422796E+04</totfact>
</mgrwt>
</event>
<event>
 4    1  0.4043938E+000  0.1971655E+03  0.7546771E-02  0.1152153E+00
         21   -1    0    0  503  502  0.00000000000E+00  0.00000000000E+00  0.20385271287E+02  0.20385271287E+02  0.00000000000E+00 0. -1.
         21   -1    0    0  501  503 -0.00000000000E+00 -0.00000000000E+00 -0.19284582152E+04  0.19284582152E+04  0.00000000000E+00 0. -1.
          6    1    1    2  501    0 -0.71105990157E+02 -0.62363182633E+02 -0.10568804246E+04  0.10751141616E+04  0.17300000000E+03 0. -1.
         -6    1    1    2    0  502  0.71105990157E+02  0.62363182633E+02 -0.85119251928E+03  0.87372932494E+03  0.17300000000E+03 0. -1.
<mgrwt>
<rscale>  2 0.19716548E+03</rscale>
<asrwt>0</asrwt>
<pdfrwt beam="1">  1       21 0.31361951E-02 0.19716548E+03</pdfrwt>
<pdfrwt beam="2">  1       21 0.29668593E+00 0.19716548E+03</pdfrwt>
<totfact> 0.20875623E+04</totfact>
</mgrwt>
</event>
<event>
 4    1  0.4043938E+000  0.1880718E+03  0.7546771E-02  0.1160212E+00
         21   -1    0    0  503  502  0.00000000000E+00  0.00000000000E+00  0.50309043167E+03  0.50309043167E+03  0.00000000000E+00 0. -1.
         21   -1    0    0  501  503 -0.00000000000E+00 -0.00000000000E+00 -0.91125531496E+02  0.91125531496E+02  0.00000000000E+00 0. -1.
          6    1    1    2  501    0 -0.51287870815E+02  0.53023954352E+02  0.63973718814E+02  0.19865452959E+03  0.17300000000E+03 0. -1.
         -6    1    1    2    0  502  0.51287870815E+02 -0.53023954352E+02  0.34799118136E+03  0.39556143358E+03  0.17300000000E+03 0. -1.
<mgrwt>
<rscale>  2 0.18807176E+03</rscale>
<asrwt>0</asrwt>
<pdfrwt beam="1">  1       21 0.77398526E-01 0.18807176E+03</pdfrwt>
<pdfrwt beam="2">  1       21 0.14019313E-01 0.18807176E+03</pdfrwt>
<totfact> 0.65852768E+04</totfact>
</mgrwt>
</event>
<event>
 4    1  0.4043938E+000  0.1787010E+03  0.7546771E-02  0.1169066E+00
         21   -1    0    0  501  502  0.00000000000E+00  0.00000000000E+00  0.26445295351E+03  0.26445295351E+03  0.00000000000E+00 0.  1.
         21   -1    0    0  502  503 -0.00000000000E+00 -0.00000000000E+00 -0.15749417777E+03  0.15749417777E+03  0.00000000000E+00 0.  1.
          6    1    1    2  501    0 -0.42374051172E+02  0.14473521948E+02  0.15537603920E+03  0.23680320227E+03  0.17300000000E+03 0.  1.
         -6    1    1    2    0  503  0.42374051172E+02 -0.14473521948E+02 -0.48417263453E+02  0.18514392901E+03  0.17300000000E+03 0.  1.
<mgrwt>
<rscale>  2 0.17870099E+03</rscale>
<asrwt>0</asrwt>
<pdfrwt beam="1">  1       21 0.40685070E-01 0.17870099E+03</pdfrwt>
<pdfrwt beam="2">  1       21 0.24229873E-01 0.17870099E+03</pdfrwt>
<totfact> 0.94077700E+04</totfact>
</mgrwt>
</event>
<event>
 4    1  0.4043938E+000  0.1837838E+03  0.7546771E-02  0.1164190E+00
         21   -1    0    0  503  502  0.00000000000E+00  0.00000000000E+00  0.87799158469E+03  0.87799158469E+03  0.00000000000E+00 0. -1.
         21   -1    0    0  501  503 -0.00000000000E+00 -0.00000000000E+00 -0.56271680650E+02  0.56271680650E+02  0.00000000000E+00 0. -1.
          6    1    1    2  501    0  0.39650509633E+02 -0.47700415418E+02  0.67359781659E+03  0.69821952927E+03  0.17300000000E+03 0. -1.
         -6    1    1    2    0  502 -0.39650509633E+02  0.47700415418E+02  0.14812208745E+03  0.23604373607E+03  0.17300000000E+03 0. -1.
<mgrwt>
<rscale>  2 0.18378382E+03</rscale>
<asrwt>0</asrwt>
<pdfrwt beam="1">  1       21 0.13507562E+00 0.18378382E+03</pdfrwt>
<pdfrwt beam="2">  1       21 0.86571823E-02 0.18378382E+03</pdfrwt>
<totfact> 0.41220265E+04</totfact>
</mgrwt>
</event>
<event>
 4    1  0.4043938E+000  0.2256776E+03  0.7546771E-02  0.1129720E+00
         21   -1    0    0  501  502  0.00000000000E+00  0.00000000000E+00  0.24798892468E+03  0.24798892468E+03  0.00000000000E+00 0. -1.
         21   -1    0    0  502  503 -0.00000000000E+00 -0.00000000000E+00 -0.21516833622E+03  0.21516833622E+03  0.00000000000E+00 0. -1.
          6    1    1    2  501    0  0.49933255129E+02 -0.13604424545E+03  0.65819366994E+02  0.23507989229E+03  0.17300000000E+03 0. -1.
         -6    1    1    2    0  503 -0.49933255129E+02  0.13604424545E+03 -0.32998778530E+02  0.22807736861E+03  0.17300000000E+03 0. -1.
<mgrwt>
<rscale>  2 0.22567757E+03</rscale>
<asrwt>0</asrwt>
<pdfrwt beam="1">  1       21 0.38152142E-01 0.22567757E+03</pdfrwt>
<pdfrwt beam="2">  1       21 0.33102821E-01 0.22567757E+03</pdfrwt>
<totfact> 0.57351927E+04</totfact>
</mgrwt>
</event>
<event>
 4    1  0.4043938E+000  0.1794333E+03  0.7546771E-02  0.1168353E+00
         21   -1    0    0  503  502  0.00000000000E+00  0.00000000000E+00  0.94496580229E+02  0.94496580229E+02  0.00000000000E+00 0. -1.
         21   -1    0    0  501  503 -0.00000000000E+00 -0.00000000000E+00 -0.37535248252E+03  0.37535248252E+03  0.00000000000E+00 0. -1.
          6    1    1    2  501    0  0.32832480593E+02 -0.34486942942E+02 -0.21179328099E+03  0.27758370789E+03  0.17300000000E+03 0. -1.
         -6    1    1    2    0  502 -0.32832480593E+02  0.34486942942E+02 -0.69062621296E+02  0.19226535485E+03  0.17300000000E+03 0. -1.
<mgrwt>
<rscale>  2 0.17943333E+03</rscale>
<asrwt>0</asrwt>
<pdfrwt beam="1">  1       21 0.14537935E-01 0.17943333E+03</pdfrwt>
<pdfrwt beam="2">  1       21 0.57746536E-01 0.17943333E+03</pdfrwt>
<totfact> 0.11734727E+05</totfact>
</mgrwt>
</event>
<event>
 4    1  0.4043938E+000  0.2147189E+03  0.7546771E-02  0.1137883E+00
         21   -1    0    0  503  502  0.00000000000E+00  0.00000000000E+00  0.93180024008E+03  0.93180024008E+03  0.00000000000E+00 0. -1.
         21   -1    0    0  501  503 -0.00000000000E+00 -0.00000000000E+00 -0.69373355207E+02  0.69373355207E+02  0.00000000000E+00 0.  1.
          6    1    1    2  501    0  0.10155624873E+03  0.76560530301E+02  0.16314100401E+03  0.26966492847E+03  0.17300000000E+03 0.  1.
         -6    1    1    2    0  502 -0.10155624873E+03 -0.76560530301E+02  0.69928588087E+03  0.73150866682E+03  0.17300000000E+03 0. -1.
<mgrwt>
<rscale>  2 0.21471885E+03</rscale>
<asrwt>0</asrwt>
<pdfrwt beam="1">  1       21 0.14335387E+00 0.21471885E+03</pdfrwt>
<pdfrwt beam="2">  1       21 0.10672825E-01 0.21471885E+03</pdfrwt>
<totfact> 0.23997827E+04</totfact>
</mgrwt>
</event>
<event>
 4    1  0.4043938E+000  0.1892255E+03  0.7546771E-02  0.1159162E+00
         21   -1    0    0  501  502  0.00000000000E+00  0.00000000000E+00  0.24921719459E+03  0.24921719459E+03  0.00000000000E+00 0.  1.
         21   -1    0    0  502  503 -0.00000000000E+00 -0.00000000000E+00 -0.14404318427E+03  0.14404318427E+03  0.00000000000E+00 0.  1.
          6    1    1    2  501    0  0.64370140002E+02  0.41638445808E+02  0.62528440466E+02  0.19928893838E+03  0.17300000000E+03 0. -1.
         -6    1    1    2    0  503 -0.64370140002E+02 -0.41638445808E+02  0.42645569860E+02  0.19397144048E+03  0.17300000000E+03 0. -1.
<mgrwt>
<rscale>  2 0.18922546E+03</rscale>
<asrwt>0</asrwt>
<pdfrwt beam="1">  1       21 0.38341107E-01 0.18922546E+03</pdfrwt>
<pdfrwt beam="2">  1       21 0.22160490E-01 0.18922546E+03</pdfrwt>
<totfact> 0.12505348E+05</totfact>
</mgrwt>
</event>
<event>
 4    1  0.4043938E+000  0.1813553E+03  0.7546771E-02  0.1166498E+00
         21   -1    0    0  501  502  0.00000000000E+00  0.00000000000E+00  0.19649494852E+03  0.19649494852E+03  0.00000000000E+00 0. -1.
         21   -1    0    0  502  503 -0.00000000000E+00 -0.00000000000E+00 -0.17261979752E+03  0.17261979752E+03  0.00000000000E+00 0. -1.
          6    1    1    2  501    0 -0.56415885135E+01  0.54119497768E+02 -0.20210435132E+02  0.18247796921E+03  0.17300000000E+03 0. -1.
         -6    1    1    2    0  503  0.56415885135E+01 -0.54119497768E+02  0.44085586127E+02  0.18663677683E+03  0.17300000000E+03 0. -1.
<mgrwt>
<rscale>  2 0.18135531E+03</rscale>
<asrwt>0</asrwt>
<pdfrwt beam="1">  1       21 0.30229992E-01 0.18135531E+03</pdfrwt>
<pdfrwt beam="2">  1       21 0.26556892E-01 0.18135531E+03</pdfrwt>
<totfact> 0.14217102E+05</totfact>
</mgrwt>
</event>
<event>
 4    1  0.4043938E+000  0.1818414E+03  0.7546771E-02  0.1166033E+00
         21   -1    0    0  503  502  0.00000000000E+00  0.00000000000E+00  0.34965791400E+03  0.34965791400E+03  0.00000000000E+00 0.  1.
         21   -1    0    0  501  503 -0.00000000000E+00 -0.00000000000E+00 -0.10159639608E+03  0.10159639608E+03  0.00000000000E+00 0.  1.
          6    1    1    2  501    0 -0.27988034276E+02  0.48517565931E+02  0.64684282457E+02  0.19300347319E+03  0.17300000000E+03 0.  1.
         -6    1    1    2    0  502  0.27988034276E+02 -0.48517565931E+02  0.18337723546E+03  0.25825083688E+03  0.17300000000E+03 0.  1.
<mgrwt>
<rscale>  2 0.18184137E+03</rscale>
<asrwt>0</asrwt>
<pdfrwt beam="1">  1       21 0.53793525E-01 0.18184137E+03</pdfrwt>
<pdfrwt beam="2">  1       21 0.15630215E-01 0.18184137E+03</pdfrwt>
<totfact> 0.11941409E+05</totfact>
</mgrwt>
</event>
<event>
 4    1  0.4043938E+000  0.1763278E+03  0.7546771E-02  0.1171405E+00
         21   -1    0    0  503  502  0.00000000000E+00  0.00000000000E+00  0.50991127002E+03  0.50991127002E+03  0.00000000000E+00 0. -1.
         21   -1    0    0  501  503 -0.00000000000E+00 -0.00000000000E+00 -0.60974495316E+02  0.60974495316E+02  0.00000000000E+00 0.  1.
          6    1    1    2  501    0 -0.32258194150E+02 -0.11041093252E+02  0.22399499641E+03  0.28507061450E+03  0.17300000000E+03 0.  1.
         -6    1    1    2    0  502  0.32258194150E+02  0.11041093252E+02  0.22494177829E+03  0.28581515084E+03  0.17300000000E+03 0.  1.
<mgrwt>
<rscale>  2 0.17632781E+03</rscale>
<asrwt>0</asrwt>
<pdfrwt beam="1">  1       21 0.78447885E-01 0.17632781E+03</pdfrwt>
<pdfrwt beam="2">  1       21 0.93806919E-02 0.17632781E+03</pdfrwt>
<totfact> 0.13133333E+05</totfact>
</mgrwt>
</event>
<event>
 4    1  0.4043938E+000  0.1828049E+03  0.7546771E-02  0.1165116E+00
         21   -1    0    0  503  502  0.00000000000E+00  0.00000000000E+00  0.98782414314E+02  0.98782414314E+02  0.00000000000E+00 0.  1.
         21   -1    0    0  501  503 -0.00000000000E+00 -0.00000000000E+00 -0.52897801416E+03  0.52897801416E+03  0.00000000000E+00 0.  1.
          6    1    1    2  501    0 -0.34620765384E+02 -0.47854160096E+02 -0.40354986001E+03  0.44302382278E+03  0.17300000000E+03 0.  1.
         -6    1    1    2    0  502  0.34620765384E+02  0.47854160096E+02 -0.26645739840E+02  0.18473660570E+03  0.17300000000E+03 0.  1.
<mgrwt>
<rscale>  2 0.18280486E+03</rscale>
<asrwt>0</asrwt>
<pdfrwt beam="1">  1       21 0.15197294E-01 0.18280486E+03</pdfrwt>
<pdfrwt beam="2">  1       21 0.81381235E-01 0.18280486E+03</pdfrwt>
<totfact> 0.50921271E+04</totfact>
</mgrwt>
</event>
<event>
 4    1  0.4043938E+000  0.7257385E+03  0.7546771E-02  0.9674201E-01
         21   -1    0    0  501  502  0.00000000000E+00  0.00000000000E+00  0.97391248013E+03  0.97391248013E+03  0.00000000000E+00 0.  1.
         21   -1    0    0  502  503 -0.00000000000E+00 -0.00000000000E+00 -0.54085171287E+03  0.54085171287E+03  0.00000000000E+00 0. -1.
          6    1    1    2  501    0  0.10423344648E+03 -0.69706728043E+03  0.20946586409E+03  0.75536239847E+03  0.17300000000E+03 0.  1.
         -6    1    1    2    0  503 -0.10423344648E+03  0.69706728043E+03  0.22359490318E+03  0.75940179453E+03  0.17300000000E+03 0. -1.
<mgrwt>
<rscale>  2 0.72573852E+03</rscale>
<asrwt>0</asrwt>
<pdfrwt beam="1">  1       21 0.14983269E+00 0.72573852E+03</pdfrwt>
<pdfrwt beam="2">  1       21 0.83207956E-01 0.72573852E+03</pdfrwt>
<totfact> 0.28041997E+02</totfact>
</mgrwt>
</event>
<event>
 4    1  0.4043938E+000  0.2404507E+03  0.7546771E-02  0.1119493E+00
         21   -1    0    0  503  502  0.00000000000E+00  0.00000000000E+00  0.16779980577E+03  0.16779980577E+03  0.00000000000E+00 0.  1.
         21   -1    0    0  501  503 -0.00000000000E+00 -0.00000000000E+00 -0.35480298147E+03  0.35480298147E+03  0.00000000000E+00 0. -1.
          6    1    1    2  501    0 -0.16635840091E+03  0.14575240483E+02 -0.13790642128E+03  0.27719079389E+03  0.17300000000E+03 0. -1.
         -6    1    1    2    0  502  0.16635840091E+03 -0.14575240483E+02 -0.49096754424E+02  0.24541199336E+03  0.17300000000E+03 0. -1.
<mgrwt>
<rscale>  2 0.24045073E+03</rscale>
<asrwt>0</asrwt>
<pdfrwt beam="1">  1       21 0.25815355E-01 0.24045073E+03</pdfrwt>
<pdfrwt beam="2">  1       21 0.54585073E-01 0.24045073E+03</pdfrwt>
<totfact> 0.44149666E+04</totfact>
</mgrwt>
</event>
<event>
 4    1  0.4043938E+000  0.2757691E+03  0.7546771E-02  0.1098022E+00
         21   -1    0    0  501  502  0.00000000000E+00  0.00000000000E+00  0.31561163815E+03  0.31561163815E+03  0.00000000000E+00 0.  1.
         21   -1    0    0  502  503 -0.00000000000E+00 -0.00000000000E+00 -0.24223467307E+03  0.24223467307E+03  0.00000000000E+00 0.  1.
          6    1    1    2  501    0  0.21450802266E+03 -0.10290544850E+02  0.16425240660E+02  0.27625780646E+03  0.17300000000E+03 0.  1.
         -6    1    1    2    0  503 -0.21450802266E+03  0.10290544850E+02  0.56951724421E+02  0.28158850476E+03  0.17300000000E+03 0.  1.
<mgrwt>
<rscale>  2 0.27576908E+03</rscale>
<asrwt>0</asrwt>
<pdfrwt beam="1">  1       21 0.48555637E-01 0.27576908E+03</pdfrwt>
<pdfrwt beam="2">  1       21 0.37266873E-01 0.27576908E+03</pdfrwt>
<totfact> 0.27012980E+04</totfact>
</mgrwt>
</event>
<event>
 4    1  0.4043938E+000  0.1847847E+03  0.7546771E-02  0.1163251E+00
         21   -1    0    0  503  502  0.00000000000E+00  0.00000000000E+00  0.69798488582E+03  0.69798488582E+03  0.00000000000E+00 0.  1.
         21   -1    0    0  501  503 -0.00000000000E+00 -0.00000000000E+00 -0.49133224544E+02  0.49133224544E+02  0.00000000000E+00 0. -1.
          6    1    1    2  501    0  0.50406531170E+02 -0.40933848223E+02  0.34903646258E+03  0.39493271645E+03  0.17300000000E+03 0. -1.
         -6    1    1    2    0  502 -0.50406531170E+02  0.40933848223E+02  0.29981519870E+03  0.35218539392E+03  0.17300000000E+03 0. -1.
<mgrwt>
<rscale>  2 0.18478474E+03</rscale>
<asrwt>0</asrwt>
<pdfrwt beam="1">  1       21 0.10738228E+00 0.18478474E+03</pdfrwt>
<pdfrwt beam="2">  1       21 0.75589581E-02 0.18478474E+03</pdfrwt>
<totfact> 0.91980192E+04</totfact>
</mgrwt>
</event>
<event>
 4    1  0.4043938E+000  0.2067392E+03  0.7546771E-02  0.1144175E+00
         21   -1    0    0  503  502  0.00000000000E+00  0.00000000000E+00  0.25875804011E+03  0.25875804011E+03  0.00000000000E+00 0.  1.
         21   -1    0    0  501  503 -0.00000000000E+00 -0.00000000000E+00 -0.17037171540E+03  0.17037171540E+03  0.00000000000E+00 0. -1.
          6    1    1    2  501    0  0.68510784497E+02 -0.90102035218E+02  0.67300373305E+01  0.20684873155E+03  0.17300000000E+03 0. -1.
         -6    1    1    2    0  502 -0.68510784497E+02  0.90102035218E+02  0.81656287373E+02  0.22228102395E+03  0.17300000000E+03 0.  1.
<mgrwt>
<rscale>  2 0.20673922E+03</rscale>
<asrwt>0</asrwt>
<pdfrwt beam="1">  1       21 0.39808929E-01 0.20673922E+03</pdfrwt>
<pdfrwt beam="2">  1       21 0.26211033E-01 0.20673922E+03</pdfrwt>
<totfact> 0.83649747E+04</totfact>
</mgrwt>
</event>
<event>
 4    1  0.4043938E+000  0.1816528E+03  0.7546771E-02  0.1166213E+00
         21   -1    0    0  501  502  0.00000000000E+00  0.00000000000E+00  0.83097412064E+02  0.83097412064E+02  0.00000000000E+00 0. -1.
         21   -1    0    0  502  503 -0.00000000000E+00 -0.00000000000E+00 -0.50592422703E+03  0.50592422703E+03  0.00000000000E+00 0.  1.
          6    1    1    2  501    0  0.12902194725E+02 -0.53872861815E+02 -0.74820910161E+02  0.19645844463E+03  0.17300000000E+03 0. -1.
         -6    1    1    2    0  503 -0.12902194725E+02  0.53872861815E+02 -0.34800590481E+03  0.39256319446E+03  0.17300000000E+03 0.  1.
<mgrwt>
<rscale>  2 0.18165283E+03</rscale>
<asrwt>0</asrwt>
<pdfrwt beam="1">  1       21 0.12784218E-01 0.18165283E+03</pdfrwt>
<pdfrwt beam="2">  1       21 0.77834494E-01 0.18165283E+03</pdfrwt>
<totfact> 0.77004624E+04</totfact>
</mgrwt>
</event>
<event>
 4    1  0.4043938E+000  0.1781053E+03  0.7546771E-02  0.1169649E+00
         21   -1    0    0  503  502  0.00000000000E+00  0.00000000000E+00  0.31242703977E+02  0.31242703977E+02  0.00000000000E+00 0.  1.
         21   -1    0    0  501  503 -0.00000000000E+00 -0.00000000000E+00 -0.10239967619E+04  0.10239967619E+04  0.00000000000E+00 0. -1.
          6    1    1    2  501    0 -0.34095162505E+02  0.25100362814E+02 -0.54493018572E+03  0.57329784198E+03  0.17300000000E+03 0.  1.
         -6    1    1    2    0  502  0.34095162505E+02 -0.25100362814E+02 -0.44782387217E+03  0.48194162385E+03  0.17300000000E+03 0.  1.
<mgrwt>
<rscale>  2 0.17810533E+03</rscale>
<asrwt>0</asrwt>
<pdfrwt beam="1">  1       21 0.48065694E-02 0.17810533E+03</pdfrwt>
<pdfrwt beam="2">  1       21 0.15753798E+00 0.17810533E+03</pdfrwt>
<totfact> 0.76044908E+04</totfact>
</mgrwt>
</event>
<event>
 4    1  0.4043938E+000  0.1817075E+03  0.7546771E-02  0.1166161E+00
         21   -1    0    0  501  502  0.00000000000E+00  0.00000000000E+00  0.72062046772E+02  0.72062046772E+02  0.00000000000E+00 0. -1.
         21   -1    0    0  502  503 -0.00000000000E+00 -0.00000000000E+00 -0.55061658937E+03  0.55061658937E+03  0.00000000000E+00 0. -1.
          6    1    1    2  501    0  0.53314801906E+02 -0.15689025964E+02 -0.11171450054E+03  0.21330200015E+03  0.17300000000E+03 0. -1.
         -6    1    1    2    0  503 -0.53314801906E+02  0.15689025964E+02 -0.36684004206E+03  0.40937663599E+03  0.17300000000E+03 0. -1.
<mgrwt>
<rscale>  2 0.18170749E+03</rscale>
<asrwt>0</asrwt>
<pdfrwt beam="1">  1       21 0.11086469E-01 0.18170749E+03</pdfrwt>
<pdfrwt beam="2">  1       21 0.84710245E-01 0.18170749E+03</pdfrwt>
<totfact> 0.81997347E+04</totfact>
</mgrwt>
</event>
<event>
 4    1  0.4043938E+000  0.1769251E+03  0.7546771E-02  0.1170813E+00
         21   -1    0    0  503  502  0.00000000000E+00  0.00000000000E+00  0.11539568743E+04  0.11539568743E+04  0.00000000000E+00 0. -1.
         21   -1    0    0  501  503 -0.00000000000E+00 -0.00000000000E+00 -0.58252740279E+02  0.58252740279E+02  0.00000000000E+00 0. -1.
          6    1    1    2  501    0 -0.24560307535E+02 -0.27753960794E+02  0.10479994936E+03  0.20563443396E+03  0.17300000000E+03 0. -1.
         -6    1    1    2    0  502  0.24560307535E+02  0.27753960794E+02  0.99090418467E+03  0.10065751806E+04  0.17300000000E+03 0. -1.
<mgrwt>
<rscale>  2 0.17692510E+03</rscale>
<asrwt>0</asrwt>
<pdfrwt beam="1">  1       21 0.17753181E+00 0.17692510E+03</pdfrwt>
<pdfrwt beam="2">  1       21 0.89619609E-02 0.17692510E+03</pdfrwt>
<totfact> 0.18833558E+04</totfact>
</mgrwt>
</event>
<event>
 4    1  0.4043938E+000  0.2378559E+03  0.7546771E-02  0.1121229E+00
         21   -1    0    0  503  502  0.00000000000E+00  0.00000000000E+00  0.19541212652E+04  0.19541212652E+04  0.00000000000E+00 0.  1.
         21   -1    0    0  501  503 -0.00000000000E+00 -0.00000000000E+00 -0.61275234326E+02  0.61275234326E+02  0.00000000000E+00 0. -1.
          6    1    1    2  501    0 -0.13350971806E+02 -0.16269048078E+03  0.21453206967E+03  0.32031148887E+03  0.17300000000E+03 0. -1.
         -6    1    1    2    0  502  0.13350971806E+02  0.16269048078E+03  0.16783139612E+04  0.16950850107E+04  0.17300000000E+03 0.  1.
<mgrwt>
<rscale>  2 0.23785592E+03</rscale>
<asrwt>0</asrwt>
<pdfrwt beam="1">  1       21 0.30063399E+00 0.23785592E+03</pdfrwt>
<pdfrwt beam="2">  1       21 0.94269606E-02 0.23785592E+03</pdfrwt>
<totfact> 0.28983511E+03</totfact>
</mgrwt>
</event>
<event>
 4    1  0.4043938E+000  0.1760768E+03  0.7546771E-02  0.1171655E+00
         21   -1    0    0  503  502  0.00000000000E+00  0.00000000000E+00  0.15426285427E+03  0.15426285427E+03  0.00000000000E+00 0. -1.
         21   -1    0    0  501  503 -0.00000000000E+00 -0.00000000000E+00 -0.50694732360E+03  0.50694732360E+03  0.00000000000E+00 0. -1.
          6    1    1    2  501    0 -0.26555394975E+02 -0.19205364393E+02 -0.43318593787E+03  0.46760356264E+03  0.17300000000E+03 0. -1.
         -6    1    1    2    0  502  0.26555394975E+02  0.19205364393E+02  0.80501468544E+02  0.19360661523E+03  0.17300000000E+03 0. -1.
<mgrwt>
<rscale>  2 0.17607679E+03</rscale>
<asrwt>0</asrwt>
<pdfrwt beam="1">  1       21 0.23732747E-01 0.17607679E+03</pdfrwt>
<pdfrwt beam="2">  1       21 0.77991895E-01 0.17607679E+03</pdfrwt>
<totfact> 0.24594114E+04</totfact>
</mgrwt>
</event>
<event>
 4    1  0.4043938E+000  0.2032427E+03  0.7546771E-02  0.1147032E+00
         21   -1    0    0  501  502  0.00000000000E+00  0.00000000000E+00  0.57948654919E+03  0.57948654919E+03  0.00000000000E+00 0.  1.
         21   -1    0    0  502  503 -0.00000000000E+00 -0.00000000000E+00 -0.74832626911E+02  0.74832626911E+02  0.00000000000E+00 0. -1.
          6    1    1    2  501    0 -0.81861105427E+02  0.68391273909E+02  0.18107473910E+03  0.27220519479E+03  0.17300000000E+03 0.  1.
         -6    1    1    2    0  503  0.81861105427E+02 -0.68391273909E+02  0.32357918318E+03  0.38211398131E+03  0.17300000000E+03 0. -1.
<mgrwt>
<rscale>  2 0.20324273E+03</rscale>
<asrwt>0</asrwt>
<pdfrwt beam="1">  1       21 0.89151774E-01 0.20324273E+03</pdfrwt>
<pdfrwt beam="2">  1       21 0.11512712E-01 0.20324273E+03</pdfrwt>
<totfact> 0.67521723E+04</totfact>
</mgrwt>
</event>
<event>
 4    1  0.4043938E+000  0.2001486E+03  0.7546771E-02  0.1149614E+00
         21   -1    0    0  503  502  0.00000000000E+00  0.00000000000E+00  0.46412684570E+03  0.46412684570E+03  0.00000000000E+00 0.  1.
         21   -1    0    0  501  503 -0.00000000000E+00 -0.00000000000E+00 -0.94352408345E+02  0.94352408345E+02  0.00000000000E+00 0.  1.
          6    1    1    2  501    0 -0.91332496156E+02 -0.42294431418E+02  0.10336885297E+03  0.22526554008E+03  0.17300000000E+03 0.  1.
         -6    1    1    2    0  502  0.91332496156E+02  0.42294431418E+02  0.26640558438E+03  0.33321371396E+03  0.17300000000E+03 0.  1.
<mgrwt>
<rscale>  2 0.20014855E+03</rscale>
<asrwt>0</asrwt>
<pdfrwt beam="1">  1       21 0.71404129E-01 0.20014855E+03</pdfrwt>
<pdfrwt beam="2">  1       21 0.14515755E-01 0.20014855E+03</pdfrwt>
<totfact> 0.73596022E+04</totfact>
</mgrwt>
</event>
<event>
 4    1  0.4043938E+000  0.1798709E+03  0.7546771E-02  0.1167928E+00
         21   -1    0    0  503  502  0.00000000000E+00  0.00000000000E+00  0.17131213823E+04  0.17131213823E+04  0.00000000000E+00 0. -1.
         21   -1    0    0  501  503 -0.00000000000E+00 -0.00000000000E+00 -0.19668943422E+02  0.19668943422E+02  0.00000000000E+00 0. -1.
          6    1    1    2  501    0  0.21304651435E+02 -0.44392104071E+02  0.67383788334E+03  0.69743174583E+03  0.17300000000E+03 0. -1.
         -6    1    1    2    0  502 -0.21304651435E+02  0.44392104071E+02  0.10196145556E+04  0.10353585799E+04  0.17300000000E+03 0. -1.
<mgrwt>
<rscale>  2 0.17987092E+03</rscale>
<asrwt>0</asrwt>
<pdfrwt beam="1">  1       21 0.26355702E+00 0.17987092E+03</pdfrwt>
<pdfrwt beam="2">  1       21 0.30259926E-02 0.17987092E+03</pdfrwt>
<totfact> 0.34943799E+04</totfact>
</mgrwt>
</event>
<event>
 4    1  0.4043938E+000  0.2800119E+03  0.7546771E-02  0.1095682E+00
         21   -1    0    0  501  502  0.00000000000E+00  0.00000000000E+00  0.40562002514E+03  0.40562002514E+03  0.00000000000E+00 0.  1.
         21   -1    0    0  502  503 -0.00000000000E+00 -0.00000000000E+00 -0.33297332826E+03  0.33297332826E+03  0.00000000000E+00 0. -1.
          6    1    1    2  501    0 -0.21801767874E+03  0.30756837264E+02  0.27550403715E+03  0.39282205357E+03  0.17300000000E+03 0. -1.
         -6    1    1    2    0  503  0.21801767874E+03 -0.30756837264E+02 -0.20285734028E+03  0.34577129983E+03  0.17300000000E+03 0.  1.
<mgrwt>
<rscale>  2 0.28001195E+03</rscale>
<asrwt>0</asrwt>
<pdfrwt beam="1">  1       21 0.62403081E-01 0.28001195E+03</pdfrwt>
<pdfrwt beam="2">  1       21 0.51226666E-01 0.28001195E+03</pdfrwt>
<totfact> 0.81795795E+03</totfact>
</mgrwt>
</event>
<event>
 4    1  0.4043938E+000  0.1931554E+03  0.7546771E-02  0.1155646E+00
         21   -1    0    0  503  502  0.00000000000E+00  0.00000000000E+00  0.43449349625E+03  0.43449349625E+03  0.00000000000E+00 0. -1.
         21   -1    0    0  501  503 -0.00000000000E+00 -0.00000000000E+00 -0.85986847663E+02  0.85986847663E+02  0.00000000000E+00 0. -1.
          6    1    1    2  501    0 -0.16323818237E+02 -0.84341882835E+02  0.16457196265E+03  0.25375766221E+03  0.17300000000E+03 0. -1.
         -6    1    1    2    0  502  0.16323818237E+02  0.84341882835E+02  0.18393468594E+03  0.26672268170E+03  0.17300000000E+03 0. -1.
<mgrwt>
<rscale>  2 0.19315543E+03</rscale>
<asrwt>0</asrwt>
<pdfrwt beam="1">  1       21 0.66845152E-01 0.19315543E+03</pdfrwt>
<pdfrwt beam="2">  1       21 0.13228746E-01 0.19315543E+03</pdfrwt>
<totfact> 0.10098485E+05</totfact>
</mgrwt>
</event>
<event>
 4    1  0.4043938E+000  0.5398402E+03  0.7546771E-02  0.1003873E+00
         21   -1    0    0  501  502  0.00000000000E+00  0.00000000000E+00  0.32132950616E+03  0.32132950616E+03  0.00000000000E+00 0. -1.
         21   -1    0    0  502  503 -0.00000000000E+00 -0.00000000000E+00 -0.92516092977E+03  0.92516092977E+03  0.00000000000E+00 0.  1.
          6    1    1    2  501    0  0.45538457740E+03  0.23264425537E+03 -0.21445703171E+03  0.58087802622E+03  0.17300000000E+03 0. -1.
         -6    1    1    2    0  503 -0.45538457740E+03 -0.23264425537E+03 -0.38937439190E+03  0.66561240971E+03  0.17300000000E+03 0.  1.
<mgrwt>
<rscale>  2 0.53984022E+03</rscale>
<asrwt>0</asrwt>
<pdfrwt beam="1">  1       21 0.49435309E-01 0.53984022E+03</pdfrwt>
<pdfrwt beam="2">  1       21 0.14233245E+00 0.53984022E+03</pdfrwt>
<totfact> 0.10961873E+03</totfact>
</mgrwt>
</event>
<event>
 4    1  0.4043938E+000  0.2629683E+03  0.7546771E-02  0.1105373E+00
         21   -1    0    0  503  502  0.00000000000E+00  0.00000000000E+00  0.40873558899E+03  0.40873558899E+03  0.00000000000E+00 0. -1.
         21   -1    0    0  501  503 -0.00000000000E+00 -0.00000000000E+00 -0.20523222353E+03  0.20523222353E+03  0.00000000000E+00 0. -1.
          6    1    1    2  501    0  0.17022209742E+03  0.10123127965E+03 -0.26902168484E+02  0.26434080484E+03  0.17300000000E+03 0. -1.
         -6    1    1    2    0  502 -0.17022209742E+03 -0.10123127965E+03  0.23040553394E+03  0.34962700769E+03  0.17300000000E+03 0. -1.
<mgrwt>
<rscale>  2 0.26296831E+03</rscale>
<asrwt>0</asrwt>
<pdfrwt beam="1">  1       21 0.62882398E-01 0.26296831E+03</pdfrwt>
<pdfrwt beam="2">  1       21 0.31574188E-01 0.26296831E+03</pdfrwt>
<totfact> 0.21766188E+04</totfact>
</mgrwt>
</event>
<event>
 4    1  0.4043938E+000  0.2335302E+03  0.7546771E-02  0.1124179E+00
         21   -1    0    0  501  502  0.00000000000E+00  0.00000000000E+00  0.88167163652E+03  0.88167163652E+03  0.00000000000E+00 0.  1.
         21   -1    0    0  502  503 -0.00000000000E+00 -0.00000000000E+00 -0.75430911770E+02  0.75430911770E+02  0.00000000000E+00 0. -1.
          6    1    1    2  501    0 -0.12659300090E+03 -0.92636853389E+02  0.60613523855E+03  0.64956624135E+03  0.17300000000E+03 0. -1.
         -6    1    1    2    0  503  0.12659300090E+03  0.92636853389E+02  0.20010548620E+03  0.30753630694E+03  0.17300000000E+03 0.  1.
<mgrwt>
<rscale>  2 0.23353024E+03</rscale>
<asrwt>0</asrwt>
<pdfrwt beam="1">  1       21 0.13564178E+00 0.23353024E+03</pdfrwt>
<pdfrwt beam="2">  1       21 0.11604756E-01 0.23353024E+03</pdfrwt>
<totfact> 0.23594602E+04</totfact>
</mgrwt>
</event>
<event>
 4    1  0.4043938E+000  0.1777685E+03  0.7546771E-02  0.1169980E+00
         21   -1    0    0  503  502  0.00000000000E+00  0.00000000000E+00  0.34257099050E+03  0.34257099050E+03  0.00000000000E+00 0.  1.
         21   -1    0    0  501  503 -0.00000000000E+00 -0.00000000000E+00 -0.16044346875E+03  0.16044346875E+03  0.00000000000E+00 0.  1.
          6    1    1    2  501    0  0.34140987168E+02 -0.22517680229E+02 -0.72906725666E+02  0.19213808466E+03  0.17300000000E+03 0.  1.
         -6    1    1    2    0  502 -0.34140987168E+02  0.22517680229E+02  0.25503424741E+03  0.31087637459E+03  0.17300000000E+03 0.  1.
<mgrwt>
<rscale>  2 0.17776854E+03</rscale>
<asrwt>0</asrwt>
<pdfrwt beam="1">  1       21 0.52703229E-01 0.17776854E+03</pdfrwt>
<pdfrwt beam="2">  1       21 0.24683611E-01 0.17776854E+03</pdfrwt>
<totfact> 0.53331638E+04</totfact>
</mgrwt>
</event>
<event>
 4    1  0.4043938E+000  0.1998659E+03  0.7546771E-02  0.1149852E+00
         21   -1    0    0  503  502  0.00000000000E+00  0.00000000000E+00  0.15374337155E+03  0.15374337155E+03  0.00000000000E+00 0. -1.
         21   -1    0    0  501  503 -0.00000000000E+00 -0.00000000000E+00 -0.35328160255E+03  0.35328160255E+03  0.00000000000E+00 0. -1.
          6    1    1    2  501    0 -0.75910932354E+02  0.65229768504E+02 -0.23015888710E+03  0.30482700940E+03  0.17300000000E+03 0. -1.
         -6    1    1    2    0  502  0.75910932354E+02 -0.65229768504E+02  0.30620656095E+02  0.20219796470E+03  0.17300000000E+03 0. -1.
<mgrwt>
<rscale>  2 0.19986594E+03</rscale>
<asrwt>0</asrwt>
<pdfrwt beam="1">  1       21 0.23652826E-01 0.19986594E+03</pdfrwt>
<pdfrwt beam="2">  1       21 0.54351016E-01 0.19986594E+03</pdfrwt>
<totfact> 0.53647040E+04</totfact>
</mgrwt>
</event>
<event>
 4    1  0.4043938E+000  0.1984517E+03  0.7546771E-02  0.1151052E+00
         21   -1    0    0  503  502  0.00000000000E+00  0.00000000000E+00  0.49951098579E+03  0.49951098579E+03  0.00000000000E+00 0.  1.
         21   -1    0    0  501  503 -0.00000000000E+00 -0.00000000000E+00 -0.23255178842E+03  0.23255178842E+03  0.00000000000E+00 0. -1.
          6    1    1    2  501    0  0.57448085975E+02 -0.78446076969E+02 -0.16410296582E+03  0.25751282097E+03  0.17300000000E+03 0. -1.
         -6    1    1    2    0  502 -0.57448085975E+02  0.78446076969E+02  0.43106216319E+03  0.47454995323E+03  0.17300000000E+03 0.  1.
<mgrwt>
<rscale>  2 0.19845168E+03</rscale>
<asrwt>0</asrwt>
<pdfrwt beam="1">  1       21 0.76847844E-01 0.19845168E+03</pdfrwt>
<pdfrwt beam="2">  1       21 0.35777198E-01 0.19845168E+03</pdfrwt>
<totfact> 0.11297828E+04</totfact>
</mgrwt>
</event>
<event>
 4    1  0.4043938E+000  0.2274809E+03  0.7546771E-02  0.1128425E+00
         21   -1    0    0  503  502  0.00000000000E+00  0.00000000000E+00  0.72491212467E+03  0.72491212467E+03  0.00000000000E+00 0. -1.
         21   -1    0    0  501  503 -0.00000000000E+00 -0.00000000000E+00 -0.73377771908E+02  0.73377771908E+02  0.00000000000E+00 0.  1.
          6    1    1    2  501    0  0.52376899356E+02 -0.13811314930E+03  0.25998354877E+03  0.34545481213E+03  0.17300000000E+03 0.  1.
         -6    1    1    2    0  502 -0.52376899356E+02  0.13811314930E+03  0.39155080399E+03  0.45283508444E+03  0.17300000000E+03 0. -1.
<mgrwt>
<rscale>  2 0.22748095E+03</rscale>
<asrwt>0</asrwt>
<pdfrwt beam="1">  1       21 0.11152494E+00 0.22748095E+03</pdfrwt>
<pdfrwt beam="2">  1       21 0.11288888E-01 0.22748095E+03</pdfrwt>
<totfact> 0.40591894E+04</totfact>
</mgrwt>
</event>
<event>
 4    1  0.4043938E+000  0.2800836E+03  0.7546771E-02  0.1095643E+00
         21   -1    0    0  503  502  0.00000000000E+00  0.00000000000E+00  0.45482689744E+03  0.45482689744E+03  0.00000000000E+00 0. -1.
         21   -1    0    0  501  503 -0.00000000000E+00 -0.00000000000E+00 -0.26354461994E+03  0.26354461994E+03  0.00000000000E+00 0.  1.
          6    1    1    2  501    0  0.16427877984E+03  0.14673217164E+03 -0.11550141042E+03  0.30296439313E+03  0.17300000000E+03 0.  1.
         -6    1    1    2    0  502 -0.16427877984E+03 -0.14673217164E+03  0.30678368792E+03  0.41540712425E+03  0.17300000000E+03 0. -1.
<mgrwt>
<rscale>  2 0.28008364E+03</rscale>
<asrwt>0</asrwt>
<pdfrwt beam="1">  1       21 0.69973369E-01 0.28008364E+03</pdfrwt>
<pdfrwt beam="2">  1       21 0.40545326E-01 0.28008364E+03</pdfrwt>
<totfact> 0.10328047E+04</totfact>
</mgrwt>
</event>
<event>
 4    1  0.4043938E+000  0.1913160E+03  0.7546771E-02  0.1157280E+00
         21   -1    0    0  503  502  0.00000000000E+00  0.00000000000E+00  0.42950957130E+03  0.42950957130E+03  0.00000000000E+00 0.  1.
         21   -1    0    0  501  503 -0.00000000000E+00 -0.00000000000E+00 -0.89784701154E+02  0.89784701154E+02  0.00000000000E+00 0.  1.
          6    1    1    2  501    0  0.23501405211E+02  0.78233644510E+02  0.11130287931E+03  0.22133718649E+03  0.17300000000E+03 0.  1.
         -6    1    1    2    0  502 -0.23501405211E+02 -0.78233644510E+02  0.22842199084E+03  0.29795708597E+03  0.17300000000E+03 0.  1.
<mgrwt>
<rscale>  2 0.19131602E+03</rscale>
<asrwt>0</asrwt>
<pdfrwt beam="1">  1       21 0.66078394E-01 0.19131602E+03</pdfrwt>
<pdfrwt beam="2">  1       21 0.13813031E-01 0.19131602E+03</pdfrwt>
<totfact> 0.95852474E+04</totfact>
</mgrwt>
</event>
<event>
 4    1  0.4043938E+000  0.1750914E+03  0.7546771E-02  0.1172640E+00
         21   -1    0    0  503  502  0.00000000000E+00  0.00000000000E+00  0.75641709522E+03  0.75641709522E+03  0.00000000000E+00 0.  1.
         21   -1    0    0  501  503 -0.00000000000E+00 -0.00000000000E+00 -0.71551580568E+02  0.71551580568E+02  0.00000000000E+00 0.  1.
          6    1    1    2  501    0  0.24322184450E+02  0.11680188243E+02  0.69841633425E+02  0.18850689434E+03  0.17300000000E+03 0.  1.
         -6    1    1    2    0  502 -0.24322184450E+02 -0.11680188243E+02  0.61502388123E+03  0.63946178145E+03  0.17300000000E+03 0.  1.
<mgrwt>
<rscale>  2 0.17509139E+03</rscale>
<asrwt>0</asrwt>
<pdfrwt beam="1">  1       21 0.11637186E+00 0.17509139E+03</pdfrwt>
<pdfrwt beam="2">  1       21 0.11007936E-01 0.17509139E+03</pdfrwt>
<totfact> 0.39361903E+04</totfact>
</mgrwt>
</event>
<event>
 4    1  0.4043938E+000  0.2112859E+03  0.7546771E-02  0.1140552E+00
         21   -1    0    0  503  502  0.00000000000E+00  0.00000000000E+00  0.16178262990E+03  0.16178262990E+03  0.00000000000E+00 0.  1.
         21   -1    0    0  501  503 -0.00000000000E+00 -0.00000000000E+00 -0.41116210193E+03  0.41116210193E+03  0.00000000000E+00 0.  1.
          6    1    1    2  501    0  0.12011159101E+03 -0.16909547877E+02  0.39598214852E+02  0.21496452201E+03  0.17300000000E+03 0.  1.
         -6    1    1    2    0  502 -0.12011159101E+03  0.16909547877E+02 -0.28897768688E+03  0.35798020982E+03  0.17300000000E+03 0.  1.
<mgrwt>
<rscale>  2 0.21128589E+03</rscale>
<asrwt>0</asrwt>
<pdfrwt beam="1">  1       21 0.24889636E-01 0.21128589E+03</pdfrwt>
<pdfrwt beam="2">  1       21 0.63255706E-01 0.21128589E+03</pdfrwt>
<totfact> 0.34971757E+04</totfact>
</mgrwt>
</event>
<event>
 4    1  0.4043938E+000  0.1891037E+03  0.7546771E-02  0.1159272E+00
         21   -1    0    0  501  502  0.00000000000E+00  0.00000000000E+00  0.14677040085E+04  0.14677040085E+04  0.00000000000E+00 0.  1.
         21   -1    0    0  502  503 -0.00000000000E+00 -0.00000000000E+00 -0.70655540219E+02  0.70655540219E+02  0.00000000000E+00 0.  1.
          6    1    1    2  501    0  0.18241415273E+02 -0.74151684457E+02  0.13211141835E+04  0.13345796745E+04  0.17300000000E+03 0.  1.
         -6    1    1    2    0  503 -0.18241415273E+02  0.74151684457E+02  0.75934284689E+02  0.20377987420E+03  0.17300000000E+03 0.  1.
<mgrwt>
<rscale>  2 0.18910373E+03</rscale>
<asrwt>0</asrwt>
<pdfrwt beam="1">  1       21 0.22580059E+00 0.18910373E+03</pdfrwt>
<pdfrwt beam="2">  1       21 0.10870084E-01 0.18910373E+03</pdfrwt>
<totfact> 0.65123704E+03</totfact>
</mgrwt>
</event>
<event>
 4    1  0.4043938E+000  0.2297468E+03  0.7546771E-02  0.1126818E+00
         21   -1    0    0  503  502  0.00000000000E+00  0.00000000000E+00  0.67513121025E+03  0.67513121025E+03  0.00000000000E+00 0. -1.
         21   -1    0    0  501  503 -0.00000000000E+00 -0.00000000000E+00 -0.81503020298E+02  0.81503020298E+02  0.00000000000E+00 0. -1.
          6    1    1    2  501    0 -0.11689584535E+03 -0.95864293797E+02  0.37317254978E+03  0.43822523136E+03  0.17300000000E+03 0. -1.
         -6    1    1    2    0  502  0.11689584535E+03  0.95864293797E+02  0.22045564017E+03  0.31840899920E+03  0.17300000000E+03 0. -1.
<mgrwt>
<rscale>  2 0.22974682E+03</rscale>
<asrwt>0</asrwt>
<pdfrwt beam="1">  1       21 0.10386634E+00 0.22974682E+03</pdfrwt>
<pdfrwt beam="2">  1       21 0.12538927E-01 0.22974682E+03</pdfrwt>
<totfact> 0.39901302E+04</totfact>
</mgrwt>
</event>
<event>
 4    1  0.4043938E+000  0.1917831E+03  0.7546771E-02  0.1156863E+00
         21   -1    0    0  501  502  0.00000000000E+00  0.00000000000E+00  0.73294282059E+03  0.73294282059E+03  0.00000000000E+00 0.  1.
         21   -1    0    0  502  503 -0.00000000000E+00 -0.00000000000E+00 -0.91837818311E+02  0.91837818311E+02  0.00000000000E+00 0.  1.
          6    1    1    2  501    0  0.52885592611E+02 -0.63677970449E+02  0.59828957750E+03  0.62827636306E+03  0.17300000000E+03 0.  1.
         -6    1    1    2    0  503 -0.52885592611E+02  0.63677970449E+02  0.42815424776E+02  0.19650427584E+03  0.17300000000E+03 0.  1.
<mgrwt>
<rscale>  2 0.19178313E+03</rscale>
<asrwt>0</asrwt>
<pdfrwt beam="1">  1       21 0.11276043E+00 0.19178313E+03</pdfrwt>
<pdfrwt beam="2">  1       21 0.14128896E-01 0.19178313E+03</pdfrwt>
<totfact> 0.26910298E+04</totfact>
</mgrwt>
</event>
<event>
 4    1  0.4043938E+000  0.2363356E+03  0.7546771E-02  0.1122258E+00
         21   -1    0    0  503  502  0.00000000000E+00  0.00000000000E+00  0.30259395805E+03  0.30259395805E+03  0.00000000000E+00 0.  1.
         21   -1    0    0  501  503 -0.00000000000E+00 -0.00000000000E+00 -0.18492279086E+03  0.18492279086E+03  0.00000000000E+00 0.  1.
          6    1    1    2  501    0 -0.15130342830E+03  0.55070876893E+02  0.48428868015E+02  0.24124652154E+03  0.17300000000E+03 0.  1.
         -6    1    1    2    0  502  0.15130342830E+03 -0.55070876893E+02  0.69242299175E+02  0.24627022738E+03  0.17300000000E+03 0.  1.
<mgrwt>
<rscale>  2 0.23633563E+03</rscale>
<asrwt>0</asrwt>
<pdfrwt beam="1">  1       21 0.46552917E-01 0.23633563E+03</pdfrwt>
<pdfrwt beam="2">  1       21 0.28449660E-01 0.23633563E+03</pdfrwt>
<totfact> 0.51176463E+04</totfact>
</mgrwt>
</event>
<event>
 4    1  0.4043938E+000  0.3044128E+03  0.7546771E-02  0.1083055E+00
         21   -1    0    0  503  502  0.00000000000E+00  0.00000000000E+00  0.32651204577E+03  0.32651204577E+03  0.00000000000E+00 0.  1.
         21   -1    0    0  501  503 -0.00000000000E+00 -0.00000000000E+00 -0.28383293146E+03  0.28383293146E+03  0.00000000000E+00 0. -1.
          6    1    1    2  501    0  0.12438979649E+03  0.21740592354E+03  0.24123790025E+02  0.30536717948E+03  0.17300000000E+03 0.  1.
         -6    1    1    2    0  502 -0.12438979649E+03 -0.21740592354E+03  0.18555324287E+02  0.30497779775E+03  0.17300000000E+03 0. -1.
<mgrwt>
<rscale>  2 0.30441281E+03</rscale>
<asrwt>0</asrwt>
<pdfrwt beam="1">  1       21 0.50232623E-01 0.30441281E+03</pdfrwt>
<pdfrwt beam="2">  1       21 0.43666605E-01 0.30441281E+03</pdfrwt>
<totfact> 0.17987771E+04</totfact>
</mgrwt>
</event>
<event>
 4    1  0.4043938E+000  0.3027096E+03  0.7546771E-02  0.1083894E+00
         21   -1    0    0  503  502  0.00000000000E+00  0.00000000000E+00  0.45857658102E+03  0.45857658102E+03  0.00000000000E+00 0.  1.
         21   -1    0    0  501  503 -0.00000000000E+00 -0.00000000000E+00 -0.21697561619E+03  0.21697561619E+03  0.00000000000E+00 0. -1.
          6    1    1    2  501    0 -0.24153409585E+03  0.58011942689E+02  0.21577726034E+03  0.37174309817E+03  0.17300000000E+03 0. -1.
         -6    1    1    2    0  502  0.24153409585E+03 -0.58011942689E+02  0.25823704489E+02  0.30380909905E+03  0.17300000000E+03 0. -1.
<mgrwt>
<rscale>  2 0.30270960E+03</rscale>
<asrwt>0</asrwt>
<pdfrwt beam="1">  1       21 0.70550243E-01 0.30270960E+03</pdfrwt>
<pdfrwt beam="2">  1       21 0.33380864E-01 0.30270960E+03</pdfrwt>
<totfact> 0.14860325E+04</totfact>
</mgrwt>
</event>
<event>
 4    1  0.4043938E+000  0.2162019E+03  0.7546771E-02  0.1136747E+00
         21   -1    0    0  501  502  0.00000000000E+00  0.00000000000E+00  0.28908060194E+02  0.28908060194E+02  0.00000000000E+00 0. -1.
         21   -1    0    0  502  503 -0.00000000000E+00 -0.00000000000E+00 -0.24298846795E+04  0.24298846795E+04  0.00000000000E+00 0. -1.
          6    1    1    2  501    0 -0.12014893204E+03  0.48769617966E+02 -0.48939981268E+03  0.53502842743E+03  0.17300000000E+03 0. -1.
         -6    1    1    2    0  503  0.12014893204E+03 -0.48769617966E+02 -0.19115768067E+04  0.19237643123E+04  0.17300000000E+03 0. -1.
<mgrwt>
<rscale>  2 0.21620185E+03</rscale>
<asrwt>0</asrwt>
<pdfrwt beam="1">  1       21 0.44473955E-02 0.21620185E+03</pdfrwt>
<pdfrwt beam="2">  1       21 0.37382827E+00 0.21620185E+03</pdfrwt>
<totfact> 0.40107267E+03</totfact>
</mgrwt>
</event>
<event>
 4    1  0.4043938E+000  0.2018975E+03  0.7546771E-02  0.1148148E+00
         21   -1    0    0  501  502  0.00000000000E+00  0.00000000000E+00  0.51945002467E+02  0.51945002467E+02  0.00000000000E+00 0. -1.
         21   -1    0    0  502  503 -0.00000000000E+00 -0.00000000000E+00 -0.97246921955E+03  0.97246921955E+03  0.00000000000E+00 0.  1.
          6    1    1    2  501    0 -0.85230983767E+01 -0.10373504399E+03 -0.23520661848E+03  0.30997541182E+03  0.17300000000E+03 0. -1.
         -6    1    1    2    0  503  0.85230983767E+01  0.10373504399E+03 -0.68531759860E+03  0.71443881019E+03  0.17300000000E+03 0.  1.
<mgrwt>
<rscale>  2 0.20189751E+03</rscale>
<asrwt>0</asrwt>
<pdfrwt beam="1">  1       21 0.79915393E-02 0.20189751E+03</pdfrwt>
<pdfrwt beam="2">  1       21 0.14961064E+00 0.20189751E+03</pdfrwt>
<totfact> 0.35979349E+04</totfact>
</mgrwt>
</event>
<event>
 4    1  0.4043938E+000  0.2729946E+03  0.7546771E-02  0.1099578E+00
         21   -1    0    0  501  502  0.00000000000E+00  0.00000000000E+00  0.86406664098E+02  0.86406664098E+02  0.00000000000E+00 0. -1.
         21   -1    0    0  502  503 -0.00000000000E+00 -0.00000000000E+00 -0.86266806362E+03  0.86266806362E+03  0.00000000000E+00 0. -1.
          6    1    1    2  501    0 -0.13380074953E+03 -0.16338418687E+03 -0.39468877916E+03  0.47990130807E+03  0.17300000000E+03 0. -1.
         -6    1    1    2    0  503  0.13380074953E+03  0.16338418687E+03 -0.38157262037E+03  0.46917341965E+03  0.17300000000E+03 0. -1.
<mgrwt>
<rscale>  2 0.27299457E+03</rscale>
<asrwt>0</asrwt>
<pdfrwt beam="1">  1       21 0.13293333E-01 0.27299457E+03</pdfrwt>
<pdfrwt beam="2">  1       21 0.13271816E+00 0.27299457E+03</pdfrwt>
<totfact> 0.19135481E+04</totfact>
</mgrwt>
</event>
<event>
 4    1  0.4043938E+000  0.1887166E+03  0.7546771E-02  0.1159624E+00
         21   -1    0    0  503  502  0.00000000000E+00  0.00000000000E+00  0.16968406033E+03  0.16968406033E+03  0.00000000000E+00 0. -1.
         21   -1    0    0  501  503 -0.00000000000E+00 -0.00000000000E+00 -0.49084863581E+03  0.49084863581E+03  0.00000000000E+00 0. -1.
          6    1    1    2  501    0 -0.44018157108E+02  0.61215553564E+02 -0.41045364958E+03  0.45175894082E+03  0.17300000000E+03 0. -1.
         -6    1    1    2    0  502  0.44018157108E+02 -0.61215553564E+02  0.89289074106E+02  0.20877375531E+03  0.17300000000E+03 0. -1.
<mgrwt>
<rscale>  2 0.18871657E+03</rscale>
<asrwt>0</asrwt>
<pdfrwt beam="1">  1       21 0.26105240E-01 0.18871657E+03</pdfrwt>
<pdfrwt beam="2">  1       21 0.75515174E-01 0.18871657E+03</pdfrwt>
<totfact> 0.21883239E+04</totfact>
</mgrwt>
</event>
<event>
 4    1  0.4043938E+000  0.2155847E+03  0.7546771E-02  0.1137218E+00
         21   -1    0    0  503  502  0.00000000000E+00  0.00000000000E+00  0.11703167285E+04  0.11703167285E+04  0.00000000000E+00 0. -1.
         21   -1    0    0  501  503 -0.00000000000E+00 -0.00000000000E+00 -0.50179832735E+02  0.50179832735E+02  0.00000000000E+00 0. -1.
          6    1    1    2  501    0  0.12429789155E+02  0.12803624955E+03  0.83877663900E+03  0.86603870063E+03  0.17300000000E+03 0. -1.
         -6    1    1    2    0  502 -0.12429789155E+02 -0.12803624955E+03  0.28136025675E+03  0.35445786059E+03  0.17300000000E+03 0. -1.
<mgrwt>
<rscale>  2 0.21558474E+03</rscale>
<asrwt>0</asrwt>
<pdfrwt beam="1">  1       21 0.18004871E+00 0.21558474E+03</pdfrwt>
<pdfrwt beam="2">  1       21 0.77199752E-02 0.21558474E+03</pdfrwt>
<totfact> 0.22849505E+04</totfact>
</mgrwt>
</event>
<event>
 4    1  0.4043938E+000  0.1785505E+03  0.7546771E-02  0.1169213E+00
         21   -1    0    0  501  502  0.00000000000E+00  0.00000000000E+00  0.10918920229E+04  0.10918920229E+04  0.00000000000E+00 0.  1.
         21   -1    0    0  502  503 -0.00000000000E+00 -0.00000000000E+00 -0.38410446550E+02  0.38410446550E+02  0.00000000000E+00 0.  1.
          6    1    1    2  501    0  0.99503425628E+01  0.43037832976E+02  0.80352718287E+03  0.82312587008E+03  0.17300000000E+03 0.  1.
         -6    1    1    2    0  503 -0.99503425628E+01 -0.43037832976E+02  0.24995439351E+03  0.30717659940E+03  0.17300000000E+03 0.  1.
<mgrwt>
<rscale>  2 0.17855045E+03</rscale>
<asrwt>0</asrwt>
<pdfrwt beam="1">  1       21 0.16798336E+00 0.17855045E+03</pdfrwt>
<pdfrwt beam="2">  1       21 0.59093003E-02 0.17855045E+03</pdfrwt>
<totfact> 0.45007982E+04</totfact>
</mgrwt>
</event>
<event>
 4    1  0.4043938E+000  0.1867631E+03  0.7546771E-02  0.1161414E+00
         21   -1    0    0  501  502  0.00000000000E+00  0.00000000000E+00  0.13206545220E+03  0.13206545220E+03  0.00000000000E+00 0. -1.
         21   -1    0    0  502  503 -0.00000000000E+00 -0.00000000000E+00 -0.26454628228E+03  0.26454628228E+03  0.00000000000E+00 0. -1.
          6    1    1    2  501    0  0.69299126869E+02  0.12209342618E+02 -0.58231394559E+02  0.19563060176E+03  0.17300000000E+03 0. -1.
         -6    1    1    2    0  503 -0.69299126869E+02 -0.12209342618E+02 -0.74249435520E+02  0.20098113271E+03  0.17300000000E+03 0. -1.
<mgrwt>
<rscale>  2 0.18676305E+03</rscale>
<asrwt>0</asrwt>
<pdfrwt beam="1">  1       21 0.20317762E-01 0.18676305E+03</pdfrwt>
<pdfrwt beam="2">  1       21 0.40699428E-01 0.18676305E+03</pdfrwt>
<totfact> 0.13061353E+05</totfact>
</mgrwt>
</event>
<event>
 4    1  0.4043938E+000  0.3155119E+03  0.7546771E-02  0.1077734E+00
         21   -1    0    0  503  502  0.00000000000E+00  0.00000000000E+00  0.29647725847E+03  0.29647725847E+03  0.00000000000E+00 0.  1.
         21   -1    0    0  501  503 -0.00000000000E+00 -0.00000000000E+00 -0.33606546656E+03  0.33606546656E+03  0.00000000000E+00 0. -1.
          6    1    1    2  501    0 -0.18862825727E+03 -0.18449431266E+03 -0.10394987733E+02  0.31568311107E+03  0.17300000000E+03 0.  1.
         -6    1    1    2    0  502  0.18862825727E+03  0.18449431266E+03 -0.29193220351E+02  0.31685961396E+03  0.17300000000E+03 0. -1.
<mgrwt>
<rscale>  2 0.31551192E+03</rscale>
<asrwt>0</asrwt>
<pdfrwt beam="1">  1       21 0.45611886E-01 0.31551192E+03</pdfrwt>
<pdfrwt beam="2">  1       21 0.51702379E-01 0.31551192E+03</pdfrwt>
<totfact> 0.15391800E+04</totfact>
</mgrwt>
</event>
<event>
 4    1  0.4043938E+000  0.1829635E+03  0.7546771E-02  0.1164965E+00
         21   -1    0    0  501  502  0.00000000000E+00  0.00000000000E+00  0.82484300124E+02  0.82484300124E+02  0.00000000000E+00 0. -1.
         21   -1    0    0  502  503 -0.00000000000E+00 -0.00000000000E+00 -0.85687996212E+03  0.85687996212E+03  0.00000000000E+00 0. -1.
          6    1    1    2  501    0 -0.26274907274E+02 -0.53443991704E+02 -0.46436447629E+02  0.18876433633E+03  0.17300000000E+03 0. -1.
         -6    1    1    2    0  503  0.26274907274E+02  0.53443991704E+02 -0.72795921437E+03  0.75059992592E+03  0.17300000000E+03 0. -1.
<mgrwt>
<rscale>  2 0.18296347E+03</rscale>
<asrwt>0</asrwt>
<pdfrwt beam="1">  1       21 0.12689891E-01 0.18296347E+03</pdfrwt>
<pdfrwt beam="2">  1       21 0.13182770E+00 0.18296347E+03</pdfrwt>
<totfact> 0.22287981E+04</totfact>
</mgrwt>
</event>
<event>
 4    1  0.4043938E+000  0.2029442E+03  0.7546771E-02  0.1147278E+00
         21   -1    0    0  501  502  0.00000000000E+00  0.00000000000E+00  0.82612932344E+02  0.82612932344E+02  0.00000000000E+00 0.  1.
         21   -1    0    0  502  503 -0.00000000000E+00 -0.00000000000E+00 -0.51716796056E+03  0.51716796056E+03  0.00000000000E+00 0. -1.
          6    1    1    2  501    0 -0.72058244088E+02 -0.77877897865E+02 -0.16037151703E+03  0.25866074497E+03  0.17300000000E+03 0.  1.
         -6    1    1    2    0  503  0.72058244088E+02  0.77877897865E+02 -0.27418351119E+03  0.34112014793E+03  0.17300000000E+03 0. -1.
<mgrwt>
<rscale>  2 0.20294422E+03</rscale>
<asrwt>0</asrwt>
<pdfrwt beam="1">  1       21 0.12709682E-01 0.20294422E+03</pdfrwt>
<pdfrwt beam="2">  1       21 0.79564302E-01 0.20294422E+03</pdfrwt>
<totfact> 0.73368470E+04</totfact>
</mgrwt>
</event>
<event>
 4    1  0.4043938E+000  0.1993665E+03  0.7546771E-02  0.1150275E+00
         21   -1    0    0  501  502  0.00000000000E+00  0.00000000000E+00  0.20855058218E+03  0.20855058218E+03  0.00000000000E+00 0. -1.
         21   -1    0    0  502  503 -0.00000000000E+00 -0.00000000000E+00 -0.78955808996E+03  0.78955808996E+03  0.00000000000E+00 0. -1.
          6    1    1    2  501    0 -0.40809507309E+02 -0.90291734046E+02  0.14416532722E+03  0.24602978417E+03  0.17300000000E+03 0. -1.
         -6    1    1    2    0  503  0.40809507309E+02  0.90291734046E+02 -0.72517283500E+03  0.75207888798E+03  0.17300000000E+03 0. -1.
<mgrwt>
<rscale>  2 0.19936653E+03</rscale>
<asrwt>0</asrwt>
<pdfrwt beam="1">  1       21 0.32084705E-01 0.19936653E+03</pdfrwt>
<pdfrwt beam="2">  1       21 0.12147047E+00 0.19936653E+03</pdfrwt>
<totfact> 0.47611947E+03</totfact>
</mgrwt>
</event>
<event>
 4    1  0.4043938E+000  0.1799083E+03  0.7546771E-02  0.1167892E+00
         21   -1    0    0  501  502  0.00000000000E+00  0.00000000000E+00  0.30534226144E+03  0.30534226144E+03  0.00000000000E+00 0. -1.
         21   -1    0    0  502  503 -0.00000000000E+00 -0.00000000000E+00 -0.41996698631E+03  0.41996698631E+03  0.00000000000E+00 0. -1.
          6    1    1    2  501    0 -0.44567662412E+02  0.21253970538E+02  0.25625148617E+03  0.31310035445E+03  0.17300000000E+03 0. -1.
         -6    1    1    2    0  503  0.44567662412E+02 -0.21253970538E+02 -0.37087621104E+03  0.41220889330E+03  0.17300000000E+03 0. -1.
<mgrwt>
<rscale>  2 0.17990833E+03</rscale>
<asrwt>0</asrwt>
<pdfrwt beam="1">  1       21 0.46975732E-01 0.17990833E+03</pdfrwt>
<pdfrwt beam="2">  1       21 0.64610306E-01 0.17990833E+03</pdfrwt>
<totfact> 0.96632232E+03</totfact>
</mgrwt>
</event>
<event>
 4    1  0.4043938E+000  0.1735619E+03  0.7546771E-02  0.1174183E+00
         21   -1    0    0  501  502  0.00000000000E+00  0.00000000000E+00  0.16048825317E+03  0.16048825317E+03  0.00000000000E+00 0.  1.
         21   -1    0    0  502  503 -0.00000000000E+00 -0.00000000000E+00 -0.19481702137E+03  0.19481702137E+03  0.00000000000E+00 0.  1.
          6    1    1    2  501    0  0.21378060966E+01 -0.13790067235E+02  0.16789544742E+02  0.17437208774E+03  0.17300000000E+03 0. -1.
         -6    1    1    2    0  503 -0.21378060966E+01  0.13790067235E+02 -0.51118312933E+02  0.18093318680E+03  0.17300000000E+03 0. -1.
<mgrwt>
<rscale>  2 0.17356191E+03</rscale>
<asrwt>0</asrwt>
<pdfrwt beam="1">  1       21 0.24690501E-01 0.17356191E+03</pdfrwt>
<pdfrwt beam="2">  1       21 0.29971849E-01 0.17356191E+03</pdfrwt>
<totfact> 0.16657562E+05</totfact>
</mgrwt>
</event>
<event>
 4    1  0.4043938E+000  0.2091427E+03  0.7546771E-02  0.1142247E+00
         21   -1    0    0  501  502  0.00000000000E+00  0.00000000000E+00  0.23396375121E+03  0.23396375121E+03  0.00000000000E+00 0. -1.
         21   -1    0    0  502  503 -0.00000000000E+00 -0.00000000000E+00 -0.19600976895E+03  0.19600976895E+03  0.00000000000E+00 0. -1.
          6    1    1    2  501    0 -0.45300975079E+02 -0.10844118587E+03  0.65184653686E+02  0.21906553406E+03  0.17300000000E+03 0. -1.
         -6    1    1    2    0  503  0.45300975079E+02  0.10844118587E+03 -0.27230671430E+02  0.21090798610E+03  0.17300000000E+03 0. -1.
<mgrwt>
<rscale>  2 0.20914270E+03</rscale>
<asrwt>0</asrwt>
<pdfrwt beam="1">  1       21 0.35994423E-01 0.20914270E+03</pdfrwt>
<pdfrwt beam="2">  1       21 0.30155349E-01 0.20914270E+03</pdfrwt>
<totfact> 0.77965303E+04</totfact>
</mgrwt>
</event>
<event>
 4    1  0.4043938E+000  0.1875339E+03  0.7546771E-02  0.1160705E+00
         21   -1    0    0  501  502  0.00000000000E+00  0.00000000000E+00  0.35710073625E+03  0.35710073625E+03  0.00000000000E+00 0. -1.
         21   -1    0    0  502  503 -0.00000000000E+00 -0.00000000000E+00 -0.20311489028E+03  0.20311489028E+03  0.00000000000E+00 0. -1.
          6    1    1    2  501    0 -0.71886945297E+02 -0.84993794473E+01  0.27803305977E+03  0.33536749199E+03  0.17300000000E+03 0. -1.
         -6    1    1    2    0  503  0.71886945297E+02  0.84993794473E+01 -0.12404721380E+03  0.22484813454E+03  0.17300000000E+03 0. -1.
<mgrwt>
<rscale>  2 0.18753392E+03</rscale>
<asrwt>0</asrwt>
<pdfrwt beam="1">  1       21 0.54938575E-01 0.18753392E+03</pdfrwt>
<pdfrwt beam="2">  1       21 0.31248445E-01 0.18753392E+03</pdfrwt>
<totfact> 0.30850757E+04</totfact>
</mgrwt>
</event>
<event>
 4    1  0.4043938E+000  0.3060019E+03  0.7546771E-02  0.1082278E+00
         21   -1    0    0  503  502  0.00000000000E+00  0.00000000000E+00  0.97095535681E+03  0.97095535681E+03  0.00000000000E+00 0. -1.
         21   -1    0    0  501  503 -0.00000000000E+00 -0.00000000000E+00 -0.17619219308E+03  0.17619219308E+03  0.00000000000E+00 0.  1.
          6    1    1    2  501    0  0.24566814834E+03  0.57925106976E+02  0.11483822273E+02  0.30621730078E+03  0.17300000000E+03 0.  1.
         -6    1    1    2    0  502 -0.24566814834E+03 -0.57925106976E+02  0.78327934145E+03  0.84093024911E+03  0.17300000000E+03 0. -1.
<mgrwt>
<rscale>  2 0.30600189E+03</rscale>
<asrwt>0</asrwt>
<pdfrwt beam="1">  1       21 0.14937774E+00 0.30600189E+03</pdfrwt>
<pdfrwt beam="2">  1       21 0.27106492E-01 0.30600189E+03</pdfrwt>
<totfact> 0.36186569E+03</totfact>
</mgrwt>
</event>
<event>
 4    1  0.4043938E+000  0.2196432E+03  0.7546771E-02  0.1134149E+00
         21   -1    0    0  501  502  0.00000000000E+00  0.00000000000E+00  0.70984037046E+03  0.70984037046E+03  0.00000000000E+00 0.  1.
         21   -1    0    0  502  503 -0.00000000000E+00 -0.00000000000E+00 -0.69356164957E+02  0.69356164957E+02  0.00000000000E+00 0.  1.
          6    1    1    2  501    0 -0.13913951603E+00 -0.13532962678E+03  0.37545260488E+03  0.43498021307E+03  0.17300000000E+03 0.  1.
         -6    1    1    2    0  503  0.13913951603E+00  0.13532962678E+03  0.26503160062E+03  0.34421632235E+03  0.17300000000E+03 0.  1.
<mgrwt>
<rscale>  2 0.21964318E+03</rscale>
<asrwt>0</asrwt>
<pdfrwt beam="1">  1       21 0.10920621E+00 0.21964318E+03</pdfrwt>
<pdfrwt beam="2">  1       21 0.10670180E-01 0.21964318E+03</pdfrwt>
<totfact> 0.47420550E+04</totfact>
</mgrwt>
</event>
<event>
 4    1  0.4043938E+000  0.1944797E+03  0.7546771E-02  0.1154482E+00
         21   -1    0    0  501  502  0.00000000000E+00  0.00000000000E+00  0.51183115365E+03  0.51183115365E+03  0.00000000000E+00 0. -1.
         21   -1    0    0  502  503 -0.00000000000E+00 -0.00000000000E+00 -0.77249662047E+02  0.77249662047E+02  0.00000000000E+00 0. -1.
          6    1    1    2  501    0  0.88730112307E+02  0.45064037210E+01  0.27865958973E+03  0.33981393064E+03  0.17300000000E+03 0. -1.
         -6    1    1    2    0  503 -0.88730112307E+02 -0.45064037210E+01  0.15592190187E+03  0.24926688506E+03  0.17300000000E+03 0. -1.
<mgrwt>
<rscale>  2 0.19447967E+03</rscale>
<asrwt>0</asrwt>
<pdfrwt beam="1">  1       21 0.78743252E-01 0.19447967E+03</pdfrwt>
<pdfrwt beam="2">  1       21 0.11884564E-01 0.19447967E+03</pdfrwt>
<totfact> 0.85039753E+04</totfact>
</mgrwt>
</event>
<event>
 4    1  0.4043938E+000  0.2189708E+03  0.7546771E-02  0.1134653E+00
         21   -1    0    0  501  502  0.00000000000E+00  0.00000000000E+00  0.10069247782E+04  0.10069247782E+04  0.00000000000E+00 0.  1.
         21   -1    0    0  502  503 -0.00000000000E+00 -0.00000000000E+00 -0.53022836538E+02  0.53022836538E+02  0.00000000000E+00 0.  1.
          6    1    1    2  501    0 -0.10550485235E+03 -0.82993572910E+02  0.64614917065E+03  0.68224406025E+03  0.17300000000E+03 0.  1.
         -6    1    1    2    0  503  0.10550485235E+03  0.82993572910E+02  0.30775277107E+03  0.37770355454E+03  0.17300000000E+03 0.  1.
<mgrwt>
<rscale>  2 0.21897079E+03</rscale>
<asrwt>0</asrwt>
<pdfrwt beam="1">  1       21 0.15491149E+00 0.21897079E+03</pdfrwt>
<pdfrwt beam="2">  1       21 0.81573602E-02 0.21897079E+03</pdfrwt>
<totfact> 0.31332748E+04</totfact>
</mgrwt>
</event>
<event>
 4    1  0.4043938E+000  0.2178840E+03  0.7546771E-02  0.1135471E+00
         21   -1    0    0  503  502  0.00000000000E+00  0.00000000000E+00  0.95182932898E+03  0.95182932898E+03  0.00000000000E+00 0.  1.
         21   -1    0    0  501  503 -0.00000000000E+00 -0.00000000000E+00 -0.68063468254E+02  0.68063468254E+02  0.00000000000E+00 0.  1.
          6    1    1    2  501    0 -0.22724794931E+01  0.13243589535E+03  0.17827787835E+03  0.28152518972E+03  0.17300000000E+03 0.  1.
         -6    1    1    2    0  502  0.22724794931E+01 -0.13243589535E+03  0.70548798238E+03  0.73836760751E+03  0.17300000000E+03 0.  1.
<mgrwt>
<rscale>  2 0.21788398E+03</rscale>
<asrwt>0</asrwt>
<pdfrwt beam="1">  1       21 0.14643527E+00 0.21788398E+03</pdfrwt>
<pdfrwt beam="2">  1       21 0.10471303E-01 0.21788398E+03</pdfrwt>
<totfact> 0.23435135E+04</totfact>
</mgrwt>
</event>
<event>
 4    1  0.4043938E+000  0.1772834E+03  0.7546771E-02  0.1170458E+00
         21   -1    0    0  501  502  0.00000000000E+00  0.00000000000E+00  0.86136801908E+02  0.86136801908E+02  0.00000000000E+00 0. -1.
         21   -1    0    0  502  503 -0.00000000000E+00 -0.00000000000E+00 -0.66089447369E+03  0.66089447369E+03  0.00000000000E+00 0. -1.
          6    1    1    2  501    0  0.10733921707E+02  0.37217880447E+02 -0.37401302557E+02  0.18118566481E+03  0.17300000000E+03 0. -1.
         -6    1    1    2    0  503 -0.10733921707E+02 -0.37217880447E+02 -0.53735636922E+03  0.56584561078E+03  0.17300000000E+03 0. -1.
<mgrwt>
<rscale>  2 0.17728335E+03</rscale>
<asrwt>0</asrwt>
<pdfrwt beam="1">  1       21 0.13251816E-01 0.17728335E+03</pdfrwt>
<pdfrwt beam="2">  1       21 0.10167607E+00 0.17728335E+03</pdfrwt>
<totfact> 0.39068060E+04</totfact>
</mgrwt>
</event>
<event>
 4    1  0.4043938E+000  0.2350230E+03  0.7546771E-02  0.1123153E+00
         21   -1    0    0  503  502  0.00000000000E+00  0.00000000000E+00  0.23923612611E+04  0.23923612611E+04  0.00000000000E+00 0. -1.
         21   -1    0    0  501  503 -0.00000000000E+00 -0.00000000000E+00 -0.49553579850E+02  0.49553579850E+02  0.00000000000E+00 0.  1.
          6    1    1    2  501    0 -0.11512195620E+03  0.10978954450E+03  0.27912545169E+03  0.36489289752E+03  0.17300000000E+03 0.  1.
         -6    1    1    2    0  502  0.11512195620E+03 -0.10978954450E+03  0.20636822295E+04  0.20770219434E+04  0.17300000000E+03 0. -1.
<mgrwt>
<rscale>  2 0.23502300E+03</rscale>
<asrwt>0</asrwt>
<pdfrwt beam="1">  1       21 0.36805549E+00 0.23502300E+03</pdfrwt>
<pdfrwt beam="2">  1       21 0.76236295E-02 0.23502300E+03</pdfrwt>
<totfact> 0.16855855E+03</totfact>
</mgrwt>
</event>
<event>
 4    1  0.4043938E+000  0.1848416E+03  0.7546771E-02  0.1163198E+00
         21   -1    0    0  501  502  0.00000000000E+00  0.00000000000E+00  0.23593592206E+03  0.23593592206E+03  0.00000000000E+00 0.  1.
         21   -1    0    0  502  503 -0.00000000000E+00 -0.00000000000E+00 -0.20577389405E+03  0.20577389405E+03  0.00000000000E+00 0.  1.
          6    1    1    2  501    0  0.64301321136E+02 -0.10136072890E+02  0.13529096810E+03  0.22906341027E+03  0.17300000000E+03 0.  1.
         -6    1    1    2    0  503 -0.64301321136E+02  0.10136072890E+02 -0.10512894009E+03  0.21264640584E+03  0.17300000000E+03 0.  1.
<mgrwt>
<rscale>  2 0.18484155E+03</rscale>
<asrwt>0</asrwt>
<pdfrwt beam="1">  1       21 0.36297834E-01 0.18484155E+03</pdfrwt>
<pdfrwt beam="2">  1       21 0.31657522E-01 0.18484155E+03</pdfrwt>
<totfact> 0.70445328E+04</totfact>
</mgrwt>
</event>
<event>
 4    1  0.4043938E+000  0.1778014E+03  0.7546771E-02  0.1169948E+00
         21   -1    0    0  501  502  0.00000000000E+00  0.00000000000E+00  0.26261924953E+03  0.26261924953E+03  0.00000000000E+00 0. -1.
         21   -1    0    0  502  503 -0.00000000000E+00 -0.00000000000E+00 -0.29762783872E+03  0.29762783872E+03  0.00000000000E+00 0. -1.
          6    1    1    2  501    0 -0.94915342967E+01  0.39928206004E+02  0.19867138375E+03  0.26661520883E+03  0.17300000000E+03 0. -1.
         -6    1    1    2    0  503  0.94915342967E+01 -0.39928206004E+02 -0.23367997294E+03  0.29363187942E+03  0.17300000000E+03 0. -1.
<mgrwt>
<rscale>  2 0.17780144E+03</rscale>
<asrwt>0</asrwt>
<pdfrwt beam="1">  1       21 0.40402962E-01 0.17780144E+03</pdfrwt>
<pdfrwt beam="2">  1       21 0.45788898E-01 0.17780144E+03</pdfrwt>
<totfact> 0.27212569E+04</totfact>
</mgrwt>
</event>
<event>
 4    1  0.4043938E+000  0.3009209E+03  0.7546771E-02  0.1084781E+00
         21   -1    0    0  501  502  0.00000000000E+00  0.00000000000E+00  0.14177064547E+04  0.14177064547E+04  0.00000000000E+00 0.  1.
         21   -1    0    0  502  503 -0.00000000000E+00 -0.00000000000E+00 -0.15732907641E+03  0.15732907641E+03  0.00000000000E+00 0. -1.
          6    1    1    2  501    0  0.14873635566E+03  0.19621891933E+03  0.12371476141E+04  0.12732193789E+04  0.17300000000E+03 0.  1.
         -6    1    1    2    0  503 -0.14873635566E+03 -0.19621891933E+03  0.23229764230E+02  0.30181615222E+03  0.17300000000E+03 0. -1.
<mgrwt>
<rscale>  2 0.30092087E+03</rscale>
<asrwt>0</asrwt>
<pdfrwt beam="1">  1       21 0.21810868E+00 0.30092087E+03</pdfrwt>
<pdfrwt beam="2">  1       21 0.24204474E-01 0.30092087E+03</pdfrwt>
<totfact> 0.15122693E+03</totfact>
</mgrwt>
</event>
<event>
 4    1  0.4043938E+000  0.2493806E+03  0.7546771E-02  0.1113697E+00
         21   -1    0    0  503  502  0.00000000000E+00  0.00000000000E+00  0.53147666735E+02  0.53147666735E+02  0.00000000000E+00 0.  1.
         21   -1    0    0  501  503 -0.00000000000E+00 -0.00000000000E+00 -0.13910823511E+04  0.13910823511E+04  0.00000000000E+00 0. -1.
          6    1    1    2  501    0 -0.16572638921E+03  0.69256410897E+02 -0.38118732211E+03  0.45551559915E+03  0.17300000000E+03 0. -1.
         -6    1    1    2    0  502  0.16572638921E+03 -0.69256410897E+02 -0.95674736229E+03  0.98871441871E+03  0.17300000000E+03 0. -1.
<mgrwt>
<rscale>  2 0.24938061E+03</rscale>
<asrwt>0</asrwt>
<pdfrwt beam="1">  1       21 0.81765652E-02 0.24938061E+03</pdfrwt>
<pdfrwt beam="2">  1       21 0.21401264E+00 0.24938061E+03</pdfrwt>
<totfact> 0.12118444E+04</totfact>
</mgrwt>
</event>
<event>
 4    1  0.4043938E+000  0.2086063E+03  0.7546771E-02  0.1142674E+00
         21   -1    0    0  503  502  0.00000000000E+00  0.00000000000E+00  0.67402519073E+02  0.67402519073E+02  0.00000000000E+00 0. -1.
         21   -1    0    0  501  503 -0.00000000000E+00 -0.00000000000E+00 -0.10063423500E+04  0.10063423500E+04  0.00000000000E+00 0.  1.
          6    1    1    2  501    0 -0.91959515773E+02 -0.71631380202E+02 -0.79089741876E+03  0.81794580149E+03  0.17300000000E+03 0.  1.
         -6    1    1    2    0  502  0.91959515773E+02  0.71631380202E+02 -0.14804241214E+03  0.25579906756E+03  0.17300000000E+03 0. -1.
<mgrwt>
<rscale>  2 0.20860634E+03</rscale>
<asrwt>0</asrwt>
<pdfrwt beam="1">  1       21 0.10369618E-01 0.20860634E+03</pdfrwt>
<pdfrwt beam="2">  1       21 0.15482190E+00 0.20860634E+03</pdfrwt>
<totfact> 0.20698333E+04</totfact>
</mgrwt>
</event>
<event>
 4    1  0.4043938E+000  0.2105925E+03  0.7546771E-02  0.1141098E+00
         21   -1    0    0  503  502  0.00000000000E+00  0.00000000000E+00  0.13277466415E+04  0.13277466415E+04  0.00000000000E+00 0.  1.
         21   -1    0    0  501  503 -0.00000000000E+00 -0.00000000000E+00 -0.15543170925E+03  0.15543170925E+03  0.00000000000E+00 0.  1.
          6    1    1    2  501    0  0.10882020059E+03 -0.50777486752E+02 -0.70935218669E+02  0.22221834862E+03  0.17300000000E+03 0.  1.
         -6    1    1    2    0  502 -0.10882020059E+03  0.50777486752E+02  0.12432501509E+04  0.12609600021E+04  0.17300000000E+03 0.  1.
<mgrwt>
<rscale>  2 0.21059247E+03</rscale>
<asrwt>0</asrwt>
<pdfrwt beam="1">  1       21 0.20426871E+00 0.21059247E+03</pdfrwt>
<pdfrwt beam="2">  1       21 0.23912571E-01 0.21059247E+03</pdfrwt>
<totfact> 0.20413403E+03</totfact>
</mgrwt>
</event>
<event>
 4    1  0.4043938E+000  0.1985532E+03  0.7546771E-02  0.1150965E+00
         21   -1    0    0  503  502  0.00000000000E+00  0.00000000000E+00  0.28884381719E+03  0.28884381719E+03  0.00000000000E+00 0. -1.
         21   -1    0    0  501  503 -0.00000000000E+00 -0.00000000000E+00 -0.51405573698E+03  0.51405573698E+03  0.00000000000E+00 0. -1.
          6    1    1    2  501    0 -0.48790006032E+02 -0.84344058993E+02 -0.45665805858E+03  0.49795578864E+03  0.17300000000E+03 0. -1.
         -6    1    1    2    0  502  0.48790006032E+02  0.84344058993E+02  0.23144613879E+03  0.30494376553E+03  0.17300000000E+03 0. -1.
<mgrwt>
<rscale>  2 0.19855323E+03</rscale>
<asrwt>0</asrwt>
<pdfrwt beam="1">  1       21 0.44437511E-01 0.19855323E+03</pdfrwt>
<pdfrwt beam="2">  1       21 0.79085497E-01 0.19855323E+03</pdfrwt>
<totfact> 0.68335677E+03</totfact>
</mgrwt>
</event>
<event>
 4    1  0.4043938E+000  0.1905670E+03  0.7546771E-02  0.1157951E+00
         21   -1    0    0  503  502  0.00000000000E+00  0.00000000000E+00  0.28150293516E+03  0.28150293516E+03  0.00000000000E+00 0.  1.
         21   -1    0    0  501  503 -0.00000000000E+00 -0.00000000000E+00 -0.12952306540E+03  0.12952306540E+03  0.00000000000E+00 0.  1.
          6    1    1    2  501    0  0.77425280902E+02 -0.19801620585E+02  0.88965431875E+02  0.21031078519E+03  0.17300000000E+03 0.  1.
         -6    1    1    2    0  502 -0.77425280902E+02  0.19801620585E+02  0.63014437885E+02  0.20071521537E+03  0.17300000000E+03 0.  1.
<mgrwt>
<rscale>  2 0.19056699E+03</rscale>
<asrwt>0</asrwt>
<pdfrwt beam="1">  1       21 0.43308144E-01 0.19056699E+03</pdfrwt>
<pdfrwt beam="2">  1       21 0.19926625E-01 0.19056699E+03</pdfrwt>
<totfact> 0.11922047E+05</totfact>
</mgrwt>
</event>
<event>
 4    1  0.4043938E+000  0.1838526E+03  0.7546771E-02  0.1164126E+00
         21   -1    0    0  501  502  0.00000000000E+00  0.00000000000E+00  0.13326288496E+03  0.13326288496E+03  0.00000000000E+00 0.  1.
         21   -1    0    0  502  503 -0.00000000000E+00 -0.00000000000E+00 -0.50581849459E+03  0.50581849459E+03  0.00000000000E+00 0. -1.
          6    1    1    2  501    0 -0.60596471478E+02  0.14171719785E+02  0.39341657608E+02  0.18801472288E+03  0.17300000000E+03 0.  1.
         -6    1    1    2    0  503  0.60596471478E+02 -0.14171719785E+02 -0.41189726724E+03  0.45106665667E+03  0.17300000000E+03 0. -1.
<mgrwt>
<rscale>  2 0.18385258E+03</rscale>
<asrwt>0</asrwt>
<pdfrwt beam="1">  1       21 0.20501982E-01 0.18385258E+03</pdfrwt>
<pdfrwt beam="2">  1       21 0.77818232E-01 0.18385258E+03</pdfrwt>
<totfact> 0.32411273E+04</totfact>
</mgrwt>
</event>
<event>
 4    1  0.4043938E+000  0.1806846E+03  0.7546771E-02  0.1167142E+00
         21   -1    0    0  503  502  0.00000000000E+00  0.00000000000E+00  0.19216778792E+03  0.19216778792E+03  0.00000000000E+00 0. -1.
         21   -1    0    0  501  503 -0.00000000000E+00 -0.00000000000E+00 -0.20654682299E+03  0.20654682299E+03  0.00000000000E+00 0. -1.
          6    1    1    2  501    0 -0.46118522209E+02  0.24310838849E+02 -0.91176928513E+02  0.20238618349E+03  0.17300000000E+03 0. -1.
         -6    1    1    2    0  502  0.46118522209E+02 -0.24310838849E+02  0.76797893435E+02  0.19632842742E+03  0.17300000000E+03 0. -1.
<mgrwt>
<rscale>  2 0.18068463E+03</rscale>
<asrwt>0</asrwt>
<pdfrwt beam="1">  1       21 0.29564275E-01 0.18068463E+03</pdfrwt>
<pdfrwt beam="2">  1       21 0.31776434E-01 0.18068463E+03</pdfrwt>
<totfact> 0.10486687E+05</totfact>
</mgrwt>
</event>
<event>
 4    1  0.4043938E+000  0.2335439E+03  0.7546771E-02  0.1124170E+00
         21   -1    0    0  501  502  0.00000000000E+00  0.00000000000E+00  0.25841016464E+03  0.25841016464E+03  0.00000000000E+00 0.  1.
         21   -1    0    0  502  503 -0.00000000000E+00 -0.00000000000E+00 -0.54881323445E+03  0.54881323445E+03  0.00000000000E+00 0.  1.
          6    1    1    2  501    0 -0.10707597395E+03 -0.11466690415E+03  0.17142292745E+03  0.28970430297E+03  0.17300000000E+03 0.  1.
         -6    1    1    2    0  503  0.10707597395E+03  0.11466690415E+03 -0.46182599726E+03  0.51751909612E+03  0.17300000000E+03 0.  1.
<mgrwt>
<rscale>  2 0.23354392E+03</rscale>
<asrwt>0</asrwt>
<pdfrwt beam="1">  1       21 0.39755410E-01 0.23354392E+03</pdfrwt>
<pdfrwt beam="2">  1       21 0.84432805E-01 0.23354392E+03</pdfrwt>
<totfact> 0.72134199E+03</totfact>
</mgrwt>
</event>
<event>
 4    1  0.4043938E+000  0.1960336E+03  0.7546771E-02  0.1153129E+00
         21   -1    0    0  503  502  0.00000000000E+00  0.00000000000E+00  0.61323970088E+03  0.61323970088E+03  0.00000000000E+00 0. -1.
         21   -1    0    0  501  503 -0.00000000000E+00 -0.00000000000E+00 -0.64178079332E+02  0.64178079332E+02  0.00000000000E+00 0. -1.
          6    1    1    2  501    0  0.91843630343E+02  0.80583201417E+01  0.32652342250E+03  0.38085001562E+03  0.17300000000E+03 0. -1.
         -6    1    1    2    0  502 -0.91843630343E+02 -0.80583201417E+01  0.22253819905E+03  0.29656776459E+03  0.17300000000E+03 0. -1.
<mgrwt>
<rscale>  2 0.19603364E+03</rscale>
<asrwt>0</asrwt>
<pdfrwt beam="1">  1       21 0.94344566E-01 0.19603364E+03</pdfrwt>
<pdfrwt beam="2">  1       21 0.98735511E-02 0.19603364E+03</pdfrwt>
<totfact> 0.78013430E+04</totfact>
</mgrwt>
</event>
<event>
 4    1  0.4043938E+000  0.2038458E+03  0.7546771E-02  0.1146534E+00
         21   -1    0    0  503  502  0.00000000000E+00  0.00000000000E+00  0.30337602448E+03  0.30337602448E+03  0.00000000000E+00 0.  1.
         21   -1    0    0  501  503 -0.00000000000E+00 -0.00000000000E+00 -0.80560874212E+03  0.80560874212E+03  0.00000000000E+00 0.  1.
          6    1    1    2  501    0 -0.79227338720E+02 -0.73124206427E+02 -0.75627708875E+03  0.78326761438E+03  0.17300000000E+03 0.  1.
         -6    1    1    2    0  502  0.79227338720E+02  0.73124206427E+02  0.25404437111E+03  0.32571715223E+03  0.17300000000E+03 0.  1.
<mgrwt>
<rscale>  2 0.20384583E+03</rscale>
<asrwt>0</asrwt>
<pdfrwt beam="1">  1       21 0.46673234E-01 0.20384583E+03</pdfrwt>
<pdfrwt beam="2">  1       21 0.12393981E+00 0.20384583E+03</pdfrwt>
<totfact> 0.21201236E+03</totfact>
</mgrwt>
</event>
<event>
 4    1  0.4043938E+000  0.1735487E+03  0.7546771E-02  0.1174197E+00
         21   -1    0    0  501  502  0.00000000000E+00  0.00000000000E+00  0.44728617573E+03  0.44728617573E+03  0.00000000000E+00 0. -1.
         21   -1    0    0  502  503 -0.00000000000E+00 -0.00000000000E+00 -0.17600797953E+03  0.17600797953E+03  0.00000000000E+00 0. -1.
          6    1    1    2  501    0 -0.13124634751E+02 -0.42289074458E+01  0.38051871729E+03  0.41822677330E+03  0.17300000000E+03 0. -1.
         -6    1    1    2    0  503  0.13124634751E+02  0.42289074458E+01 -0.10924052109E+03  0.20506738196E+03  0.17300000000E+03 0. -1.
<mgrwt>
<rscale>  2 0.17354867E+03</rscale>
<asrwt>0</asrwt>
<pdfrwt beam="1">  1       21 0.68813258E-01 0.17354867E+03</pdfrwt>
<pdfrwt beam="2">  1       21 0.27078151E-01 0.17354867E+03</pdfrwt>
<totfact> 0.25282919E+04</totfact>
</mgrwt>
</event>
<event>
 4    1  0.4043938E+000  0.2663521E+03  0.7546771E-02  0.1103386E+00
         21   -1    0    0  501  502  0.00000000000E+00  0.00000000000E+00  0.66772295299E+02  0.66772295299E+02  0.00000000000E+00 0. -1.
         21   -1    0    0  502  503 -0.00000000000E+00 -0.00000000000E+00 -0.13354713853E+04  0.13354713853E+04  0.00000000000E+00 0.  1.
          6    1    1    2  501    0  0.18336417077E+03 -0.85976939317E+02 -0.31734907455E+03  0.41431134227E+03  0.17300000000E+03 0. -1.
         -6    1    1    2    0  503 -0.18336417077E+03  0.85976939317E+02 -0.95135001546E+03  0.98793233834E+03  0.17300000000E+03 0.  1.
<mgrwt>
<rscale>  2 0.26635212E+03</rscale>
<asrwt>0</asrwt>
<pdfrwt beam="1">  1       21 0.10272662E-01 0.26635212E+03</pdfrwt>
<pdfrwt beam="2">  1       21 0.20545711E+00 0.26635212E+03</pdfrwt>
<totfact> 0.90743953E+03</totfact>
</mgrwt>
</event>
<event>
 4    1  0.4043938E+000  0.2086216E+03  0.7546771E-02  0.1142662E+00
         21   -1    0    0  501  502  0.00000000000E+00  0.00000000000E+00  0.31867236258E+03  0.31867236258E+03  0.00000000000E+00 0.  1.
         21   -1    0    0  502  503 -0.00000000000E+00 -0.00000000000E+00 -0.20420902875E+03  0.20420902875E+03  0.00000000000E+00 0.  1.
          6    1    1    2  501    0 -0.45601395235E+02 -0.10730561155E+03  0.20768966903E+03  0.29437727518E+03  0.17300000000E+03 0.  1.
         -6    1    1    2    0  503  0.45601395235E+02  0.10730561155E+03 -0.93226335207E+02  0.22850411614E+03  0.17300000000E+03 0.  1.
<mgrwt>
<rscale>  2 0.20862162E+03</rscale>
<asrwt>0</asrwt>
<pdfrwt beam="1">  1       21 0.49026518E-01 0.20862162E+03</pdfrwt>
<pdfrwt beam="2">  1       21 0.31416773E-01 0.20862162E+03</pdfrwt>
<totfact> 0.38336108E+04</totfact>
</mgrwt>
</event>
<event>
 4    1  0.4043938E+000  0.1941090E+03  0.7546771E-02  0.1154807E+00
         21   -1    0    0  501  502  0.00000000000E+00  0.00000000000E+00  0.28415293433E+03  0.28415293433E+03  0.00000000000E+00 0. -1.
         21   -1    0    0  502  503 -0.00000000000E+00 -0.00000000000E+00 -0.28102036348E+03  0.28102036348E+03  0.00000000000E+00 0. -1.
          6    1    1    2  501    0 -0.35847611766E+02  0.80400643620E+02  0.20693361928E+03  0.28372493291E+03  0.17300000000E+03 0. -1.
         -6    1    1    2    0  503  0.35847611766E+02 -0.80400643620E+02 -0.20380104843E+03  0.28144836490E+03  0.17300000000E+03 0. -1.
<mgrwt>
<rscale>  2 0.19410903E+03</rscale>
<asrwt>0</asrwt>
<pdfrwt beam="1">  1       21 0.43715836E-01 0.19410903E+03</pdfrwt>
<pdfrwt beam="2">  1       21 0.43233902E-01 0.19410903E+03</pdfrwt>
<totfact> 0.25843577E+04</totfact>
</mgrwt>
</event>
<event>
 4    1  0.4043938E+000  0.1965711E+03  0.7546771E-02  0.1152665E+00
         21   -1    0    0  503  502  0.00000000000E+00  0.00000000000E+00  0.10522475395E+03  0.10522475395E+03  0.00000000000E+00 0.  1.
         21   -1    0    0  501  503 -0.00000000000E+00 -0.00000000000E+00 -0.37131464231E+03  0.37131464231E+03  0.00000000000E+00 0.  1.
          6    1    1    2  501    0 -0.92965786357E+02 -0.82804107634E+01 -0.15807853385E+03  0.25224794449E+03  0.17300000000E+03 0.  1.
         -6    1    1    2    0  502  0.92965786357E+02  0.82804107634E+01 -0.10801135451E+03  0.22429145177E+03  0.17300000000E+03 0.  1.
<mgrwt>
<rscale>  2 0.19657111E+03</rscale>
<asrwt>0</asrwt>
<pdfrwt beam="1">  1       21 0.16188424E-01 0.19657111E+03</pdfrwt>
<pdfrwt beam="2">  1       21 0.57125328E-01 0.19657111E+03</pdfrwt>
<totfact> 0.98069142E+04</totfact>
</mgrwt>
</event>
<event>
 4    1  0.4043938E+000  0.1820278E+03  0.7546771E-02  0.1165855E+00
         21   -1    0    0  501  502  0.00000000000E+00  0.00000000000E+00  0.22325493781E+03  0.22325493781E+03  0.00000000000E+00 0.  1.
         21   -1    0    0  502  503 -0.00000000000E+00 -0.00000000000E+00 -0.18378671954E+03  0.18378671954E+03  0.00000000000E+00 0.  1.
          6    1    1    2  501    0  0.44894531318E+02 -0.34490386930E+02  0.10902095290E+03  0.21217840112E+03  0.17300000000E+03 0.  1.
         -6    1    1    2    0  503 -0.44894531318E+02  0.34490386930E+02 -0.69552734634E+02  0.19486325623E+03  0.17300000000E+03 0.  1.
<mgrwt>
<rscale>  2 0.18202776E+03</rscale>
<asrwt>0</asrwt>
<pdfrwt beam="1">  1       21 0.34346914E-01 0.18202776E+03</pdfrwt>
<pdfrwt beam="2">  1       21 0.28274880E-01 0.18202776E+03</pdfrwt>
<totfact> 0.98053177E+04</totfact>
</mgrwt>
</event>
<event>
 4    1  0.4043938E+000  0.2339932E+03  0.7546771E-02  0.1123860E+00
         21   -1    0    0  501  502  0.00000000000E+00  0.00000000000E+00  0.97238497330E+03  0.97238497330E+03  0.00000000000E+00 0. -1.
         21   -1    0    0  502  503 -0.00000000000E+00 -0.00000000000E+00 -0.14353416172E+03  0.14353416172E+03  0.00000000000E+00 0.  1.
          6    1    1    2  501    0  0.15732759009E+03  0.84760010430E+01  0.84938517107E+03  0.88102666363E+03  0.17300000000E+03 0. -1.
         -6    1    1    2    0  503 -0.15732759009E+03 -0.84760010430E+01 -0.20534359480E+02  0.23489247139E+03  0.17300000000E+03 0.  1.
<mgrwt>
<rscale>  2 0.23399319E+03</rscale>
<asrwt>0</asrwt>
<pdfrwt beam="1">  1       21 0.14959768E+00 0.23399319E+03</pdfrwt>
<pdfrwt beam="2">  1       21 0.22082179E-01 0.23399319E+03</pdfrwt>
<totfact> 0.55881740E+03</totfact>
</mgrwt>
</event>
<event>
 4    1  0.4043938E+000  0.1926419E+03  0.7546771E-02  0.1156100E+00
         21   -1    0    0  503  502  0.00000000000E+00  0.00000000000E+00  0.23731793470E+03  0.23731793470E+03  0.00000000000E+00 0.  1.
         21   -1    0    0  501  503 -0.00000000000E+00 -0.00000000000E+00 -0.15644136448E+03  0.15644136448E+03  0.00000000000E+00 0.  1.
          6    1    1    2  501    0  0.41049773560E+02  0.74140507035E+02  0.44453633003E+02  0.19770438584E+03  0.17300000000E+03 0. -1.
         -6    1    1    2    0  502 -0.41049773560E+02 -0.74140507035E+02  0.36422937217E+02  0.19605491335E+03  0.17300000000E+03 0. -1.
<mgrwt>
<rscale>  2 0.19264189E+03</rscale>
<asrwt>0</asrwt>
<pdfrwt beam="1">  1       21 0.36510452E-01 0.19264189E+03</pdfrwt>
<pdfrwt beam="2">  1       21 0.24067902E-01 0.19264189E+03</pdfrwt>
<totfact> 0.11781938E+05</totfact>
</mgrwt>
</event>
<event>
 4    1  0.4043938E+000  0.2011726E+03  0.7546771E-02  0.1148753E+00
         21   -1    0    0  501  502  0.00000000000E+00  0.00000000000E+00  0.13945420092E+03  0.13945420092E+03  0.00000000000E+00 0. -1.
         21   -1    0    0  502  503 -0.00000000000E+00 -0.00000000000E+00 -0.46680789690E+03  0.46680789690E+03  0.00000000000E+00 0. -1.
          6    1    1    2  501    0 -0.10259797512E+03 -0.38842063828E+01  0.22771754732E+02  0.20245736433E+03  0.17300000000E+03 0. -1.
         -6    1    1    2    0  503  0.10259797512E+03  0.38842063828E+01 -0.35012545071E+03  0.40380473349E+03  0.17300000000E+03 0. -1.
<mgrwt>
<rscale>  2 0.20117264E+03</rscale>
<asrwt>0</asrwt>
<pdfrwt beam="1">  1       21 0.21454493E-01 0.20117264E+03</pdfrwt>
<pdfrwt beam="2">  1       21 0.71816598E-01 0.20117264E+03</pdfrwt>
<totfact> 0.35271981E+04</totfact>
</mgrwt>
</event>
<event>
 4    1  0.4043938E+000  0.2829206E+03  0.7546771E-02  0.1094104E+00
         21   -1    0    0  503  502  0.00000000000E+00  0.00000000000E+00  0.24777735336E+03  0.24777735336E+03  0.00000000000E+00 0. -1.
         21   -1    0    0  501  503 -0.00000000000E+00 -0.00000000000E+00 -0.35503536935E+03  0.35503536935E+03  0.00000000000E+00 0. -1.
          6    1    1    2  501    0 -0.59313348538E+02  0.21586341195E+03  0.36840644353E+02  0.28530916391E+03  0.17300000000E+03 0. -1.
         -6    1    1    2    0  502  0.59313348538E+02 -0.21586341195E+03 -0.14409866034E+03  0.31750355880E+03  0.17300000000E+03 0. -1.
<mgrwt>
<rscale>  2 0.28292064E+03</rscale>
<asrwt>0</asrwt>
<pdfrwt beam="1">  1       21 0.38119593E-01 0.28292064E+03</pdfrwt>
<pdfrwt beam="2">  1       21 0.54620826E-01 0.28292064E+03</pdfrwt>
<totfact> 0.20061622E+04</totfact>
</mgrwt>
</event>
<event>
 4    1  0.4043938E+000  0.1805896E+03  0.7546771E-02  0.1167234E+00
         21   -1    0    0  503  502  0.00000000000E+00  0.00000000000E+00  0.41266921226E+03  0.41266921226E+03  0.00000000000E+00 0. -1.
         21   -1    0    0  501  503 -0.00000000000E+00 -0.00000000000E+00 -0.80506313380E+02  0.80506313380E+02  0.00000000000E+00 0. -1.
          6    1    1    2  501    0  0.31589289725E+02 -0.41057571375E+02  0.13267164105E+03  0.22408563482E+03  0.17300000000E+03 0.  1.
         -6    1    1    2    0  502 -0.31589289725E+02  0.41057571375E+02  0.19949125783E+03  0.26908989082E+03  0.17300000000E+03 0.  1.
<mgrwt>
<rscale>  2 0.18058961E+03</rscale>
<asrwt>0</asrwt>
<pdfrwt beam="1">  1       21 0.63487570E-01 0.18058961E+03</pdfrwt>
<pdfrwt beam="2">  1       21 0.12385587E-01 0.18058961E+03</pdfrwt>
<totfact> 0.12773602E+05</totfact>
</mgrwt>
</event>
<event>
 4    1  0.4043938E+000  0.2470815E+03  0.7546771E-02  0.1115163E+00
         21   -1    0    0  501  502  0.00000000000E+00  0.00000000000E+00  0.21261386019E+03  0.21261386019E+03  0.00000000000E+00 0.  1.
         21   -1    0    0  502  503 -0.00000000000E+00 -0.00000000000E+00 -0.36557059603E+03  0.36557059603E+03  0.00000000000E+00 0.  1.
          6    1    1    2  501    0 -0.17591326769E+03  0.13221287229E+02  0.57428295024E+02  0.25366767483E+03  0.17300000000E+03 0.  1.
         -6    1    1    2    0  503  0.17591326769E+03 -0.13221287229E+02 -0.21038503087E+03  0.32451678138E+03  0.17300000000E+03 0.  1.
<mgrwt>
<rscale>  2 0.24708153E+03</rscale>
<asrwt>0</asrwt>
<pdfrwt beam="1">  1       21 0.32709825E-01 0.24708153E+03</pdfrwt>
<pdfrwt beam="2">  1       21 0.56241630E-01 0.24708153E+03</pdfrwt>
<totfact> 0.26015688E+04</totfact>
</mgrwt>
</event>
<event>
 4    1  0.4043938E+000  0.2134122E+03  0.7546771E-02  0.1138892E+00
         21   -1    0    0  503  502  0.00000000000E+00  0.00000000000E+00  0.13449543695E+04  0.13449543695E+04  0.00000000000E+00 0.  1.
         21   -1    0    0  501  503 -0.00000000000E+00 -0.00000000000E+00 -0.36069977176E+02  0.36069977176E+02  0.00000000000E+00 0.  1.
          6    1    1    2  501    0 -0.11224228853E+03 -0.54931303567E+02  0.82522895119E+03  0.85237761663E+03  0.17300000000E+03 0.  1.
         -6    1    1    2    0  502  0.11224228853E+03  0.54931303567E+02  0.48365544109E+03  0.52864673000E+03  0.17300000000E+03 0.  1.
<mgrwt>
<rscale>  2 0.21341223E+03</rscale>
<asrwt>0</asrwt>
<pdfrwt beam="1">  1       21 0.20691602E+00 0.21341223E+03</pdfrwt>
<pdfrwt beam="2">  1       21 0.55492283E-02 0.21341223E+03</pdfrwt>
<totfact> 0.26931377E+04</totfact>
</mgrwt>
</event>
<event>
 4    1  0.4043938E+000  0.1806676E+03  0.7546771E-02  0.1167158E+00
         21   -1    0    0  503  502  0.00000000000E+00  0.00000000000E+00  0.45314693406E+03  0.45314693406E+03  0.00000000000E+00 0.  1.
         21   -1    0    0  501  503 -0.00000000000E+00 -0.00000000000E+00 -0.18489388376E+03  0.18489388376E+03  0.00000000000E+00 0.  1.
          6    1    1    2  501    0  0.41140230375E+02  0.31926109537E+02 -0.11512168709E+03  0.21422837782E+03  0.17300000000E+03 0.  1.
         -6    1    1    2    0  502 -0.41140230375E+02 -0.31926109537E+02  0.38337473739E+03  0.42381244000E+03  0.17300000000E+03 0.  1.
<mgrwt>
<rscale>  2 0.18066764E+03</rscale>
<asrwt>0</asrwt>
<pdfrwt beam="1">  1       21 0.69714913E-01 0.18066764E+03</pdfrwt>
<pdfrwt beam="2">  1       21 0.28445213E-01 0.18066764E+03</pdfrwt>
<totfact> 0.22249552E+04</totfact>
</mgrwt>
</event>
<event>
 4    1  0.4043938E+000  0.1747069E+03  0.7546771E-02  0.1173026E+00
         21   -1    0    0  503  502  0.00000000000E+00  0.00000000000E+00  0.64309507129E+02  0.64309507129E+02  0.00000000000E+00 0.  1.
         21   -1    0    0  501  503 -0.00000000000E+00 -0.00000000000E+00 -0.72910825190E+03  0.72910825190E+03  0.00000000000E+00 0.  1.
          6    1    1    2  501    0 -0.23919263188E+02 -0.46238786587E+01 -0.56677404105E+03  0.59308964332E+03  0.17300000000E+03 0.  1.
         -6    1    1    2    0  502  0.23919263188E+02  0.46238786587E+01 -0.98024703728E+02  0.20032811572E+03  0.17300000000E+03 0.  1.
<mgrwt>
<rscale>  2 0.17470693E+03</rscale>
<asrwt>0</asrwt>
<pdfrwt beam="1">  1       21 0.98937700E-02 0.17470693E+03</pdfrwt>
<pdfrwt beam="2">  1       21 0.11217050E+00 0.17470693E+03</pdfrwt>
<totfact> 0.51982488E+04</totfact>
</mgrwt>
</event>
<event>
 4    1  0.4043938E+000  0.2168267E+03  0.7546771E-02  0.1136271E+00
         21   -1    0    0  501  502  0.00000000000E+00  0.00000000000E+00  0.19292071745E+04  0.19292071745E+04  0.00000000000E+00 0.  1.
         21   -1    0    0  502  503 -0.00000000000E+00 -0.00000000000E+00 -0.25333532682E+02  0.25333532682E+02  0.00000000000E+00 0.  1.
          6    1    1    2  501    0  0.12652219642E+03 -0.32816866534E+02  0.76129732554E+03  0.79157275774E+03  0.17300000000E+03 0.  1.
         -6    1    1    2    0  503 -0.12652219642E+03  0.32816866534E+02  0.11425763162E+04  0.11629679494E+04  0.17300000000E+03 0.  1.
<mgrwt>
<rscale>  2 0.21682669E+03</rscale>
<asrwt>0</asrwt>
<pdfrwt beam="1">  1       21 0.29680099E+00 0.21682669E+03</pdfrwt>
<pdfrwt beam="2">  1       21 0.38974681E-02 0.21682669E+03</pdfrwt>
<totfact> 0.14233821E+04</totfact>
</mgrwt>
</event>
<event>
 4    1  0.4043938E+000  0.1738796E+03  0.7546771E-02  0.1173861E+00
         21   -1    0    0  503  502  0.00000000000E+00  0.00000000000E+00  0.59477336512E+03  0.59477336512E+03  0.00000000000E+00 0. -1.
         21   -1    0    0  501  503 -0.00000000000E+00 -0.00000000000E+00 -0.55706570348E+02  0.55706570348E+02  0.00000000000E+00 0. -1.
          6    1    1    2  501    0 -0.16424466911E+02 -0.59452638039E+01  0.17333347815E+03  0.24551701351E+03  0.17300000000E+03 0. -1.
         -6    1    1    2    0  502  0.16424466911E+02  0.59452638039E+01  0.36573331662E+03  0.40496292196E+03  0.17300000000E+03 0. -1.
<mgrwt>
<rscale>  2 0.17387958E+03</rscale>
<asrwt>0</asrwt>
<pdfrwt beam="1">  1       21 0.91503590E-01 0.17387958E+03</pdfrwt>
<pdfrwt beam="2">  1       21 0.85702420E-02 0.17387958E+03</pdfrwt>
<totfact> 0.10839681E+05</totfact>
</mgrwt>
</event>
<event>
 4    1  0.4043938E+000  0.4097263E+03  0.7546771E-02  0.1040463E+00
         21   -1    0    0  503  502  0.00000000000E+00  0.00000000000E+00  0.35307297958E+04  0.35307297958E+04  0.00000000000E+00 0.  1.
         21   -1    0    0  501  503 -0.00000000000E+00 -0.00000000000E+00 -0.51567642457E+02  0.51567642457E+02  0.00000000000E+00 0. -1.
          6    1    1    2  501    0 -0.23372498132E+02  0.37067559022E+03  0.12394430690E+04  0.13054098162E+04  0.17300000000E+03 0. -1.
         -6    1    1    2    0  502  0.23372498132E+02 -0.37067559022E+03  0.22397190843E+04  0.22768876221E+04  0.17300000000E+03 0.  1.
<mgrwt>
<rscale>  2 0.40972633E+03</rscale>
<asrwt>0</asrwt>
<pdfrwt beam="1">  1       21 0.54318901E+00 0.40972633E+03</pdfrwt>
<pdfrwt beam="2">  1       21 0.79334862E-02 0.40972633E+03</pdfrwt>
<totfact> 0.87085773E+01</totfact>
</mgrwt>
</event>
<event>
 4    1  0.4043938E+000  0.2284414E+03  0.7546771E-02  0.1127742E+00
         21   -1    0    0  501  502  0.00000000000E+00  0.00000000000E+00  0.72452699046E+02  0.72452699046E+02  0.00000000000E+00 0. -1.
         21   -1    0    0  502  503 -0.00000000000E+00 -0.00000000000E+00 -0.73345346964E+03  0.73345346964E+03  0.00000000000E+00 0. -1.
          6    1    1    2  501    0 -0.14482740320E+03  0.35798299797E+02 -0.27647654387E+03  0.35864296215E+03  0.17300000000E+03 0. -1.
         -6    1    1    2    0  503  0.14482740320E+03 -0.35798299797E+02 -0.38452422672E+03  0.44726320654E+03  0.17300000000E+03 0. -1.
<mgrwt>
<rscale>  2 0.22844145E+03</rscale>
<asrwt>0</asrwt>
<pdfrwt beam="1">  1       21 0.11146569E-01 0.22844145E+03</pdfrwt>
<pdfrwt beam="2">  1       21 0.11283900E+00 0.22844145E+03</pdfrwt>
<totfact> 0.40333624E+04</totfact>
</mgrwt>
</event>
<event>
 4    1  0.4043938E+000  0.1870234E+03  0.7546771E-02  0.1161174E+00
         21   -1    0    0  501  502  0.00000000000E+00  0.00000000000E+00  0.16072496595E+04  0.16072496595E+04  0.00000000000E+00 0. -1.
         21   -1    0    0  502  503 -0.00000000000E+00 -0.00000000000E+00 -0.44257495206E+02  0.44257495206E+02  0.00000000000E+00 0. -1.
          6    1    1    2  501    0 -0.26793171351E+02 -0.65809399502E+02  0.13702043277E+04  0.13829091260E+04  0.17300000000E+03 0. -1.
         -6    1    1    2    0  503  0.26793171351E+02  0.65809399502E+02  0.19278783660E+03  0.26859802873E+03  0.17300000000E+03 0. -1.
<mgrwt>
<rscale>  2 0.18702340E+03</rscale>
<asrwt>0</asrwt>
<pdfrwt beam="1">  1       21 0.24726913E+00 0.18702340E+03</pdfrwt>
<pdfrwt beam="2">  1       21 0.68088466E-02 0.18702340E+03</pdfrwt>
<totfact> 0.11007249E+04</totfact>
</mgrwt>
</event>
<event>
 4    1  0.4043938E+000  0.1992202E+03  0.7546771E-02  0.1150399E+00
         21   -1    0    0  503  502  0.00000000000E+00  0.00000000000E+00  0.22531392299E+03  0.22531392299E+03  0.00000000000E+00 0.  1.
         21   -1    0    0  501  503 -0.00000000000E+00 -0.00000000000E+00 -0.24582702178E+03  0.24582702178E+03  0.00000000000E+00 0. -1.
          6    1    1    2  501    0 -0.31543660364E+02 -0.93619886764E+02 -0.13567338453E+03  0.24103102078E+03  0.17300000000E+03 0. -1.
         -6    1    1    2    0  502  0.31543660364E+02  0.93619886764E+02  0.11516028575E+03  0.23010992399E+03  0.17300000000E+03 0.  1.
<mgrwt>
<rscale>  2 0.19922019E+03</rscale>
<asrwt>0</asrwt>
<pdfrwt beam="1">  1       21 0.34663681E-01 0.19922019E+03</pdfrwt>
<pdfrwt beam="2">  1       21 0.37819542E-01 0.19922019E+03</pdfrwt>
<totfact> 0.53917172E+04</totfact>
</mgrwt>
</event>
<event>
 4    1  0.4043938E+000  0.1775378E+03  0.7546771E-02  0.1170207E+00
         21   -1    0    0  503  502  0.00000000000E+00  0.00000000000E+00  0.24750123741E+02  0.24750123741E+02  0.00000000000E+00 0.  1.
         21   -1    0    0  501  503 -0.00000000000E+00 -0.00000000000E+00 -0.14781737739E+04  0.14781737739E+04  0.00000000000E+00 0.  1.
          6    1    1    2  501    0  0.34420305709E+02  0.20147443920E+02 -0.10063255220E+04  0.10218662990E+04  0.17300000000E+03 0.  1.
         -6    1    1    2    0  502 -0.34420305709E+02 -0.20147443920E+02 -0.44709812817E+03  0.48105759858E+03  0.17300000000E+03 0.  1.
<mgrwt>
<rscale>  2 0.17753782E+03</rscale>
<asrwt>0</asrwt>
<pdfrwt beam="1">  1       21 0.38077110E-02 0.17753782E+03</pdfrwt>
<pdfrwt beam="2">  1       21 0.22741137E+00 0.17753782E+03</pdfrwt>
<totfact> 0.39026923E+04</totfact>
</mgrwt>
</event>
<event>
 4    1  0.4043938E+000  0.2585049E+03  0.7546771E-02  0.1108045E+00
         21   -1    0    0  503  502  0.00000000000E+00  0.00000000000E+00  0.65405123805E+02  0.65405123805E+02  0.00000000000E+00 0.  1.
         21   -1    0    0  501  503 -0.00000000000E+00 -0.00000000000E+00 -0.15369998002E+04  0.15369998002E+04  0.00000000000E+00 0.  1.
          6    1    1    2  501    0  0.13258803621E+03 -0.13898279628E+03 -0.11997063870E+04  0.12272408973E+04  0.17300000000E+03 0. -1.
         -6    1    1    2    0  502 -0.13258803621E+03  0.13898279628E+03 -0.27188828934E+03  0.37516402664E+03  0.17300000000E+03 0. -1.
<mgrwt>
<rscale>  2 0.25850494E+03</rscale>
<asrwt>0</asrwt>
<pdfrwt beam="1">  1       21 0.10062326E-01 0.25850494E+03</pdfrwt>
<pdfrwt beam="2">  1       21 0.23646151E+00 0.25850494E+03</pdfrwt>
<totfact> 0.60662148E+03</totfact>
</mgrwt>
</event>
<event>
 4    1  0.4043938E+000  0.2578756E+03  0.7546771E-02  0.1108426E+00
         21   -1    0    0  501  502  0.00000000000E+00  0.00000000000E+00  0.59191983957E+02  0.59191983957E+02  0.00000000000E+00 0.  1.
         21   -1    0    0  502  503 -0.00000000000E+00 -0.00000000000E+00 -0.11240862907E+04  0.11240862907E+04  0.00000000000E+00 0. -1.
          6    1    1    2  501    0 -0.18995069129E+03  0.22125607133E+02 -0.54641580398E+03  0.60421026013E+03  0.17300000000E+03 0.  1.
         -6    1    1    2    0  503  0.18995069129E+03 -0.22125607133E+02 -0.51847850276E+03  0.57906801452E+03  0.17300000000E+03 0. -1.
<mgrwt>
<rscale>  2 0.25787557E+03</rscale>
<asrwt>0</asrwt>
<pdfrwt beam="1">  1       21 0.91064593E-02 0.25787557E+03</pdfrwt>
<pdfrwt beam="2">  1       21 0.17293635E+00 0.25787557E+03</pdfrwt>
<totfact> 0.18680746E+04</totfact>
</mgrwt>
</event>
<event>
 4    1  0.4043938E+000  0.2119110E+03  0.7546771E-02  0.1140062E+00
         21   -1    0    0  503  502  0.00000000000E+00  0.00000000000E+00  0.11363585797E+03  0.11363585797E+03  0.00000000000E+00 0.  1.
         21   -1    0    0  501  503 -0.00000000000E+00 -0.00000000000E+00 -0.42686059518E+03  0.42686059518E+03  0.00000000000E+00 0.  1.
          6    1    1    2  501    0 -0.43458471639E+00  0.12238088088E+03 -0.82985290652E+02  0.22758037555E+03  0.17300000000E+03 0.  1.
         -6    1    1    2    0  502  0.43458471639E+00 -0.12238088088E+03 -0.23023944656E+03  0.31291607760E+03  0.17300000000E+03 0.  1.
<mgrwt>
<rscale>  2 0.21191099E+03</rscale>
<asrwt>0</asrwt>
<pdfrwt beam="1">  1       21 0.17482439E-01 0.21191099E+03</pdfrwt>
<pdfrwt beam="2">  1       21 0.65670862E-01 0.21191099E+03</pdfrwt>
<totfact> 0.62591742E+04</totfact>
</mgrwt>
</event>
<event>
 4    1  0.4043938E+000  0.2311908E+03  0.7546771E-02  0.1125804E+00
         21   -1    0    0  503  502  0.00000000000E+00  0.00000000000E+00  0.85498226735E+02  0.85498226735E+02  0.00000000000E+00 0.  1.
         21   -1    0    0  501  503 -0.00000000000E+00 -0.00000000000E+00 -0.63278190973E+03  0.63278190973E+03  0.00000000000E+00 0.  1.
          6    1    1    2  501    0  0.31961153484E+02  0.14999549753E+03 -0.23419877300E+03  0.32908696402E+03  0.17300000000E+03 0.  1.
         -6    1    1    2    0  502 -0.31961153484E+02 -0.14999549753E+03 -0.31308491000E+03  0.38919317245E+03  0.17300000000E+03 0.  1.
<mgrwt>
<rscale>  2 0.23119075E+03</rscale>
<asrwt>0</asrwt>
<pdfrwt beam="1">  1       21 0.13153574E-01 0.23119075E+03</pdfrwt>
<pdfrwt beam="2">  1       21 0.97351060E-01 0.23119075E+03</pdfrwt>
<totfact> 0.42694981E+04</totfact>
</mgrwt>
</event>
<event>
 4    1  0.4043938E+000  0.1955582E+03  0.7546771E-02  0.1153542E+00
         21   -1    0    0  503  502  0.00000000000E+00  0.00000000000E+00  0.18439563628E+03  0.18439563628E+03  0.00000000000E+00 0. -1.
         21   -1    0    0  501  503 -0.00000000000E+00 -0.00000000000E+00 -0.58318373629E+03  0.58318373629E+03  0.00000000000E+00 0. -1.
          6    1    1    2  501    0  0.75709396669E+02 -0.50814494802E+02 -0.50747266975E+03  0.54384881738E+03  0.17300000000E+03 0. -1.
         -6    1    1    2    0  502 -0.75709396669E+02  0.50814494802E+02  0.10868456974E+03  0.22373055519E+03  0.17300000000E+03 0. -1.
<mgrwt>
<rscale>  2 0.19555824E+03</rscale>
<asrwt>0</asrwt>
<pdfrwt beam="1">  1       21 0.28368560E-01 0.19555824E+03</pdfrwt>
<pdfrwt beam="2">  1       21 0.89720573E-01 0.19555824E+03</pdfrwt>
<totfact> 0.12545863E+04</totfact>
</mgrwt>
</event>
<event>
 4    1  0.4043938E+000  0.1730262E+03  0.7546771E-02  0.1174728E+00
         21   -1    0    0  501  502  0.00000000000E+00  0.00000000000E+00  0.43307685708E+03  0.43307685708E+03  0.00000000000E+00 0.  1.
         21   -1    0    0  502  503 -0.00000000000E+00 -0.00000000000E+00 -0.11992717364E+03  0.11992717364E+03  0.00000000000E+00 0.  1.
          6    1    1    2  501    0  0.95049409429E+00  0.28556084295E+01  0.33653014821E+03  0.37840533637E+03  0.17300000000E+03 0.  1.
         -6    1    1    2    0  503 -0.95049409429E+00 -0.28556084295E+01 -0.23380464771E+02  0.17459869436E+03  0.17300000000E+03 0.  1.
<mgrwt>
<rscale>  2 0.17302618E+03</rscale>
<asrwt>0</asrwt>
<pdfrwt beam="1">  1       21 0.66627208E-01 0.17302618E+03</pdfrwt>
<pdfrwt beam="2">  1       21 0.18450335E-01 0.17302618E+03</pdfrwt>
<totfact> 0.55898712E+04</totfact>
</mgrwt>
</event>
<event>
 4    1  0.4043938E+000  0.3202519E+03  0.7546771E-02  0.1075533E+00
         21   -1    0    0  501  502  0.00000000000E+00  0.00000000000E+00  0.32146323196E+03  0.32146323196E+03  0.00000000000E+00 0.  1.
         21   -1    0    0  502  503 -0.00000000000E+00 -0.00000000000E+00 -0.36934350886E+03  0.36934350886E+03  0.00000000000E+00 0. -1.
          6    1    1    2  501    0 -0.23346061713E+03  0.13464177530E+03  0.10352413660E+03  0.33656873632E+03  0.17300000000E+03 0.  1.
         -6    1    1    2    0  503  0.23346061713E+03 -0.13464177530E+03 -0.15140441350E+03  0.35423800450E+03  0.17300000000E+03 0. -1.
<mgrwt>
<rscale>  2 0.32025188E+03</rscale>
<asrwt>0</asrwt>
<pdfrwt beam="1">  1       21 0.49455882E-01 0.32025188E+03</pdfrwt>
<pdfrwt beam="2">  1       21 0.56822078E-01 0.32025188E+03</pdfrwt>
<totfact> 0.10597755E+04</totfact>
</mgrwt>
</event>
<event>
 4    1  0.4043938E+000  0.2204055E+03  0.7546771E-02  0.1133581E+00
         21   -1    0    0  503  502  0.00000000000E+00  0.00000000000E+00  0.62642080126E+03  0.62642080126E+03  0.00000000000E+00 0.  1.
         21   -1    0    0  501  503 -0.00000000000E+00 -0.00000000000E+00 -0.13829085867E+03  0.13829085867E+03  0.00000000000E+00 0. -1.
          6    1    1    2  501    0 -0.13602063680E+03 -0.12163749673E+02 -0.93390563061E+01  0.22060323754E+03  0.17300000000E+03 0. -1.
         -6    1    1    2    0  502  0.13602063680E+03  0.12163749673E+02  0.49746899890E+03  0.54410842238E+03  0.17300000000E+03 0.  1.
<mgrwt>
<rscale>  2 0.22040547E+03</rscale>
<asrwt>0</asrwt>
<pdfrwt beam="1">  1       21 0.96372430E-01 0.22040547E+03</pdfrwt>
<pdfrwt beam="2">  1       21 0.21275517E-01 0.22040547E+03</pdfrwt>
<totfact> 0.18105090E+04</totfact>
</mgrwt>
</event>
<event>
 4    1  0.4043938E+000  0.1758452E+03  0.7546771E-02  0.1171886E+00
         21   -1    0    0  503  502  0.00000000000E+00  0.00000000000E+00  0.66944004910E+03  0.66944004910E+03  0.00000000000E+00 0. -1.
         21   -1    0    0  501  503 -0.00000000000E+00 -0.00000000000E+00 -0.47327463228E+02  0.47327463228E+02  0.00000000000E+00 0.  1.
          6    1    1    2  501    0  0.22460551384E+02  0.22092311035E+02  0.25550056869E+03  0.31016461303E+03  0.17300000000E+03 0.  1.
         -6    1    1    2    0  502 -0.22460551384E+02 -0.22092311035E+02  0.36661201718E+03  0.40660289930E+03  0.17300000000E+03 0. -1.
<mgrwt>
<rscale>  2 0.17584523E+03</rscale>
<asrwt>0</asrwt>
<pdfrwt beam="1">  1       21 0.10299077E+00 0.17584523E+03</pdfrwt>
<pdfrwt beam="2">  1       21 0.72811487E-02 0.17584523E+03</pdfrwt>
<totfact> 0.10887733E+05</totfact>
</mgrwt>
</event>
<event>
 4    1  0.4043938E+000  0.2018525E+03  0.7546771E-02  0.1148185E+00
         21   -1    0    0  503  502  0.00000000000E+00  0.00000000000E+00  0.75898361948E+02  0.75898361948E+02  0.00000000000E+00 0. -1.
         21   -1    0    0  501  503 -0.00000000000E+00 -0.00000000000E+00 -0.60956879144E+03  0.60956879144E+03  0.00000000000E+00 0. -1.
          6    1    1    2  501    0  0.92702330764E+02  0.47135083117E+02 -0.38522969541E+03  0.43490959568E+03  0.17300000000E+03 0. -1.
         -6    1    1    2    0  502 -0.92702330764E+02 -0.47135083117E+02 -0.14844073408E+03  0.25055755771E+03  0.17300000000E+03 0. -1.
<mgrwt>
<rscale>  2 0.20185252E+03</rscale>
<asrwt>0</asrwt>
<pdfrwt beam="1">  1       21 0.11676671E-01 0.20185252E+03</pdfrwt>
<pdfrwt beam="2">  1       21 0.93779816E-01 0.20185252E+03</pdfrwt>
<totfact> 0.58565943E+04</totfact>
</mgrwt>
</event>
<event>
 4    1  0.4043938E+000  0.1781929E+03  0.7546771E-02  0.1169563E+00
         21   -1    0    0  501  502  0.00000000000E+00  0.00000000000E+00  0.10530149306E+04  0.10530149306E+04  0.00000000000E+00 0.  1.
         21   -1    0    0  502  503 -0.00000000000E+00 -0.00000000000E+00 -0.46157903663E+02  0.46157903663E+02  0.00000000000E+00 0.  1.
          6    1    1    2  501    0  0.25193272303E+02 -0.34482186371E+02  0.82704042607E+03  0.84601926013E+03  0.17300000000E+03 0.  1.
         -6    1    1    2    0  503 -0.25193272303E+02  0.34482186371E+02  0.17981660082E+03  0.25315357410E+03  0.17300000000E+03 0.  1.
<mgrwt>
<rscale>  2 0.17819294E+03</rscale>
<asrwt>0</asrwt>
<pdfrwt beam="1">  1       21 0.16200228E+00 0.17819294E+03</pdfrwt>
<pdfrwt beam="2">  1       21 0.71012167E-02 0.17819294E+03</pdfrwt>
<totfact> 0.36238524E+04</totfact>
</mgrwt>
</event>
<event>
 4    1  0.4043938E+000  0.2428366E+03  0.7546771E-02  0.1117917E+00
         21   -1    0    0  501  502  0.00000000000E+00  0.00000000000E+00  0.12795804710E+03  0.12795804710E+03  0.00000000000E+00 0.  1.
         21   -1    0    0  502  503 -0.00000000000E+00 -0.00000000000E+00 -0.48192248188E+03  0.48192248188E+03  0.00000000000E+00 0.  1.
          6    1    1    2  501    0  0.14423989685E+03  0.90749578054E+02 -0.11321895726E+03  0.26793313726E+03  0.17300000000E+03 0.  1.
         -6    1    1    2    0  503 -0.14423989685E+03 -0.90749578054E+02 -0.24074547751E+03  0.34194739172E+03  0.17300000000E+03 0.  1.
<mgrwt>
<rscale>  2 0.24283664E+03</rscale>
<asrwt>0</asrwt>
<pdfrwt beam="1">  1       21 0.19685853E-01 0.24283664E+03</pdfrwt>
<pdfrwt beam="2">  1       21 0.74141920E-01 0.24283664E+03</pdfrwt>
<totfact> 0.37842487E+04</totfact>
</mgrwt>
</event>
<event>
 4    1  0.4043938E+000  0.2982447E+03  0.7546771E-02  0.1086121E+00
         21   -1    0    0  501  502  0.00000000000E+00  0.00000000000E+00  0.10079906722E+04  0.10079906722E+04  0.00000000000E+00 0. -1.
         21   -1    0    0  502  503 -0.00000000000E+00 -0.00000000000E+00 -0.91857047448E+02  0.91857047448E+02  0.00000000000E+00 0. -1.
          6    1    1    2  501    0  0.93545522798E+02 -0.22421001038E+03  0.56711979648E+03  0.64076107649E+03  0.17300000000E+03 0. -1.
         -6    1    1    2    0  503 -0.93545522798E+02  0.22421001038E+03  0.34901382824E+03  0.45908664312E+03  0.17300000000E+03 0. -1.
<mgrwt>
<rscale>  2 0.29824469E+03</rscale>
<asrwt>0</asrwt>
<pdfrwt beam="1">  1       21 0.15507548E+00 0.29824469E+03</pdfrwt>
<pdfrwt beam="2">  1       21 0.14131854E-01 0.29824469E+03</pdfrwt>
<totfact> 0.11214446E+04</totfact>
</mgrwt>
</event>
<event>
 4    1  0.4043938E+000  0.2271215E+03  0.7546771E-02  0.1128682E+00
         21   -1    0    0  501  502  0.00000000000E+00  0.00000000000E+00  0.22574339518E+03  0.22574339518E+03  0.00000000000E+00 0.  1.
         21   -1    0    0  502  503 -0.00000000000E+00 -0.00000000000E+00 -0.25086218916E+03  0.25086218916E+03  0.00000000000E+00 0. -1.
          6    1    1    2  501    0  0.23622249690E+02  0.14524862335E+03  0.58576845662E+02  0.23455366148E+03  0.17300000000E+03 0.  1.
         -6    1    1    2    0  503 -0.23622249690E+02 -0.14524862335E+03 -0.83695639642E+02  0.24205192286E+03  0.17300000000E+03 0.  1.
<mgrwt>
<rscale>  2 0.22712149E+03</rscale>
<asrwt>0</asrwt>
<pdfrwt beam="1">  1       21 0.34729753E-01 0.22712149E+03</pdfrwt>
<pdfrwt beam="2">  1       21 0.38594183E-01 0.22712149E+03</pdfrwt>
<totfact> 0.50913644E+04</totfact>
</mgrwt>
</event>
<event>
 4    1  0.4043938E+000  0.2360497E+03  0.7546771E-02  0.1122453E+00
         21   -1    0    0  501  502  0.00000000000E+00  0.00000000000E+00  0.26502470466E+03  0.26502470466E+03  0.00000000000E+00 0.  1.
         21   -1    0    0  502  503 -0.00000000000E+00 -0.00000000000E+00 -0.25185642883E+03  0.25185642883E+03  0.00000000000E+00 0.  1.
          6    1    1    2  501    0 -0.68877340604E+02 -0.14507366380E+03  0.11163594657E+03  0.26111690972E+03  0.17300000000E+03 0.  1.
         -6    1    1    2    0  503  0.68877340604E+02  0.14507366380E+03 -0.98467670739E+02  0.25576422376E+03  0.17300000000E+03 0.  1.
<mgrwt>
<rscale>  2 0.23604969E+03</rscale>
<asrwt>0</asrwt>
<pdfrwt beam="1">  1       21 0.40773031E-01 0.23604969E+03</pdfrwt>
<pdfrwt beam="2">  1       21 0.38747143E-01 0.23604969E+03</pdfrwt>
<totfact> 0.36428580E+04</totfact>
</mgrwt>
</event>
<event>
 4    1  0.4043938E+000  0.1797368E+03  0.7546771E-02  0.1168058E+00
         21   -1    0    0  503  502  0.00000000000E+00  0.00000000000E+00  0.22254086318E+03  0.22254086318E+03  0.00000000000E+00 0.  1.
         21   -1    0    0  501  503 -0.00000000000E+00 -0.00000000000E+00 -0.38428585270E+03  0.38428585270E+03  0.00000000000E+00 0. -1.
          6    1    1    2  501    0 -0.24862439742E+02 -0.41930445388E+02 -0.32021265434E+03  0.36720763494E+03  0.17300000000E+03 0. -1.
         -6    1    1    2    0  502  0.24862439742E+02  0.41930445388E+02  0.15846766481E+03  0.23961908094E+03  0.17300000000E+03 0.  1.
<mgrwt>
<rscale>  2 0.17973676E+03</rscale>
<asrwt>0</asrwt>
<pdfrwt beam="1">  1       21 0.34237056E-01 0.17973676E+03</pdfrwt>
<pdfrwt beam="2">  1       21 0.59120900E-01 0.17973676E+03</pdfrwt>
<totfact> 0.22153289E+04</totfact>
</mgrwt>
</event>
<event>
 4    1  0.4043938E+000  0.2767104E+03  0.7546771E-02  0.1097499E+00
         21   -1    0    0  501  502  0.00000000000E+00  0.00000000000E+00  0.13673298726E+04  0.13673298726E+04  0.00000000000E+00 0.  1.
         21   -1    0    0  502  503 -0.00000000000E+00 -0.00000000000E+00 -0.18597980160E+03  0.18597980160E+03  0.00000000000E+00 0. -1.
          6    1    1    2  501    0  0.47336962918E+01 -0.21591021593E+03  0.12399600042E+04  0.12704603265E+04  0.17300000000E+03 0.  1.
         -6    1    1    2    0  503 -0.47336962918E+01  0.21591021593E+03 -0.58609933198E+02  0.28284934770E+03  0.17300000000E+03 0. -1.
<mgrwt>
<rscale>  2 0.27671037E+03</rscale>
<asrwt>0</asrwt>
<pdfrwt beam="1">  1       21 0.21035844E+00 0.27671037E+03</pdfrwt>
<pdfrwt beam="2">  1       21 0.28612278E-01 0.27671037E+03</pdfrwt>
<totfact> 0.12464185E+03</totfact>
</mgrwt>
</event>
<event>
 4    1  0.4043938E+000  0.2048204E+03  0.7546771E-02  0.1145735E+00
         21   -1    0    0  501  502  0.00000000000E+00  0.00000000000E+00  0.45198062174E+02  0.45198062174E+02  0.00000000000E+00 0.  1.
         21   -1    0    0  502  503 -0.00000000000E+00 -0.00000000000E+00 -0.98533446215E+03  0.98533446215E+03  0.00000000000E+00 0.  1.
          6    1    1    2  501    0  0.50652771644E+02  0.97245633617E+02 -0.59417875479E+03  0.62849010268E+03  0.17300000000E+03 0.  1.
         -6    1    1    2    0  503 -0.50652771644E+02 -0.97245633617E+02 -0.34595764519E+03  0.40204242164E+03  0.17300000000E+03 0.  1.
<mgrwt>
<rscale>  2 0.20482045E+03</rscale>
<asrwt>0</asrwt>
<pdfrwt beam="1">  1       21 0.69535488E-02 0.20482045E+03</pdfrwt>
<pdfrwt beam="2">  1       21 0.15158990E+00 0.20482045E+03</pdfrwt>
<totfact> 0.44168195E+04</totfact>
</mgrwt>
</event>
<event>
 4    1  0.4043938E+000  0.3306983E+03  0.7546771E-02  0.1070828E+00
         21   -1    0    0  501  502  0.00000000000E+00  0.00000000000E+00  0.10656960464E+03  0.10656960464E+03  0.00000000000E+00 0.  1.
         21   -1    0    0  502  503 -0.00000000000E+00 -0.00000000000E+00 -0.12394549050E+04  0.12394549050E+04  0.00000000000E+00 0. -1.
          6    1    1    2  501    0 -0.27445333960E+03  0.64091341690E+02 -0.28727771157E+03  0.43805230197E+03  0.17300000000E+03 0.  1.
         -6    1    1    2    0  503  0.27445333960E+03 -0.64091341690E+02 -0.84560758877E+03  0.90797220766E+03  0.17300000000E+03 0. -1.
<mgrwt>
<rscale>  2 0.33069825E+03</rscale>
<asrwt>0</asrwt>
<pdfrwt beam="1">  1       21 0.16395324E-01 0.33069825E+03</pdfrwt>
<pdfrwt beam="2">  1       21 0.19068537E+00 0.33069825E+03</pdfrwt>
<totfact> 0.46732464E+03</totfact>
</mgrwt>
</event>
<event>
 4    1  0.4043938E+000  0.2518540E+03  0.7546771E-02  0.1112139E+00
         21   -1    0    0  503  502  0.00000000000E+00  0.00000000000E+00  0.84509516735E+03  0.84509516735E+03  0.00000000000E+00 0.  1.
         21   -1    0    0  501  503 -0.00000000000E+00 -0.00000000000E+00 -0.75955604812E+02  0.75955604812E+02  0.00000000000E+00 0.  1.
          6    1    1    2  501    0 -0.18184970965E+03 -0.20787397539E+02  0.43465647194E+03  0.50235115347E+03  0.17300000000E+03 0.  1.
         -6    1    1    2    0  502  0.18184970965E+03  0.20787397539E+02  0.33448309060E+03  0.41869961869E+03  0.17300000000E+03 0.  1.
<mgrwt>
<rscale>  2 0.25185399E+03</rscale>
<asrwt>0</asrwt>
<pdfrwt beam="1">  1       21 0.13001463E+00 0.25185399E+03</pdfrwt>
<pdfrwt beam="2">  1       21 0.11685478E-01 0.25185399E+03</pdfrwt>
<totfact> 0.25723539E+04</totfact>
</mgrwt>
</event>
<event>
 4    1  0.4043938E+000  0.2088545E+03  0.7546771E-02  0.1142476E+00
         21   -1    0    0  503  502  0.00000000000E+00  0.00000000000E+00  0.53693586408E+03  0.53693586408E+03  0.00000000000E+00 0. -1.
         21   -1    0    0  501  503 -0.00000000000E+00 -0.00000000000E+00 -0.13615801714E+03  0.13615801714E+03  0.00000000000E+00 0.  1.
          6    1    1    2  501    0 -0.94864285516E+02 -0.68497926656E+02 -0.13350645989E+02  0.20928076446E+03  0.17300000000E+03 0.  1.
         -6    1    1    2    0  502  0.94864285516E+02  0.68497926656E+02  0.41412849294E+03  0.46381311677E+03  0.17300000000E+03 0. -1.
<mgrwt>
<rscale>  2 0.20885449E+03</rscale>
<asrwt>0</asrwt>
<pdfrwt beam="1">  1       21 0.82605517E-01 0.20885449E+03</pdfrwt>
<pdfrwt beam="2">  1       21 0.20947387E-01 0.20885449E+03</pdfrwt>
<totfact> 0.26823329E+04</totfact>
</mgrwt>
</event>
<event>
 4    1  0.4043938E+000  0.1970524E+03  0.7546771E-02  0.1152250E+00
         21   -1    0    0  503  502  0.00000000000E+00  0.00000000000E+00  0.35521909468E+02  0.35521909468E+02  0.00000000000E+00 0. -1.
         21   -1    0    0  501  503 -0.00000000000E+00 -0.00000000000E+00 -0.19446789682E+04  0.19446789682E+04  0.00000000000E+00 0. -1.
          6    1    1    2  501    0 -0.39216210062E+02  0.85806471653E+02 -0.16097621056E+04  0.16217779436E+04  0.17300000000E+03 0. -1.
         -6    1    1    2    0  502  0.39216210062E+02 -0.85806471653E+02 -0.29939495315E+03  0.35842293409E+03  0.17300000000E+03 0. -1.
<mgrwt>
<rscale>  2 0.19705243E+03</rscale>
<asrwt>0</asrwt>
<pdfrwt beam="1">  1       21 0.54649078E-02 0.19705243E+03</pdfrwt>
<pdfrwt beam="2">  1       21 0.29918145E+00 0.19705243E+03</pdfrwt>
<totfact> 0.79423714E+03</totfact>
</mgrwt>
</event>
<event>
 4    1  0.4043938E+000  0.1949643E+03  0.7546771E-02  0.1154059E+00
         21   -1    0    0  503  502  0.00000000000E+00  0.00000000000E+00  0.13421293516E+03  0.13421293516E+03  0.00000000000E+00 0.  1.
         21   -1    0    0  501  503 -0.00000000000E+00 -0.00000000000E+00 -0.33131693761E+03  0.33131693761E+03  0.00000000000E+00 0.  1.
          6    1    1    2  501    0  0.81557053076E+02  0.37822410435E+02 -0.18724268304E+03  0.27031631470E+03  0.17300000000E+03 0.  1.
         -6    1    1    2    0  502 -0.81557053076E+02 -0.37822410435E+02 -0.98613194091E+01  0.19521355808E+03  0.17300000000E+03 0.  1.
<mgrwt>
<rscale>  2 0.19496432E+03</rscale>
<asrwt>0</asrwt>
<pdfrwt beam="1">  1       21 0.20648144E-01 0.19496432E+03</pdfrwt>
<pdfrwt beam="2">  1       21 0.50971836E-01 0.19496432E+03</pdfrwt>
<totfact> 0.79521598E+04</totfact>
</mgrwt>
</event>
<event>
 4    1  0.4043938E+000  0.2395589E+03  0.7546771E-02  0.1120087E+00
         21   -1    0    0  503  502  0.00000000000E+00  0.00000000000E+00  0.42438508105E+03  0.42438508105E+03  0.00000000000E+00 0.  1.
         21   -1    0    0  501  503 -0.00000000000E+00 -0.00000000000E+00 -0.22449056497E+03  0.22449056497E+03  0.00000000000E+00 0. -1.
          6    1    1    2  501    0  0.28698501206E+02 -0.16320501144E+03 -0.10463531576E+03  0.26141352114E+03  0.17300000000E+03 0.  1.
         -6    1    1    2    0  502 -0.28698501206E+02  0.16320501144E+03  0.30452983184E+03  0.38746212487E+03  0.17300000000E+03 0. -1.
<mgrwt>
<rscale>  2 0.23955893E+03</rscale>
<asrwt>0</asrwt>
<pdfrwt beam="1">  1       21 0.65290013E-01 0.23955893E+03</pdfrwt>
<pdfrwt beam="2">  1       21 0.34537010E-01 0.23955893E+03</pdfrwt>
<totfact> 0.16973210E+04</totfact>
</mgrwt>
</event>
<event>
 4    1  0.4043938E+000  0.2570367E+03  0.7546771E-02  0.1108937E+00
         21   -1    0    0  503  502  0.00000000000E+00  0.00000000000E+00  0.67896676550E+03  0.67896676550E+03  0.00000000000E+00 0. -1.
         21   -1    0    0  501  503 -0.00000000000E+00 -0.00000000000E+00 -0.22856925213E+03  0.22856925213E+03  0.00000000000E+00 0. -1.
          6    1    1    2  501    0  0.18267953040E+03 -0.52602868280E+02 -0.11867239295E+03  0.28310953609E+03  0.17300000000E+03 0. -1.
         -6    1    1    2    0  502 -0.18267953040E+03  0.52602868280E+02  0.56906990631E+03  0.62442648154E+03  0.17300000000E+03 0. -1.
<mgrwt>
<rscale>  2 0.25703671E+03</rscale>
<asrwt>0</asrwt>
<pdfrwt beam="1">  1       21 0.10445642E+00 0.25703671E+03</pdfrwt>
<pdfrwt beam="2">  1       21 0.35164501E-01 0.25703671E+03</pdfrwt>
<totfact> 0.55153633E+03</totfact>
</mgrwt>
</event>
<event>
 4    1  0.4043938E+000  0.2165310E+03  0.7546771E-02  0.1136496E+00
         21   -1    0    0  501  502  0.00000000000E+00  0.00000000000E+00  0.23349271102E+03  0.23349271102E+03  0.00000000000E+00 0. -1.
         21   -1    0    0  502  503 -0.00000000000E+00 -0.00000000000E+00 -0.35133970068E+03  0.35133970068E+03  0.00000000000E+00 0. -1.
          6    1    1    2  501    0  0.41425401096E+01 -0.13015188574E+03  0.13248502400E+03  0.25384632277E+03  0.17300000000E+03 0. -1.
         -6    1    1    2    0  503 -0.41425401096E+01  0.13015188574E+03 -0.25033201367E+03  0.33098608893E+03  0.17300000000E+03 0. -1.
<mgrwt>
<rscale>  2 0.21653100E+03</rscale>
<asrwt>0</asrwt>
<pdfrwt beam="1">  1       21 0.35921955E-01 0.21653100E+03</pdfrwt>
<pdfrwt beam="2">  1       21 0.54052262E-01 0.21653100E+03</pdfrwt>
<totfact> 0.23856804E+04</totfact>
</mgrwt>
</event>
<event>
 4    1  0.4043938E+000  0.1827789E+03  0.7546771E-02  0.1165140E+00
         21   -1    0    0  503  502  0.00000000000E+00  0.00000000000E+00  0.10939828670E+04  0.10939828670E+04  0.00000000000E+00 0.  1.
         21   -1    0    0  501  503 -0.00000000000E+00 -0.00000000000E+00 -0.36879915916E+02  0.36879915916E+02  0.00000000000E+00 0.  1.
          6    1    1    2  501    0 -0.40532141052E+02 -0.42851784983E+02  0.29407857552E+03  0.34625184261E+03  0.17300000000E+03 0.  1.
         -6    1    1    2    0  502  0.40532141052E+02  0.42851784983E+02  0.76302437558E+03  0.78461094032E+03  0.17300000000E+03 0.  1.
<mgrwt>
<rscale>  2 0.18277891E+03</rscale>
<asrwt>0</asrwt>
<pdfrwt beam="1">  1       21 0.16830503E+00 0.18277891E+03</pdfrwt>
<pdfrwt beam="2">  1       21 0.56738341E-02 0.18277891E+03</pdfrwt>
<totfact> 0.47864434E+04</totfact>
</mgrwt>
</event>
<event>
 4    1  0.4043938E+000  0.1816077E+03  0.7546771E-02  0.1166256E+00
         21   -1    0    0  503  502  0.00000000000E+00  0.00000000000E+00  0.58066620647E+03  0.58066620647E+03  0.00000000000E+00 0. -1.
         21   -1    0    0  501  503 -0.00000000000E+00 -0.00000000000E+00 -0.83660087987E+02  0.83660087987E+02  0.00000000000E+00 0. -1.
          6    1    1    2  501    0  0.54727593239E+02  0.75659549047E+01  0.60288684447E+02  0.19135328220E+03  0.17300000000E+03 0. -1.
         -6    1    1    2    0  502 -0.54727593239E+02 -0.75659549047E+01  0.43671743404E+03  0.47297301226E+03  0.17300000000E+03 0. -1.
<mgrwt>
<rscale>  2 0.18160769E+03</rscale>
<asrwt>0</asrwt>
<pdfrwt beam="1">  1       21 0.89333260E-01 0.18160769E+03</pdfrwt>
<pdfrwt beam="2">  1       21 0.12870783E-01 0.18160769E+03</pdfrwt>
<totfact> 0.55605242E+04</totfact>
</mgrwt>
</event>
<event>
 4    1  0.4043938E+000  0.2486171E+03  0.7546771E-02  0.1114182E+00
         21   -1    0    0  503  502  0.00000000000E+00  0.00000000000E+00  0.12630728574E+04  0.12630728574E+04  0.00000000000E+00 0. -1.
         21   -1    0    0  501  503 -0.00000000000E+00 -0.00000000000E+00 -0.49494024449E+02  0.49494024449E+02  0.00000000000E+00 0. -1.
          6    1    1    2  501    0 -0.33948435288E+02  0.17529675983E+03  0.53713948537E+03  0.59188620275E+03  0.17300000000E+03 0. -1.
         -6    1    1    2    0  502  0.33948435288E+02 -0.17529675983E+03  0.67643934755E+03  0.72068067906E+03  0.17300000000E+03 0. -1.
<mgrwt>
<rscale>  2 0.24861708E+03</rscale>
<asrwt>0</asrwt>
<pdfrwt beam="1">  1       21 0.19431888E+00 0.24861708E+03</pdfrwt>
<pdfrwt beam="2">  1       21 0.76144663E-02 0.24861708E+03</pdfrwt>
<totfact> 0.18386887E+04</totfact>
</mgrwt>
</event>
<event>
 4    1  0.4043938E+000  0.1910363E+03  0.7546771E-02  0.1157530E+00
         21   -1    0    0  501  502  0.00000000000E+00  0.00000000000E+00  0.63029896792E+03  0.63029896792E+03  0.00000000000E+00 0. -1.
         21   -1    0    0  502  503 -0.00000000000E+00 -0.00000000000E+00 -0.11976243361E+03  0.11976243361E+03  0.00000000000E+00 0. -1.
          6    1    1    2  501    0  0.77006632137E+02  0.25216098240E+02  0.52480433076E+03  0.55849302466E+03  0.17300000000E+03 0. -1.
         -6    1    1    2    0  503 -0.77006632137E+02 -0.25216098240E+02 -0.14267796454E+02  0.19156837688E+03  0.17300000000E+03 0. -1.
<mgrwt>
<rscale>  2 0.19103631E+03</rscale>
<asrwt>0</asrwt>
<pdfrwt beam="1">  1       21 0.96969070E-01 0.19103631E+03</pdfrwt>
<pdfrwt beam="2">  1       21 0.18424990E-01 0.19103631E+03</pdfrwt>
<totfact> 0.23761298E+04</totfact>
</mgrwt>
</event>
<event>
 4    1  0.4043938E+000  0.1813420E+03  0.7546771E-02  0.1166511E+00
         21   -1    0    0  501  502  0.00000000000E+00  0.00000000000E+00  0.61402860779E+02  0.61402860779E+02  0.00000000000E+00 0.  1.
         21   -1    0    0  502  503 -0.00000000000E+00 -0.00000000000E+00 -0.68871982989E+03  0.68871982989E+03  0.00000000000E+00 0. -1.
          6    1    1    2  501    0 -0.50790692923E+02  0.19396750202E+02 -0.13678889529E+03  0.22714781593E+03  0.17300000000E+03 0.  1.
         -6    1    1    2    0  503  0.50790692923E+02 -0.19396750202E+02 -0.49052807382E+03  0.52297487474E+03  0.17300000000E+03 0. -1.
<mgrwt>
<rscale>  2 0.18134202E+03</rscale>
<asrwt>0</asrwt>
<pdfrwt beam="1">  1       21 0.94465930E-02 0.18134202E+03</pdfrwt>
<pdfrwt beam="2">  1       21 0.10595691E+00 0.18134202E+03</pdfrwt>
<totfact> 0.64475547E+04</totfact>
</mgrwt>
</event>
<event>
 4    1  0.4043938E+000  0.1995189E+03  0.7546771E-02  0.1150146E+00
         21   -1    0    0  501  502  0.00000000000E+00  0.00000000000E+00  0.41328924525E+03  0.41328924525E+03  0.00000000000E+00 0. -1.
         21   -1    0    0  502  503 -0.00000000000E+00 -0.00000000000E+00 -0.10708386299E+03  0.10708386299E+03  0.00000000000E+00 0. -1.
          6    1    1    2  501    0 -0.64505847040E+02 -0.75615952495E+02  0.70609367391E+02  0.21164465346E+03  0.17300000000E+03 0. -1.
         -6    1    1    2    0  503  0.64505847040E+02  0.75615952495E+02  0.23559601486E+03  0.30872845478E+03  0.17300000000E+03 0. -1.
<mgrwt>
<rscale>  2 0.19951886E+03</rscale>
<asrwt>0</asrwt>
<pdfrwt beam="1">  1       21 0.63582960E-01 0.19951886E+03</pdfrwt>
<pdfrwt beam="2">  1       21 0.16474441E-01 0.19951886E+03</pdfrwt>
<totfact> 0.75335407E+04</totfact>
</mgrwt>
</event>
<event>
 4    1  0.4043938E+000  0.2241768E+03  0.7546771E-02  0.1130807E+00
         21   -1    0    0  501  502  0.00000000000E+00  0.00000000000E+00  0.23709747343E+03  0.23709747343E+03  0.00000000000E+00 0.  1.
         21   -1    0    0  502  503 -0.00000000000E+00 -0.00000000000E+00 -0.21210157285E+03  0.21210157285E+03  0.00000000000E+00 0.  1.
          6    1    1    2  501    0  0.76372453816E+02  0.12038898581E+03  0.18293762414E+02  0.22492203394E+03  0.17300000000E+03 0.  1.
         -6    1    1    2    0  503 -0.76372453816E+02 -0.12038898581E+03  0.67021381631E+01  0.22427701234E+03  0.17300000000E+03 0.  1.
<mgrwt>
<rscale>  2 0.22417685E+03</rscale>
<asrwt>0</asrwt>
<pdfrwt beam="1">  1       21 0.36476534E-01 0.22417685E+03</pdfrwt>
<pdfrwt beam="2">  1       21 0.32631011E-01 0.22417685E+03</pdfrwt>
<totfact> 0.64613012E+04</totfact>
</mgrwt>
</event>
<event>
 4    1  0.4043938E+000  0.2135694E+03  0.7546771E-02  0.1138770E+00
         21   -1    0    0  503  502  0.00000000000E+00  0.00000000000E+00  0.54841670020E+02  0.54841670020E+02  0.00000000000E+00 0. -1.
         21   -1    0    0  501  503 -0.00000000000E+00 -0.00000000000E+00 -0.11120718950E+04  0.11120718950E+04  0.00000000000E+00 0. -1.
          6    1    1    2  501    0  0.11552082230E+03 -0.48351201909E+02 -0.82157512031E+03  0.84888019026E+03  0.17300000000E+03 0. -1.
         -6    1    1    2    0  502 -0.11552082230E+03  0.48351201909E+02 -0.23565510472E+03  0.31803337481E+03  0.17300000000E+03 0. -1.
<mgrwt>
<rscale>  2 0.21356942E+03</rscale>
<asrwt>0</asrwt>
<pdfrwt beam="1">  1       21 0.84371793E-02 0.21356942E+03</pdfrwt>
<pdfrwt beam="2">  1       21 0.17108800E+00 0.21356942E+03</pdfrwt>
<totfact> 0.22607813E+04</totfact>
</mgrwt>
</event>
<event>
 4    1  0.4043938E+000  0.1942044E+03  0.7546771E-02  0.1154723E+00
         21   -1    0    0  503  502  0.00000000000E+00  0.00000000000E+00  0.11895455271E+03  0.11895455271E+03  0.00000000000E+00 0.  1.
         21   -1    0    0  501  503 -0.00000000000E+00 -0.00000000000E+00 -0.49987931967E+03  0.49987931967E+03  0.00000000000E+00 0.  1.
          6    1    1    2  501    0  0.44805098929E+02 -0.76018869619E+02 -0.37758495871E+03  0.42460071417E+03  0.17300000000E+03 0.  1.
         -6    1    1    2    0  502 -0.44805098929E+02  0.76018869619E+02 -0.33398082537E+01  0.19423315821E+03  0.17300000000E+03 0.  1.
<mgrwt>
<rscale>  2 0.19420444E+03</rscale>
<asrwt>0</asrwt>
<pdfrwt beam="1">  1       21 0.18300701E-01 0.19420444E+03</pdfrwt>
<pdfrwt beam="2">  1       21 0.76904510E-01 0.19420444E+03</pdfrwt>
<totfact> 0.40897171E+04</totfact>
</mgrwt>
</event>
<event>
 4    1  0.4043938E+000  0.4560185E+03  0.7546771E-02  0.1025942E+00
         21   -1    0    0  501  502  0.00000000000E+00  0.00000000000E+00  0.42137952413E+03  0.42137952413E+03  0.00000000000E+00 0.  1.
         21   -1    0    0  502  503 -0.00000000000E+00 -0.00000000000E+00 -0.53219484128E+03  0.53219484128E+03  0.00000000000E+00 0.  1.
          6    1    1    2  501    0  0.62723804223E+02 -0.41724049799E+03  0.73146942835E+02  0.46184779314E+03  0.17300000000E+03 0.  1.
         -6    1    1    2    0  503 -0.62723804223E+02  0.41724049799E+03 -0.18396225998E+03  0.49172657227E+03  0.17300000000E+03 0.  1.
<mgrwt>
<rscale>  2 0.45601854E+03</rscale>
<asrwt>0</asrwt>
<pdfrwt beam="1">  1       21 0.64827619E-01 0.45601854E+03</pdfrwt>
<pdfrwt beam="2">  1       21 0.81876129E-01 0.45601854E+03</pdfrwt>
<totfact> 0.24757106E+03</totfact>
</mgrwt>
</event>
<event>
 4    1  0.4043938E+000  0.2067354E+03  0.7546771E-02  0.1144178E+00
         21   -1    0    0  501  502  0.00000000000E+00  0.00000000000E+00  0.45245558104E+03  0.45245558104E+03  0.00000000000E+00 0.  1.
         21   -1    0    0  502  503 -0.00000000000E+00 -0.00000000000E+00 -0.10209114722E+03  0.10209114722E+03  0.00000000000E+00 0.  1.
          6    1    1    2  501    0 -0.16896057785E+02 -0.11191542075E+03  0.25098275616E+03  0.32516439236E+03  0.17300000000E+03 0.  1.
         -6    1    1    2    0  503  0.16896057785E+02  0.11191542075E+03  0.99381677663E+02  0.22938233591E+03  0.17300000000E+03 0.  1.
<mgrwt>
<rscale>  2 0.20673543E+03</rscale>
<asrwt>0</asrwt>
<pdfrwt beam="1">  1       21 0.69608550E-01 0.20673543E+03</pdfrwt>
<pdfrwt beam="2">  1       21 0.15706331E-01 0.20673543E+03</pdfrwt>
<totfact> 0.67230389E+04</totfact>
</mgrwt>
</event>
<event>
 4    1  0.4043938E+000  0.2832004E+03  0.7546771E-02  0.1093954E+00
         21   -1    0    0  501  502  0.00000000000E+00  0.00000000000E+00  0.20684447266E+03  0.20684447266E+03  0.00000000000E+00 0.  1.
         21   -1    0    0  502  503 -0.00000000000E+00 -0.00000000000E+00 -0.42395827051E+03  0.42395827051E+03  0.00000000000E+00 0. -1.
          6    1    1    2  501    0  0.55766205862E+02 -0.21717181533E+03 -0.20073945304E+03  0.34712936363E+03  0.17300000000E+03 0. -1.
         -6    1    1    2    0  503 -0.55766205862E+02  0.21717181533E+03 -0.16374344816E+02  0.28367337954E+03  0.17300000000E+03 0. -1.
<mgrwt>
<rscale>  2 0.28320040E+03</rscale>
<asrwt>0</asrwt>
<pdfrwt beam="1">  1       21 0.31822227E-01 0.28320040E+03</pdfrwt>
<pdfrwt beam="2">  1       21 0.65224349E-01 0.28320040E+03</pdfrwt>
<totfact> 0.19607273E+04</totfact>
</mgrwt>
</event>
<event>
 4    1  0.4043938E+000  0.2040860E+03  0.7546771E-02  0.1146337E+00
         21   -1    0    0  503  502  0.00000000000E+00  0.00000000000E+00  0.12553187829E+03  0.12553187829E+03  0.00000000000E+00 0. -1.
         21   -1    0    0  501  503 -0.00000000000E+00 -0.00000000000E+00 -0.34276621479E+03  0.34276621479E+03  0.00000000000E+00 0. -1.
          6    1    1    2  501    0 -0.96370765766E+02 -0.49343537459E+02 -0.66730114977E+02  0.21471846085E+03  0.17300000000E+03 0. -1.
         -6    1    1    2    0  502  0.96370765766E+02  0.49343537459E+02 -0.15050422152E+03  0.25357963223E+03  0.17300000000E+03 0. -1.
<mgrwt>
<rscale>  2 0.20408603E+03</rscale>
<asrwt>0</asrwt>
<pdfrwt beam="1">  1       21 0.19312597E-01 0.20408603E+03</pdfrwt>
<pdfrwt beam="2">  1       21 0.52733263E-01 0.20408603E+03</pdfrwt>
<totfact> 0.83575956E+04</totfact>
</mgrwt>
</event>
<event>
 4    1  0.4043938E+000  0.2218120E+03  0.7546771E-02  0.1132539E+00
         21   -1    0    0  501  502  0.00000000000E+00  0.00000000000E+00  0.30702799883E+02  0.30702799883E+02  0.00000000000E+00 0. -1.
         21   -1    0    0  502  503 -0.00000000000E+00 -0.00000000000E+00 -0.16779152450E+04  0.16779152450E+04  0.00000000000E+00 0.  1.
          6    1    1    2  501    0 -0.60527202634E+02 -0.12493198495E+03 -0.64246195211E+03  0.67967485096E+03  0.17300000000E+03 0. -1.
         -6    1    1    2    0  503  0.60527202634E+02  0.12493198495E+03 -0.10047504930E+04  0.10289431940E+04  0.17300000000E+03 0.  1.
<mgrwt>
<rscale>  2 0.22181195E+03</rscale>
<asrwt>0</asrwt>
<pdfrwt beam="1">  1       21 0.47235052E-02 0.22181195E+03</pdfrwt>
<pdfrwt beam="2">  1       21 0.25814094E+00 0.22181195E+03</pdfrwt>
<totfact> 0.17205031E+04</totfact>
</mgrwt>
</event>
<event>
 4    1  0.4043938E+000  0.1888994E+03  0.7546771E-02  0.1159458E+00
         21   -1    0    0  501  502  0.00000000000E+00  0.00000000000E+00  0.30466482796E+03  0.30466482796E+03  0.00000000000E+00 0. -1.
         21   -1    0    0  502  503 -0.00000000000E+00 -0.00000000000E+00 -0.14833550959E+03  0.14833550959E+03  0.00000000000E+00 0. -1.
          6    1    1    2  501    0 -0.71047164831E+02 -0.26575858891E+02  0.18206495085E+03  0.26235590756E+03  0.17300000000E+03 0. -1.
         -6    1    1    2    0  503  0.71047164831E+02  0.26575858891E+02 -0.25735632482E+02  0.19064442999E+03  0.17300000000E+03 0. -1.
<mgrwt>
<rscale>  2 0.18889938E+03</rscale>
<asrwt>0</asrwt>
<pdfrwt beam="1">  1       21 0.46871512E-01 0.18889938E+03</pdfrwt>
<pdfrwt beam="2">  1       21 0.22820848E-01 0.18889938E+03</pdfrwt>
<totfact> 0.78608084E+04</totfact>
</mgrwt>
</event>
<event>
 4    1  0.4043938E+000  0.2197730E+03  0.7546771E-02  0.1134052E+00
         21   -1    0    0  503  502  0.00000000000E+00  0.00000000000E+00  0.15876946151E+03  0.15876946151E+03  0.00000000000E+00 0. -1.
         21   -1    0    0  501  503 -0.00000000000E+00 -0.00000000000E+00 -0.53626774948E+03  0.53626774948E+03  0.00000000000E+00 0.  1.
          6    1    1    2  501    0 -0.59686971951E+01 -0.13540880411E+03 -0.41735107031E+03  0.47168006685E+03  0.17300000000E+03 0.  1.
         -6    1    1    2    0  502  0.59686971951E+01  0.13540880411E+03  0.39852782331E+02  0.22335714414E+03  0.17300000000E+03 0. -1.
<mgrwt>
<rscale>  2 0.21977300E+03</rscale>
<asrwt>0</asrwt>
<pdfrwt beam="1">  1       21 0.24426071E-01 0.21977300E+03</pdfrwt>
<pdfrwt beam="2">  1       21 0.82502731E-01 0.21977300E+03</pdfrwt>
<totfact> 0.19983303E+04</totfact>
</mgrwt>
</event>
<event>
 4    1  0.4043938E+000  0.2119879E+03  0.7546771E-02  0.1140001E+00
         21   -1    0    0  501  502  0.00000000000E+00  0.00000000000E+00  0.15814244517E+03  0.15814244517E+03  0.00000000000E+00 0.  1.
         21   -1    0    0  502  503 -0.00000000000E+00 -0.00000000000E+00 -0.65811750678E+03  0.65811750678E+03  0.00000000000E+00 0.  1.
          6    1    1    2  501    0  0.11805061257E+03 -0.32770896308E+02  0.57660246238E+02  0.21968974206E+03  0.17300000000E+03 0.  1.
         -6    1    1    2    0  503 -0.11805061257E+03  0.32770896308E+02 -0.55763530784E+03  0.59657020989E+03  0.17300000000E+03 0.  1.
<mgrwt>
<rscale>  2 0.21198792E+03</rscale>
<asrwt>0</asrwt>
<pdfrwt beam="1">  1       21 0.24329607E-01 0.21198792E+03</pdfrwt>
<pdfrwt beam="2">  1       21 0.10124885E+00 0.21198792E+03</pdfrwt>
<totfact> 0.12551932E+04</totfact>
</mgrwt>
</event>
<event>
 4    1  0.4043938E+000  0.1811549E+03  0.7546771E-02  0.1166690E+00
         21   -1    0    0  503  502  0.00000000000E+00  0.00000000000E+00  0.10571605225E+04  0.10571605225E+04  0.00000000000E+00 0.  1.
         21   -1    0    0  501  503 -0.00000000000E+00 -0.00000000000E+00 -0.31278049153E+02  0.31278049153E+02  0.00000000000E+00 0. -1.
          6    1    1    2  501    0 -0.43934398654E+02 -0.30949285710E+02  0.46573121192E+03  0.49972257446E+03  0.17300000000E+03 0.  1.
         -6    1    1    2    0  502  0.43934398654E+02  0.30949285710E+02  0.56015126146E+03  0.58871599722E+03  0.17300000000E+03 0. -1.
<mgrwt>
<rscale>  2 0.18115488E+03</rscale>
<asrwt>0</asrwt>
<pdfrwt beam="1">  1       21 0.16264005E+00 0.18115488E+03</pdfrwt>
<pdfrwt beam="2">  1       21 0.48120084E-02 0.18115488E+03</pdfrwt>
<totfact> 0.69548523E+04</totfact>
</mgrwt>
</event>
<event>
 4    1  0.4043938E+000  0.2721505E+03  0.7546771E-02  0.1100055E+00
         21   -1    0    0  503  502  0.00000000000E+00  0.00000000000E+00  0.30580914121E+03  0.30580914121E+03  0.00000000000E+00 0.  1.
         21   -1    0    0  501  503 -0.00000000000E+00 -0.00000000000E+00 -0.43539501476E+03  0.43539501476E+03  0.00000000000E+00 0.  1.
          6    1    1    2  501    0  0.17675008136E+03  0.11356196960E+03 -0.31166274769E+03  0.41376271038E+03  0.17300000000E+03 0.  1.
         -6    1    1    2    0  502 -0.17675008136E+03 -0.11356196960E+03  0.18207687413E+03  0.32744144560E+03  0.17300000000E+03 0.  1.
<mgrwt>
<rscale>  2 0.27215053E+03</rscale>
<asrwt>0</asrwt>
<pdfrwt beam="1">  1       21 0.47047560E-01 0.27215053E+03</pdfrwt>
<pdfrwt beam="2">  1       21 0.66983849E-01 0.27215053E+03</pdfrwt>
<totfact> 0.84045421E+03</totfact>
</mgrwt>
</event>
<event>
 4    1  0.4043938E+000  0.2043916E+03  0.7546771E-02  0.1146086E+00
         21   -1    0    0  503  502  0.00000000000E+00  0.00000000000E+00  0.42158471489E+03  0.42158471489E+03  0.00000000000E+00 0. -1.
         21   -1    0    0  501  503 -0.00000000000E+00 -0.00000000000E+00 -0.16941397745E+03  0.16941397745E+03  0.00000000000E+00 0. -1.
          6    1    1    2  501    0 -0.93924782738E+02 -0.55000617332E+02 -0.64296478651E+02  0.21426611931E+03  0.17300000000E+03 0. -1.
         -6    1    1    2    0  502  0.93924782738E+02  0.55000617332E+02  0.31646721609E+03  0.37673257303E+03  0.17300000000E+03 0. -1.
<mgrwt>
<rscale>  2 0.20439162E+03</rscale>
<asrwt>0</asrwt>
<pdfrwt beam="1">  1       21 0.64859186E-01 0.20439162E+03</pdfrwt>
<pdfrwt beam="2">  1       21 0.26063689E-01 0.20439162E+03</pdfrwt>
<totfact> 0.30429077E+04</totfact>
</mgrwt>
</event>
<event>
 4    1  0.4043938E+000  0.2109009E+03  0.7546771E-02  0.1140855E+00
         21   -1    0    0  503  502  0.00000000000E+00  0.00000000000E+00  0.17690093864E+04  0.17690093864E+04  0.00000000000E+00 0.  1.
         21   -1    0    0  501  503 -0.00000000000E+00 -0.00000000000E+00 -0.26432811827E+02  0.26432811827E+02  0.00000000000E+00 0.  1.
          6    1    1    2  501    0 -0.73483849693E+02 -0.95657305646E+02  0.10695497822E+04  0.10901449138E+04  0.17300000000E+03 0.  1.
         -6    1    1    2    0  502  0.73483849693E+02  0.95657305646E+02  0.67302679233E+03  0.70529728448E+03  0.17300000000E+03 0.  1.
<mgrwt>
<rscale>  2 0.21090092E+03</rscale>
<asrwt>0</asrwt>
<pdfrwt beam="1">  1       21 0.27215520E+00 0.21090092E+03</pdfrwt>
<pdfrwt beam="2">  1       21 0.40665878E-02 0.21090092E+03</pdfrwt>
<totfact> 0.18517067E+04</totfact>
</mgrwt>
</event>
<event>
 4    1  0.4043938E+000  0.1828457E+03  0.7546771E-02  0.1165077E+00
         21   -1    0    0  501  502  0.00000000000E+00  0.00000000000E+00  0.12771289643E+03  0.12771289643E+03  0.00000000000E+00 0.  1.
         21   -1    0    0  502  503 -0.00000000000E+00 -0.00000000000E+00 -0.47816303631E+03  0.47816303631E+03  0.00000000000E+00 0.  1.
          6    1    1    2  501    0  0.56798172659E+02  0.16658706966E+02  0.28562827187E+02  0.18506317849E+03  0.17300000000E+03 0.  1.
         -6    1    1    2    0  503 -0.56798172659E+02 -0.16658706966E+02 -0.37901296706E+03  0.42081275425E+03  0.17300000000E+03 0.  1.
<mgrwt>
<rscale>  2 0.18284569E+03</rscale>
<asrwt>0</asrwt>
<pdfrwt beam="1">  1       21 0.19648138E-01 0.18284569E+03</pdfrwt>
<pdfrwt beam="2">  1       21 0.73563544E-01 0.18284569E+03</pdfrwt>
<totfact> 0.39805122E+04</totfact>
</mgrwt>
</event>
<event>
 4    1  0.4043938E+000  0.2086438E+03  0.7546771E-02  0.1142644E+00
         21   -1    0    0  503  502  0.00000000000E+00  0.00000000000E+00  0.42643217340E+03  0.42643217340E+03  0.00000000000E+00 0. -1.
         21   -1    0    0  501  503 -0.00000000000E+00 -0.00000000000E+00 -0.56352640939E+03  0.56352640939E+03  0.00000000000E+00 0. -1.
          6    1    1    2  501    0  0.27051584567E+02 -0.11345246681E+03 -0.51645454243E+03  0.55700767037E+03  0.17300000000E+03 0. -1.
         -6    1    1    2    0  502 -0.27051584567E+02  0.11345246681E+03  0.37936030645E+03  0.43295091242E+03  0.17300000000E+03 0. -1.
<mgrwt>
<rscale>  2 0.20864384E+03</rscale>
<asrwt>0</asrwt>
<pdfrwt beam="1">  1       21 0.65604950E-01 0.20864384E+03</pdfrwt>
<pdfrwt beam="2">  1       21 0.86696370E-01 0.20864384E+03</pdfrwt>
<totfact> 0.24124095E+03</totfact>
</mgrwt>
</event>
<event>
 4    1  0.4043938E+000  0.1860509E+03  0.7546771E-02  0.1162072E+00
         21   -1    0    0  501  502  0.00000000000E+00  0.00000000000E+00  0.42929470811E+03  0.42929470811E+03  0.00000000000E+00 0.  1.
         21   -1    0    0  502  503 -0.00000000000E+00 -0.00000000000E+00 -0.13966151594E+03  0.13966151594E+03  0.00000000000E+00 0.  1.
          6    1    1    2  501    0 -0.56167680523E+02  0.39129608164E+02  0.32976250031E+03  0.37862678349E+03  0.17300000000E+03 0.  1.
         -6    1    1    2    0  503  0.56167680523E+02 -0.39129608164E+02 -0.40129308132E+02  0.19032944055E+03  0.17300000000E+03 0.  1.
<mgrwt>
<rscale>  2 0.18605089E+03</rscale>
<asrwt>0</asrwt>
<pdfrwt beam="1">  1       21 0.66045339E-01 0.18605089E+03</pdfrwt>
<pdfrwt beam="2">  1       21 0.21486387E-01 0.18605089E+03</pdfrwt>
<totfact> 0.42620268E+04</totfact>
</mgrwt>
</event>
<event>
 4    1  0.4043938E+000  0.2259842E+03  0.7546771E-02  0.1129499E+00
         21   -1    0    0  501  502  0.00000000000E+00  0.00000000000E+00  0.79722795363E+03  0.79722795363E+03  0.00000000000E+00 0. -1.
         21   -1    0    0  502  503 -0.00000000000E+00 -0.00000000000E+00 -0.64624900212E+02  0.64624900212E+02  0.00000000000E+00 0.  1.
          6    1    1    2  501    0 -0.93418979096E+01  0.14509516161E+03  0.40665984704E+03  0.46523231635E+03  0.17300000000E+03 0.  1.
         -6    1    1    2    0  503  0.93418979096E+01 -0.14509516161E+03  0.32594320638E+03  0.39662053750E+03  0.17300000000E+03 0.  1.
<mgrwt>
<rscale>  2 0.22598424E+03</rscale>
<asrwt>0</asrwt>
<pdfrwt beam="1">  1       21 0.12265045E+00 0.22598424E+03</pdfrwt>
<pdfrwt beam="2">  1       21 0.99422929E-02 0.22598424E+03</pdfrwt>
<totfact> 0.40277218E+04</totfact>
</mgrwt>
</event>
<event>
 4    1  0.4043938E+000  0.4075353E+03  0.7546771E-02  0.1041201E+00
         21   -1    0    0  501  502  0.00000000000E+00  0.00000000000E+00  0.95087928785E+02  0.95087928785E+02  0.00000000000E+00 0.  1.
         21   -1    0    0  502  503 -0.00000000000E+00 -0.00000000000E+00 -0.20249847494E+04  0.20249847494E+04  0.00000000000E+00 0. -1.
          6    1    1    2  501    0 -0.28834959819E+03 -0.23024017374E+03 -0.13579515968E+04  0.14177861502E+04  0.17300000000E+03 0. -1.
         -6    1    1    2    0  503  0.28834959819E+03  0.23024017374E+03 -0.57194522383E+03  0.70228652802E+03  0.17300000000E+03 0.  1.
<mgrwt>
<rscale>  2 0.40753531E+03</rscale>
<asrwt>0</asrwt>
<pdfrwt beam="1">  1       21 0.14628910E-01 0.40753531E+03</pdfrwt>
<pdfrwt beam="2">  1       21 0.31153616E+00 0.40753531E+03</pdfrwt>
<totfact> 0.99065621E+02</totfact>
</mgrwt>
</event>
<event>
 4    1  0.4043938E+000  0.1841936E+03  0.7546771E-02  0.1163805E+00
         21   -1    0    0  501  502  0.00000000000E+00  0.00000000000E+00  0.62662637804E+03  0.62662637804E+03  0.00000000000E+00 0. -1.
         21   -1    0    0  502  503 -0.00000000000E+00 -0.00000000000E+00 -0.11638155847E+03  0.11638155847E+03  0.00000000000E+00 0. -1.
          6    1    1    2  501    0  0.30038220227E+02  0.55641475403E+02  0.52679889247E+03  0.55807198601E+03  0.17300000000E+03 0.  1.
         -6    1    1    2    0  503 -0.30038220227E+02 -0.55641475403E+02 -0.16554072902E+02  0.18493595050E+03  0.17300000000E+03 0.  1.
<mgrwt>
<rscale>  2 0.18419356E+03</rscale>
<asrwt>0</asrwt>
<pdfrwt beam="1">  1       21 0.96404056E-01 0.18419356E+03</pdfrwt>
<pdfrwt beam="2">  1       21 0.17904856E-01 0.18419356E+03</pdfrwt>
<totfact> 0.25500589E+04</totfact>
</mgrwt>
</event>
<event>
 4    1  0.4043938E+000  0.1821163E+03  0.7546771E-02  0.1165770E+00
         21   -1    0    0  501  502  0.00000000000E+00  0.00000000000E+00  0.19442426507E+03  0.19442426507E+03  0.00000000000E+00 0.  1.
         21   -1    0    0  502  503 -0.00000000000E+00 -0.00000000000E+00 -0.22239969022E+03  0.22239969022E+03  0.00000000000E+00 0.  1.
          6    1    1    2  501    0  0.16269384108E+02  0.54522060453E+02 -0.11458159988E+03  0.21516340527E+03  0.17300000000E+03 0.  1.
         -6    1    1    2    0  503 -0.16269384108E+02 -0.54522060453E+02  0.86606174728E+02  0.20166055002E+03  0.17300000000E+03 0.  1.
<mgrwt>
<rscale>  2 0.18211630E+03</rscale>
<asrwt>0</asrwt>
<pdfrwt beam="1">  1       21 0.29911425E-01 0.18211630E+03</pdfrwt>
<pdfrwt beam="2">  1       21 0.34215337E-01 0.18211630E+03</pdfrwt>
<totfact> 0.88583160E+04</totfact>
</mgrwt>
</event>
<event>
 4    1  0.4043938E+000  0.2156553E+03  0.7546771E-02  0.1137164E+00
         21   -1    0    0  501  502  0.00000000000E+00  0.00000000000E+00  0.58995941042E+03  0.58995941042E+03  0.00000000000E+00 0. -1.
         21   -1    0    0  502  503 -0.00000000000E+00 -0.00000000000E+00 -0.84178348632E+02  0.84178348632E+02  0.00000000000E+00 0. -1.
          6    1    1    2  501    0  0.10280128107E+03 -0.77524861741E+02  0.33784370939E+03  0.40080616207E+03  0.17300000000E+03 0. -1.
         -6    1    1    2    0  503 -0.10280128107E+03  0.77524861741E+02  0.16793735240E+03  0.27333159698E+03  0.17300000000E+03 0. -1.
<mgrwt>
<rscale>  2 0.21565530E+03</rscale>
<asrwt>0</asrwt>
<pdfrwt beam="1">  1       21 0.90762984E-01 0.21565530E+03</pdfrwt>
<pdfrwt beam="2">  1       21 0.12950516E-01 0.21565530E+03</pdfrwt>
<totfact> 0.52136272E+04</totfact>
</mgrwt>
</event>
<event>
 4    1  0.4043938E+000  0.1828943E+03  0.7546771E-02  0.1165031E+00
         21   -1    0    0  501  502  0.00000000000E+00  0.00000000000E+00  0.10318672649E+03  0.10318672649E+03  0.00000000000E+00 0. -1.
         21   -1    0    0  502  503 -0.00000000000E+00 -0.00000000000E+00 -0.46161168897E+03  0.46161168897E+03  0.00000000000E+00 0. -1.
          6    1    1    2  501    0 -0.57125807517E+02  0.16061203389E+02 -0.25120497982E+02  0.18461137440E+03  0.17300000000E+03 0. -1.
         -6    1    1    2    0  503  0.57125807517E+02 -0.16061203389E+02 -0.33330446449E+03  0.38018704106E+03  0.17300000000E+03 0. -1.
<mgrwt>
<rscale>  2 0.18289429E+03</rscale>
<asrwt>0</asrwt>
<pdfrwt beam="1">  1       21 0.15874881E-01 0.18289429E+03</pdfrwt>
<pdfrwt beam="2">  1       21 0.71017183E-01 0.18289429E+03</pdfrwt>
<totfact> 0.63764197E+04</totfact>
</mgrwt>
</event>
<event>
 4    1  0.4043938E+000  0.1908238E+03  0.7546771E-02  0.1157720E+00
         21   -1    0    0  503  502  0.00000000000E+00  0.00000000000E+00  0.88694253699E+03  0.88694253699E+03  0.00000000000E+00 0.  1.
         21   -1    0    0  501  503 -0.00000000000E+00 -0.00000000000E+00 -0.46455768075E+02  0.46455768075E+02  0.00000000000E+00 0.  1.
          6    1    1    2  501    0 -0.22313389731E+02 -0.77374638196E+02  0.57936586073E+03  0.60998239530E+03  0.17300000000E+03 0.  1.
         -6    1    1    2    0  502  0.22313389731E+02  0.77374638196E+02  0.26112090818E+03  0.32341590976E+03  0.17300000000E+03 0.  1.
<mgrwt>
<rscale>  2 0.19082380E+03</rscale>
<asrwt>0</asrwt>
<pdfrwt beam="1">  1       21 0.13645269E+00 0.19082380E+03</pdfrwt>
<pdfrwt beam="2">  1       21 0.71470419E-02 0.19082380E+03</pdfrwt>
<totfact> 0.55838629E+04</totfact>
</mgrwt>
</event>
<event>
 4    1  0.4043938E+000  0.1822181E+03  0.7546771E-02  0.1165673E+00
         21   -1    0    0  503  502  0.00000000000E+00  0.00000000000E+00  0.63499755468E+02  0.63499755468E+02  0.00000000000E+00 0.  1.
         21   -1    0    0  501  503 -0.00000000000E+00 -0.00000000000E+00 -0.67713447726E+03  0.67713447726E+03  0.00000000000E+00 0. -1.
          6    1    1    2  501    0  0.50331160452E+02  0.27225283118E+02 -0.48355942516E+03  0.51675251274E+03  0.17300000000E+03 0. -1.
         -6    1    1    2    0  502 -0.50331160452E+02 -0.27225283118E+02 -0.13007529663E+03  0.22388171999E+03  0.17300000000E+03 0.  1.
<mgrwt>
<rscale>  2 0.18221812E+03</rscale>
<asrwt>0</asrwt>
<pdfrwt beam="1">  1       21 0.97691923E-02 0.18221812E+03</pdfrwt>
<pdfrwt beam="2">  1       21 0.10417454E+00 0.18221812E+03</pdfrwt>
<totfact> 0.63272137E+04</totfact>
</mgrwt>
</event>
<event>
 4    1  0.4043938E+000  0.1742472E+03  0.7546771E-02  0.1173490E+00
         21   -1    0    0  501  502  0.00000000000E+00  0.00000000000E+00  0.23563771729E+04  0.23563771729E+04  0.00000000000E+00 0.  1.
         21   -1    0    0  502  503 -0.00000000000E+00 -0.00000000000E+00 -0.17342316999E+02  0.17342316999E+02  0.00000000000E+00 0.  1.
          6    1    1    2  501    0 -0.16814702918E+02 -0.12262235890E+02  0.56781890475E+03  0.59395320123E+03  0.17300000000E+03 0.  1.
         -6    1    1    2    0  503  0.16814702918E+02  0.12262235890E+02  0.17712159511E+04  0.17797662886E+04  0.17300000000E+03 0.  1.
<mgrwt>
<rscale>  2 0.17424723E+03</rscale>
<asrwt>0</asrwt>
<pdfrwt beam="1">  1       21 0.36251931E+00 0.17424723E+03</pdfrwt>
<pdfrwt beam="2">  1       21 0.26680506E-02 0.17424723E+03</pdfrwt>
<totfact> 0.11582938E+04</totfact>
</mgrwt>
</event>
<event>
 4    1  0.4043938E+000  0.1866756E+03  0.7546771E-02  0.1161494E+00
         21   -1    0    0  503  502  0.00000000000E+00  0.00000000000E+00  0.12914196933E+04  0.12914196933E+04  0.00000000000E+00 0. -1.
         21   -1    0    0  501  503 -0.00000000000E+00 -0.00000000000E+00 -0.35763256525E+02  0.35763256525E+02  0.00000000000E+00 0. -1.
          6    1    1    2  501    0  0.17605162689E+02 -0.67888487146E+02  0.29904559901E+03  0.35252809637E+03  0.17300000000E+03 0. -1.
         -6    1    1    2    0  502 -0.17605162689E+02  0.67888487146E+02  0.95661083778E+03  0.97465485347E+03  0.17300000000E+03 0. -1.
<mgrwt>
<rscale>  2 0.18667562E+03</rscale>
<asrwt>0</asrwt>
<pdfrwt beam="1">  1       21 0.19867992E+00 0.18667562E+03</pdfrwt>
<pdfrwt beam="2">  1       21 0.55020404E-02 0.18667562E+03</pdfrwt>
<totfact> 0.31434700E+04</totfact>
</mgrwt>
</event>
<event>
 4    1  0.4043938E+000  0.1878046E+03  0.7546771E-02  0.1160456E+00
         21   -1    0    0  501  502  0.00000000000E+00  0.00000000000E+00  0.88549170215E+03  0.88549170215E+03  0.00000000000E+00 0. -1.
         21   -1    0    0  502  503 -0.00000000000E+00 -0.00000000000E+00 -0.49138914826E+02  0.49138914826E+02  0.00000000000E+00 0. -1.
          6    1    1    2  501    0 -0.63751692711E+02 -0.35739291544E+02  0.62155665320E+03  0.64930982467E+03  0.17300000000E+03 0. -1.
         -6    1    1    2    0  503  0.63751692711E+02  0.35739291544E+02  0.21479613413E+03  0.28532079230E+03  0.17300000000E+03 0. -1.
<mgrwt>
<rscale>  2 0.18780462E+03</rscale>
<asrwt>0</asrwt>
<pdfrwt beam="1">  1       21 0.13622948E+00 0.18780462E+03</pdfrwt>
<pdfrwt beam="2">  1       21 0.75598337E-02 0.18780462E+03</pdfrwt>
<totfact> 0.50957763E+04</totfact>
</mgrwt>
</event>
<event>
 4    1  0.4043938E+000  0.1889294E+03  0.7546771E-02  0.1159431E+00
         21   -1    0    0  501  502  0.00000000000E+00  0.00000000000E+00  0.24172048854E+04  0.24172048854E+04  0.00000000000E+00 0. -1.
         21   -1    0    0  502  503 -0.00000000000E+00 -0.00000000000E+00 -0.73949859824E+02  0.73949859824E+02  0.00000000000E+00 0. -1.
          6    1    1    2  501    0  0.51956821340E+02  0.55369639304E+02  0.22859242289E+04  0.22937183542E+04  0.17300000000E+03 0.  1.
         -6    1    1    2    0  503 -0.51956821340E+02 -0.55369639304E+02  0.57330796667E+02  0.19743639099E+03  0.17300000000E+03 0.  1.
<mgrwt>
<rscale>  2 0.18892937E+03</rscale>
<asrwt>0</asrwt>
<pdfrwt beam="1">  1       21 0.37187761E+00 0.18892937E+03</pdfrwt>
<pdfrwt beam="2">  1       21 0.11376903E-01 0.18892937E+03</pdfrwt>
<totfact> 0.84069329E+02</totfact>
</mgrwt>
</event>
<event>
 4    1  0.4043938E+000  0.2169266E+03  0.7546771E-02  0.1136195E+00
         21   -1    0    0  503  502  0.00000000000E+00  0.00000000000E+00  0.91205935164E+03  0.91205935164E+03  0.00000000000E+00 0.  1.
         21   -1    0    0  501  503 -0.00000000000E+00 -0.00000000000E+00 -0.10329580111E+03  0.10329580111E+03  0.00000000000E+00 0.  1.
          6    1    1    2  501    0 -0.85897159467E+02 -0.98741279094E+02  0.45213664226E+02  0.22158844201E+03  0.17300000000E+03 0.  1.
         -6    1    1    2    0  502  0.85897159467E+02  0.98741279094E+02  0.76354988630E+03  0.79376671074E+03  0.17300000000E+03 0.  1.
<mgrwt>
<rscale>  2 0.21692663E+03</rscale>
<asrwt>0</asrwt>
<pdfrwt beam="1">  1       21 0.14031682E+00 0.21692663E+03</pdfrwt>
<pdfrwt beam="2">  1       21 0.15891662E-01 0.21692663E+03</pdfrwt>
<totfact> 0.12347948E+04</totfact>
</mgrwt>
</event>
<event>
 4    1  0.4043938E+000  0.1745166E+03  0.7546771E-02  0.1173218E+00
         21   -1    0    0  503  502  0.00000000000E+00  0.00000000000E+00  0.22971256543E+04  0.22971256543E+04  0.00000000000E+00 0. -1.
         21   -1    0    0  501  503 -0.00000000000E+00 -0.00000000000E+00 -0.38516748485E+02  0.38516748485E+02  0.00000000000E+00 0. -1.
          6    1    1    2  501    0  0.22410396505E+02 -0.49834401627E+01  0.18360185018E+03  0.25330949437E+03  0.17300000000E+03 0. -1.
         -6    1    1    2    0  502 -0.22410396505E+02  0.49834401627E+01  0.20750070557E+04  0.20823329085E+04  0.17300000000E+03 0. -1.
<mgrwt>
<rscale>  2 0.17451665E+03</rscale>
<asrwt>0</asrwt>
<pdfrwt beam="1">  1       21 0.35340384E+00 0.17451665E+03</pdfrwt>
<pdfrwt beam="2">  1       21 0.59256554E-02 0.17451665E+03</pdfrwt>
<totfact> 0.34489667E+03</totfact>
</mgrwt>
</event>
<event>
 4    1  0.4043938E+000  0.1908921E+03  0.7546771E-02  0.1157659E+00
         21   -1    0    0  503  502  0.00000000000E+00  0.00000000000E+00  0.75341087220E+03  0.75341087220E+03  0.00000000000E+00 0.  1.
         21   -1    0    0  501  503 -0.00000000000E+00 -0.00000000000E+00 -0.53819133525E+02  0.53819133525E+02  0.00000000000E+00 0. -1.
          6    1    1    2  501    0 -0.68103043736E+02 -0.43275407037E+02  0.22132479454E+03  0.29227461419E+03  0.17300000000E+03 0. -1.
         -6    1    1    2    0  502  0.68103043736E+02  0.43275407037E+02  0.47826694414E+03  0.51495539154E+03  0.17300000000E+03 0.  1.
<mgrwt>
<rscale>  2 0.19089208E+03</rscale>
<asrwt>0</asrwt>
<pdfrwt beam="1">  1       21 0.11590936E+00 0.19089208E+03</pdfrwt>
<pdfrwt beam="2">  1       21 0.82798672E-02 0.19089208E+03</pdfrwt>
<totfact> 0.65056343E+04</totfact>
</mgrwt>
</event>
<event>
 4    1  0.4043938E+000  0.2395344E+03  0.7546771E-02  0.1120103E+00
         21   -1    0    0  501  502  0.00000000000E+00  0.00000000000E+00  0.56906673224E+03  0.56906673224E+03  0.00000000000E+00 0.  1.
         21   -1    0    0  502  503 -0.00000000000E+00 -0.00000000000E+00 -0.11769111260E+03  0.11769111260E+03  0.00000000000E+00 0. -1.
          6    1    1    2  501    0  0.15642024934E+03  0.54593459316E+02  0.35567364163E+03  0.42881287242E+03  0.17300000000E+03 0.  1.
         -6    1    1    2    0  503 -0.15642024934E+03 -0.54593459316E+02  0.95701978017E+02  0.25794497242E+03  0.17300000000E+03 0. -1.
<mgrwt>
<rscale>  2 0.23953442E+03</rscale>
<asrwt>0</asrwt>
<pdfrwt beam="1">  1       21 0.87548727E-01 0.23953442E+03</pdfrwt>
<pdfrwt beam="2">  1       21 0.18106325E-01 0.23953442E+03</pdfrwt>
<totfact> 0.30341811E+04</totfact>
</mgrwt>
</event>
<event>
 4    1  0.4043938E+000  0.1821524E+03  0.7546771E-02  0.1165736E+00
         21   -1    0    0  503  502  0.00000000000E+00  0.00000000000E+00  0.49053682982E+02  0.49053682982E+02  0.00000000000E+00 0. -1.
         21   -1    0    0  501  503 -0.00000000000E+00 -0.00000000000E+00 -0.10701082579E+04  0.10701082579E+04  0.00000000000E+00 0. -1.
          6    1    1    2  501    0  0.43333175041E+02 -0.37050599696E+02 -0.84994995381E+03  0.86924935144E+03  0.17300000000E+03 0. -1.
         -6    1    1    2    0  502 -0.43333175041E+02  0.37050599696E+02 -0.17110462111E+03  0.24991258944E+03  0.17300000000E+03 0. -1.
<mgrwt>
<rscale>  2 0.18215244E+03</rscale>
<asrwt>0</asrwt>
<pdfrwt beam="1">  1       21 0.75467201E-02 0.18215244E+03</pdfrwt>
<pdfrwt beam="2">  1       21 0.16463205E+00 0.18215244E+03</pdfrwt>
<totfact> 0.31148294E+04</totfact>
</mgrwt>
</event>
<event>
 4    1  0.4043938E+000  0.1825825E+03  0.7546771E-02  0.1165327E+00
         21   -1    0    0  501  502  0.00000000000E+00  0.00000000000E+00  0.10792568637E+03  0.10792568637E+03  0.00000000000E+00 0. -1.
         21   -1    0    0  502  503 -0.00000000000E+00 -0.00000000000E+00 -0.39117591998E+03  0.39117591998E+03  0.00000000000E+00 0. -1.
          6    1    1    2  501    0  0.40925190755E+02  0.41623099741E+02 -0.27164647083E+02  0.18459217676E+03  0.17300000000E+03 0. -1.
         -6    1    1    2    0  503 -0.40925190755E+02 -0.41623099741E+02 -0.25608558653E+03  0.31450942959E+03  0.17300000000E+03 0. -1.
<mgrwt>
<rscale>  2 0.18258246E+03</rscale>
<asrwt>0</asrwt>
<pdfrwt beam="1">  1       21 0.16603952E-01 0.18258246E+03</pdfrwt>
<pdfrwt beam="2">  1       21 0.60180911E-01 0.18258246E+03</pdfrwt>
<totfact> 0.84214719E+04</totfact>
</mgrwt>
</event>
<event>
 4    1  0.4043938E+000  0.2295075E+03  0.7546771E-02  0.1126987E+00
         21   -1    0    0  501  502  0.00000000000E+00  0.00000000000E+00  0.13584886126E+03  0.13584886126E+03  0.00000000000E+00 0.  1.
         21   -1    0    0  502  503 -0.00000000000E+00 -0.00000000000E+00 -0.38860682179E+03  0.38860682179E+03  0.00000000000E+00 0.  1.
          6    1    1    2  501    0 -0.71718146057E+02 -0.13266955098E+03 -0.11397657831E+03  0.25625058563E+03  0.17300000000E+03 0.  1.
         -6    1    1    2    0  503  0.71718146057E+02  0.13266955098E+03 -0.13878138222E+03  0.26820509742E+03  0.17300000000E+03 0.  1.
<mgrwt>
<rscale>  2 0.22950752E+03</rscale>
<asrwt>0</asrwt>
<pdfrwt beam="1">  1       21 0.20899825E-01 0.22950752E+03</pdfrwt>
<pdfrwt beam="2">  1       21 0.59785665E-01 0.22950752E+03</pdfrwt>
<totfact> 0.54579676E+04</totfact>
</mgrwt>
</event>
<event>
 4    1  0.4043938E+000  0.2108319E+03  0.7546771E-02  0.1140909E+00
         21   -1    0    0  503  502  0.00000000000E+00  0.00000000000E+00  0.24592314962E+03  0.24592314962E+03  0.00000000000E+00 0. -1.
         21   -1    0    0  501  503 -0.00000000000E+00 -0.00000000000E+00 -0.47902504414E+03  0.47902504414E+03  0.00000000000E+00 0.  1.
          6    1    1    2  501    0  0.11448173287E+03  0.37616791716E+02 -0.40257849503E+03  0.45444420432E+03  0.17300000000E+03 0.  1.
         -6    1    1    2    0  502 -0.11448173287E+03 -0.37616791716E+02  0.16947660051E+03  0.27050398944E+03  0.17300000000E+03 0. -1.
<mgrwt>
<rscale>  2 0.21083190E+03</rscale>
<asrwt>0</asrwt>
<pdfrwt beam="1">  1       21 0.37834331E-01 0.21083190E+03</pdfrwt>
<pdfrwt beam="2">  1       21 0.73696160E-01 0.21083190E+03</pdfrwt>
<totfact> 0.11003973E+04</totfact>
</mgrwt>
</event>
<event>
 4    1  0.4043938E+000  0.2268232E+03  0.7546771E-02  0.1128896E+00
         21   -1    0    0  501  502  0.00000000000E+00  0.00000000000E+00  0.42006574192E+03  0.42006574192E+03  0.00000000000E+00 0.  1.
         21   -1    0    0  502  503 -0.00000000000E+00 -0.00000000000E+00 -0.12580844385E+03  0.12580844385E+03  0.00000000000E+00 0. -1.
          6    1    1    2  501    0  0.90987446951E+02  0.11506968970E+03  0.10271990458E+03  0.24899824856E+03  0.17300000000E+03 0.  1.
         -6    1    1    2    0  503 -0.90987446951E+02 -0.11506968970E+03  0.19153739349E+03  0.29687593721E+03  0.17300000000E+03 0. -1.
<mgrwt>
<rscale>  2 0.22682317E+03</rscale>
<asrwt>0</asrwt>
<pdfrwt beam="1">  1       21 0.64625498E-01 0.22682317E+03</pdfrwt>
<pdfrwt beam="2">  1       21 0.19355145E-01 0.22682317E+03</pdfrwt>
<totfact> 0.53304021E+04</totfact>
</mgrwt>
</event>
<event>
 4    1  0.4043938E+000  0.2297655E+03  0.7546771E-02  0.1126805E+00
         21   -1    0    0  501  502  0.00000000000E+00  0.00000000000E+00  0.76736017181E+03  0.76736017181E+03  0.00000000000E+00 0. -1.
         21   -1    0    0  502  503 -0.00000000000E+00 -0.00000000000E+00 -0.69982882313E+02  0.69982882313E+02  0.00000000000E+00 0. -1.
          6    1    1    2  501    0  0.14233087525E+03 -0.51040082447E+02  0.40318616666E+03  0.46405953611E+03  0.17300000000E+03 0. -1.
         -6    1    1    2    0  503 -0.14233087525E+03  0.51040082447E+02  0.29419112283E+03  0.37328351801E+03  0.17300000000E+03 0. -1.
<mgrwt>
<rscale>  2 0.22976546E+03</rscale>
<asrwt>0</asrwt>
<pdfrwt beam="1">  1       21 0.11805541E+00 0.22976546E+03</pdfrwt>
<pdfrwt beam="2">  1       21 0.10766598E-01 0.22976546E+03</pdfrwt>
<totfact> 0.38381009E+04</totfact>
</mgrwt>
</event>
<event>
 4    1  0.4043938E+000  0.2520737E+03  0.7546771E-02  0.1112001E+00
         21   -1    0    0  501  502  0.00000000000E+00  0.00000000000E+00  0.90361166828E+02  0.90361166828E+02  0.00000000000E+00 0.  1.
         21   -1    0    0  502  503 -0.00000000000E+00 -0.00000000000E+00 -0.11637957651E+04  0.11637957651E+04  0.00000000000E+00 0.  1.
          6    1    1    2  501    0 -0.61071949476E+02  0.17286511126E+03 -0.14221651707E+03  0.28942471807E+03  0.17300000000E+03 0.  1.
         -6    1    1    2    0  503  0.61071949476E+02 -0.17286511126E+03 -0.93121808123E+03  0.96473221389E+03  0.17300000000E+03 0.  1.
<mgrwt>
<rscale>  2 0.25207366E+03</rscale>
<asrwt>0</asrwt>
<pdfrwt beam="1">  1       21 0.13901719E-01 0.25207366E+03</pdfrwt>
<pdfrwt beam="2">  1       21 0.17904549E+00 0.25207366E+03</pdfrwt>
<totfact> 0.79588492E+03</totfact>
</mgrwt>
</event>
<event>
 4    1  0.4043938E+000  0.2022034E+03  0.7546771E-02  0.1147893E+00
         21   -1    0    0  501  502  0.00000000000E+00  0.00000000000E+00  0.46736049975E+03  0.46736049975E+03  0.00000000000E+00 0.  1.
         21   -1    0    0  502  503 -0.00000000000E+00 -0.00000000000E+00 -0.92560336294E+02  0.92560336294E+02  0.00000000000E+00 0.  1.
          6    1    1    2  501    0  0.69823872168E+02  0.77986036292E+02  0.25296828999E+03  0.32385050675E+03  0.17300000000E+03 0.  1.
         -6    1    1    2    0  503 -0.69823872168E+02 -0.77986036292E+02  0.12183187346E+03  0.23607032929E+03  0.17300000000E+03 0.  1.
<mgrwt>
<rscale>  2 0.20220335E+03</rscale>
<asrwt>0</asrwt>
<pdfrwt beam="1">  1       21 0.71901614E-01 0.20220335E+03</pdfrwt>
<pdfrwt beam="2">  1       21 0.14240052E-01 0.20220335E+03</pdfrwt>
<totfact> 0.74971700E+04</totfact>
</mgrwt>
</event>
<event>
 4    1  0.4043938E+000  0.2203685E+03  0.7546771E-02  0.1133609E+00
         21   -1    0    0  501  502  0.00000000000E+00  0.00000000000E+00  0.16515839087E+03  0.16515839087E+03  0.00000000000E+00 0. -1.
         21   -1    0    0  502  503 -0.00000000000E+00 -0.00000000000E+00 -0.30535116409E+03  0.30535116409E+03  0.00000000000E+00 0. -1.
          6    1    1    2  501    0 -0.53398718523E+02  0.12562582215E+03 -0.11538585688E+03  0.24874920361E+03  0.17300000000E+03 0. -1.
         -6    1    1    2    0  503  0.53398718523E+02 -0.12562582215E+03 -0.24806916338E+02  0.22176035135E+03  0.17300000000E+03 0. -1.
<mgrwt>
<rscale>  2 0.22036849E+03</rscale>
<asrwt>0</asrwt>
<pdfrwt beam="1">  1       21 0.25408983E-01 0.22036849E+03</pdfrwt>
<pdfrwt beam="2">  1       21 0.46977102E-01 0.22036849E+03</pdfrwt>
<totfact> 0.62901941E+04</totfact>
</mgrwt>
</event>
<event>
 4    1  0.4043938E+000  0.2162830E+03  0.7546771E-02  0.1136685E+00
         21   -1    0    0  501  502  0.00000000000E+00  0.00000000000E+00  0.10884898328E+04  0.10884898328E+04  0.00000000000E+00 0.  1.
         21   -1    0    0  502  503 -0.00000000000E+00 -0.00000000000E+00 -0.92623286090E+02  0.92623286090E+02  0.00000000000E+00 0.  1.
          6    1    1    2  501    0  0.12770429827E+03 -0.23258143213E+02  0.93029935120E+03  0.95511005223E+03  0.17300000000E+03 0.  1.
         -6    1    1    2    0  503 -0.12770429827E+03  0.23258143213E+02  0.65567195537E+02  0.22600306669E+03  0.17300000000E+03 0.  1.
<mgrwt>
<rscale>  2 0.21628298E+03</rscale>
<asrwt>0</asrwt>
<pdfrwt beam="1">  1       21 0.16745996E+00 0.21628298E+03</pdfrwt>
<pdfrwt beam="2">  1       21 0.14249737E-01 0.21628298E+03</pdfrwt>
<totfact> 0.94039208E+03</totfact>
</mgrwt>
</event>
<event>
 4    1  0.4043938E+000  0.1893817E+03  0.7546771E-02  0.1159020E+00
         21   -1    0    0  503  502  0.00000000000E+00  0.00000000000E+00  0.91160489894E+03  0.91160489894E+03  0.00000000000E+00 0. -1.
         21   -1    0    0  501  503 -0.00000000000E+00 -0.00000000000E+00 -0.43799004893E+02  0.43799004893E+02  0.00000000000E+00 0. -1.
          6    1    1    2  501    0 -0.35510941298E+02  0.68376852529E+02  0.28153636041E+03  0.33930538332E+03  0.17300000000E+03 0. -1.
         -6    1    1    2    0  502  0.35510941298E+02 -0.68376852529E+02  0.58626953363E+03  0.61609852051E+03  0.17300000000E+03 0. -1.
<mgrwt>
<rscale>  2 0.18938168E+03</rscale>
<asrwt>0</asrwt>
<pdfrwt beam="1">  1       21 0.14024689E+00 0.18938168E+03</pdfrwt>
<pdfrwt beam="2">  1       21 0.67383091E-02 0.18938168E+03</pdfrwt>
<totfact> 0.57641925E+04</totfact>
</mgrwt>
</event>
<event>
 4    1  0.4043938E+000  0.1978537E+03  0.7546771E-02  0.1151563E+00
         21   -1    0    0  503  502  0.00000000000E+00  0.00000000000E+00  0.96199515503E+02  0.96199515503E+02  0.00000000000E+00 0.  1.
         21   -1    0    0  501  503 -0.00000000000E+00 -0.00000000000E+00 -0.62031672476E+03  0.62031672476E+03  0.00000000000E+00 0.  1.
          6    1    1    2  501    0  0.83598374673E+02 -0.47205935028E+02 -0.47218326234E+03  0.51196007831E+03  0.17300000000E+03 0. -1.
         -6    1    1    2    0  502 -0.83598374673E+02  0.47205935028E+02 -0.51933946916E+02  0.20455616195E+03  0.17300000000E+03 0. -1.
<mgrwt>
<rscale>  2 0.19785370E+03</rscale>
<asrwt>0</asrwt>
<pdfrwt beam="1">  1       21 0.14799926E-01 0.19785370E+03</pdfrwt>
<pdfrwt beam="2">  1       21 0.95433338E-01 0.19785370E+03</pdfrwt>
<totfact> 0.36738841E+04</totfact>
</mgrwt>
</event>
<event>
 4    1  0.4043938E+000  0.2300064E+03  0.7546771E-02  0.1126635E+00
         21   -1    0    0  501  502  0.00000000000E+00  0.00000000000E+00  0.46035405234E+03  0.46035405234E+03  0.00000000000E+00 0.  1.
         21   -1    0    0  502  503 -0.00000000000E+00 -0.00000000000E+00 -0.13258074801E+03  0.13258074801E+03  0.00000000000E+00 0.  1.
          6    1    1    2  501    0 -0.13535408988E+03 -0.68214621823E+02  0.27209628447E+03  0.35628549268E+03  0.17300000000E+03 0.  1.
         -6    1    1    2    0  503  0.13535408988E+03  0.68214621823E+02  0.55677019866E+02  0.23664930766E+03  0.17300000000E+03 0.  1.
<mgrwt>
<rscale>  2 0.23000644E+03</rscale>
<asrwt>0</asrwt>
<pdfrwt beam="1">  1       21 0.70823699E-01 0.23000644E+03</pdfrwt>
<pdfrwt beam="2">  1       21 0.20397038E-01 0.23000644E+03</pdfrwt>
<totfact> 0.39436525E+04</totfact>
</mgrwt>
</event>
<event>
 4    1  0.4043938E+000  0.2054821E+03  0.7546771E-02  0.1145194E+00
         21   -1    0    0  501  502  0.00000000000E+00  0.00000000000E+00  0.10425876335E+04  0.10425876335E+04  0.00000000000E+00 0.  1.
         21   -1    0    0  502  503 -0.00000000000E+00 -0.00000000000E+00 -0.61289577398E+02  0.61289577398E+02  0.00000000000E+00 0.  1.
          6    1    1    2  501    0 -0.65353441650E+01  0.11068508675E+03  0.81211819388E+03  0.83771048697E+03  0.17300000000E+03 0. -1.
         -6    1    1    2    0  503  0.65353441650E+01 -0.11068508675E+03  0.16917986227E+03  0.26616672397E+03  0.17300000000E+03 0. -1.
<mgrwt>
<rscale>  2 0.20548211E+03</rscale>
<asrwt>0</asrwt>
<pdfrwt beam="1">  1       21 0.16039808E+00 0.20548211E+03</pdfrwt>
<pdfrwt beam="2">  1       21 0.94291666E-02 0.20548211E+03</pdfrwt>
<totfact> 0.22308971E+04</totfact>
</mgrwt>
</event>
<event>
 4    1  0.4043938E+000  0.1810263E+03  0.7546771E-02  0.1166814E+00
         21   -1    0    0  501  502  0.00000000000E+00  0.00000000000E+00  0.41821202663E+03  0.41821202663E+03  0.00000000000E+00 0. -1.
         21   -1    0    0  502  503 -0.00000000000E+00 -0.00000000000E+00 -0.80583211495E+02  0.80583211495E+02  0.00000000000E+00 0. -1.
          6    1    1    2  501    0 -0.15235249905E+02  0.51082243971E+02  0.21025225663E+03  0.27744642709E+03  0.17300000000E+03 0. -1.
         -6    1    1    2    0  503  0.15235249905E+02 -0.51082243971E+02  0.12737655851E+03  0.22134881104E+03  0.17300000000E+03 0. -1.
<mgrwt>
<rscale>  2 0.18102626E+03</rscale>
<asrwt>0</asrwt>
<pdfrwt beam="1">  1       21 0.64340311E-01 0.18102626E+03</pdfrwt>
<pdfrwt beam="2">  1       21 0.12397417E-01 0.18102626E+03</pdfrwt>
<totfact> 0.12386525E+05</totfact>
</mgrwt>
</event>
<event>
 4    1  0.4043938E+000  0.2989569E+03  0.7546771E-02  0.1085763E+00
         21   -1    0    0  503  502  0.00000000000E+00  0.00000000000E+00  0.30037770626E+03  0.30037770626E+03  0.00000000000E+00 0. -1.
         21   -1    0    0  501  503 -0.00000000000E+00 -0.00000000000E+00 -0.30595563890E+03  0.30595563890E+03  0.00000000000E+00 0.  1.
          6    1    1    2  501    0  0.16859506913E+03  0.17613044819E+03  0.47482643894E+02  0.30270420147E+03  0.17300000000E+03 0.  1.
         -6    1    1    2    0  502 -0.16859506913E+03 -0.17613044819E+03 -0.53060576526E+02  0.30362914369E+03  0.17300000000E+03 0.  1.
<mgrwt>
<rscale>  2 0.29895691E+03</rscale>
<asrwt>0</asrwt>
<pdfrwt beam="1">  1       21 0.46211955E-01 0.29895691E+03</pdfrwt>
<pdfrwt beam="2">  1       21 0.47070098E-01 0.29895691E+03</pdfrwt>
<totfact> 0.18371669E+04</totfact>
</mgrwt>
</event>
<event>
 4    1  0.4043938E+000  0.3355101E+03  0.7546771E-02  0.1068725E+00
         21   -1    0    0  503  502  0.00000000000E+00  0.00000000000E+00  0.33407805747E+03  0.33407805747E+03  0.00000000000E+00 0.  1.
         21   -1    0    0  501  503 -0.00000000000E+00 -0.00000000000E+00 -0.33847999579E+03  0.33847999579E+03  0.00000000000E+00 0. -1.
          6    1    1    2  501    0 -0.28736340074E+03  0.77655268629E+01 -0.24822505678E+02  0.33642708613E+03  0.17300000000E+03 0.  1.
         -6    1    1    2    0  502  0.28736340074E+03 -0.77655268629E+01  0.20420567363E+02  0.33613096713E+03  0.17300000000E+03 0.  1.
<mgrwt>
<rscale>  2 0.33551010E+03</rscale>
<asrwt>0</asrwt>
<pdfrwt beam="1">  1       21 0.51396624E-01 0.33551010E+03</pdfrwt>
<pdfrwt beam="2">  1       21 0.52073846E-01 0.33551010E+03</pdfrwt>
<totfact> 0.11701982E+04</totfact>
</mgrwt>
</event>
<event>
 4    1  0.4043938E+000  0.1942535E+03  0.7546771E-02  0.1154680E+00
         21   -1    0    0  501  502  0.00000000000E+00  0.00000000000E+00  0.41759085861E+03  0.41759085861E+03  0.00000000000E+00 0. -1.
         21   -1    0    0  502  503 -0.00000000000E+00 -0.00000000000E+00 -0.29283816979E+03  0.29283816979E+03  0.00000000000E+00 0.  1.
          6    1    1    2  501    0 -0.88346383745E+02 -0.57597947542E+00  0.35774447837E+03  0.40708172040E+03  0.17300000000E+03 0. -1.
         -6    1    1    2    0  503  0.88346383745E+02  0.57597947542E+00 -0.23299178956E+03  0.30334730801E+03  0.17300000000E+03 0.  1.
<mgrwt>
<rscale>  2 0.19425348E+03</rscale>
<asrwt>0</asrwt>
<pdfrwt beam="1">  1       21 0.64244748E-01 0.19425348E+03</pdfrwt>
<pdfrwt beam="2">  1       21 0.45052026E-01 0.19425348E+03</pdfrwt>
<totfact> 0.10557520E+04</totfact>
</mgrwt>
</event>
<event>
 4    1  0.4043938E+000  0.1838961E+03  0.7546771E-02  0.1164085E+00
         21   -1    0    0  501  502  0.00000000000E+00  0.00000000000E+00  0.67773103505E+02  0.67773103505E+02  0.00000000000E+00 0.  1.
         21   -1    0    0  502  503 -0.00000000000E+00 -0.00000000000E+00 -0.10141990101E+04  0.10141990101E+04  0.00000000000E+00 0.  1.
          6    1    1    2  501    0  0.16259328386E+02  0.60202930989E+02 -0.87629548522E+02  0.20370737943E+03  0.17300000000E+03 0.  1.
         -6    1    1    2    0  503 -0.16259328386E+02 -0.60202930989E+02 -0.85879635807E+03  0.87826473417E+03  0.17300000000E+03 0.  1.
<mgrwt>
<rscale>  2 0.18389605E+03</rscale>
<asrwt>0</asrwt>
<pdfrwt beam="1">  1       21 0.10426632E-01 0.18389605E+03</pdfrwt>
<pdfrwt beam="2">  1       21 0.15603061E+00 0.18389605E+03</pdfrwt>
<totfact> 0.20414261E+04</totfact>
</mgrwt>
</event>
<event>
 4    1  0.4043938E+000  0.1915975E+03  0.7546771E-02  0.1157028E+00
         21   -1    0    0  503  502  0.00000000000E+00  0.00000000000E+00  0.47996839442E+03  0.47996839442E+03  0.00000000000E+00 0. -1.
         21   -1    0    0  501  503 -0.00000000000E+00 -0.00000000000E+00 -0.81007466206E+02  0.81007466206E+02  0.00000000000E+00 0. -1.
          6    1    1    2  501    0  0.61076025456E+02  0.55229776982E+02  0.26576568139E+03  0.32762937377E+03  0.17300000000E+03 0. -1.
         -6    1    1    2    0  502 -0.61076025456E+02 -0.55229776982E+02  0.13319524682E+03  0.23334648685E+03  0.17300000000E+03 0. -1.
<mgrwt>
<rscale>  2 0.19159752E+03</rscale>
<asrwt>0</asrwt>
<pdfrwt beam="1">  1       21 0.73841290E-01 0.19159752E+03</pdfrwt>
<pdfrwt beam="2">  1       21 0.12462687E-01 0.19159752E+03</pdfrwt>
<totfact> 0.90307681E+04</totfact>
</mgrwt>
</event>
<event>
 4    1  0.4043938E+000  0.3373881E+03  0.7546771E-02  0.1067914E+00
         21   -1    0    0  501  502  0.00000000000E+00  0.00000000000E+00  0.47527385563E+03  0.47527385563E+03  0.00000000000E+00 0. -1.
         21   -1    0    0  502  503 -0.00000000000E+00 -0.00000000000E+00 -0.24895679213E+03  0.24895679213E+03  0.00000000000E+00 0. -1.
          6    1    1    2  501    0  0.24772257782E+03  0.15011744594E+03  0.18371380959E+03  0.38416335975E+03  0.17300000000E+03 0. -1.
         -6    1    1    2    0  503 -0.24772257782E+03 -0.15011744594E+03  0.42603253905E+02  0.34006728802E+03  0.17300000000E+03 0. -1.
<mgrwt>
<rscale>  2 0.33738809E+03</rscale>
<asrwt>0</asrwt>
<pdfrwt beam="1">  1       21 0.73119055E-01 0.33738809E+03</pdfrwt>
<pdfrwt beam="2">  1       21 0.38301045E-01 0.33738809E+03</pdfrwt>
<totfact> 0.10249945E+04</totfact>
</mgrwt>
</event>
<event>
 4    1  0.4043938E+000  0.2015592E+03  0.7546771E-02  0.1148430E+00
         21   -1    0    0  501  502  0.00000000000E+00  0.00000000000E+00  0.16457132454E+03  0.16457132454E+03  0.00000000000E+00 0.  1.
         21   -1    0    0  502  503 -0.00000000000E+00 -0.00000000000E+00 -0.33000887560E+03  0.33000887560E+03  0.00000000000E+00 0.  1.
          6    1    1    2  501    0  0.17728771131E+02 -0.10189605500E+03  0.41409723729E+02  0.20576899807E+03  0.17300000000E+03 0.  1.
         -6    1    1    2    0  503 -0.17728771131E+02  0.10189605500E+03 -0.20684727479E+03  0.28881120206E+03  0.17300000000E+03 0.  1.
<mgrwt>
<rscale>  2 0.20155921E+03</rscale>
<asrwt>0</asrwt>
<pdfrwt beam="1">  1       21 0.25318666E-01 0.20155921E+03</pdfrwt>
<pdfrwt beam="2">  1       21 0.50770595E-01 0.20155921E+03</pdfrwt>
<totfact> 0.54333108E+04</totfact>
</mgrwt>
</event>
<event>
 4    1  0.4043938E+000  0.1972222E+03  0.7546771E-02  0.1152104E+00
         21   -1    0    0  503  502  0.00000000000E+00  0.00000000000E+00  0.34068094720E+03  0.34068094720E+03  0.00000000000E+00 0.  1.
         21   -1    0    0  501  503 -0.00000000000E+00 -0.00000000000E+00 -0.11419684933E+03  0.11419684933E+03  0.00000000000E+00 0.  1.
          6    1    1    2  501    0 -0.58241503280E+02 -0.74669320962E+02  0.10995814645E+03  0.22580384002E+03  0.17300000000E+03 0.  1.
         -6    1    1    2    0  502  0.58241503280E+02  0.74669320962E+02  0.11652595142E+03  0.22907395651E+03  0.17300000000E+03 0.  1.
<mgrwt>
<rscale>  2 0.19722216E+03</rscale>
<asrwt>0</asrwt>
<pdfrwt beam="1">  1       21 0.52412453E-01 0.19722216E+03</pdfrwt>
<pdfrwt beam="2">  1       21 0.17568746E-01 0.19722216E+03</pdfrwt>
<totfact> 0.10119050E+05</totfact>
</mgrwt>
</event>
<event>
 4    1  0.4043938E+000  0.1845948E+03  0.7546771E-02  0.1163429E+00
         21   -1    0    0  503  502  0.00000000000E+00  0.00000000000E+00  0.85552530932E+02  0.85552530932E+02  0.00000000000E+00 0.  1.
         21   -1    0    0  501  503 -0.00000000000E+00 -0.00000000000E+00 -0.48185819943E+03  0.48185819943E+03  0.00000000000E+00 0.  1.
          6    1    1    2  501    0 -0.29793713478E+02  0.57083867413E+02 -0.31629713597E+03  0.36622276214E+03  0.17300000000E+03 0.  1.
         -6    1    1    2    0  502  0.29793713478E+02 -0.57083867413E+02 -0.80008532522E+02  0.20118796822E+03  0.17300000000E+03 0.  1.
<mgrwt>
<rscale>  2 0.18459478E+03</rscale>
<asrwt>0</asrwt>
<pdfrwt beam="1">  1       21 0.13161928E-01 0.18459478E+03</pdfrwt>
<pdfrwt beam="2">  1       21 0.74132032E-01 0.18459478E+03</pdfrwt>
<totfact> 0.81385278E+04</totfact>
</mgrwt>
</event>
<event>
 4    1  0.4043938E+000  0.2482892E+03  0.7546771E-02  0.1114391E+00
         21   -1    0    0  503  502  0.00000000000E+00  0.00000000000E+00  0.10382014467E+03  0.10382014467E+03  0.00000000000E+00 0.  1.
         21   -1    0    0  501  503 -0.00000000000E+00 -0.00000000000E+00 -0.62333968482E+03  0.62333968482E+03  0.00000000000E+00 0.  1.
          6    1    1    2  501    0 -0.99166468907E+02 -0.14793426715E+03 -0.33891903070E+03  0.42013527027E+03  0.17300000000E+03 0.  1.
         -6    1    1    2    0  502  0.99166468907E+02  0.14793426715E+03 -0.18060050945E+03  0.30702455922E+03  0.17300000000E+03 0.  1.
<mgrwt>
<rscale>  2 0.24828922E+03</rscale>
<asrwt>0</asrwt>
<pdfrwt beam="1">  1       21 0.15972330E-01 0.24828922E+03</pdfrwt>
<pdfrwt beam="2">  1       21 0.95898415E-01 0.24828922E+03</pdfrwt>
<totfact> 0.30796160E+04</totfact>
</mgrwt>
</event>
<event>
 4    1  0.4043938E+000  0.2166162E+03  0.7546771E-02  0.1136431E+00
         21   -1    0    0  501  502  0.00000000000E+00  0.00000000000E+00  0.16325113097E+03  0.16325113097E+03  0.00000000000E+00 0.  1.
         21   -1    0    0  502  503 -0.00000000000E+00 -0.00000000000E+00 -0.29676700660E+03  0.29676700660E+03  0.00000000000E+00 0. -1.
          6    1    1    2  501    0  0.10103309107E+03  0.82376614572E+02 -0.25950634146E+02  0.21816513821E+03  0.17300000000E+03 0.  1.
         -6    1    1    2    0  503 -0.10103309107E+03 -0.82376614572E+02 -0.10756524149E+03  0.24185299935E+03  0.17300000000E+03 0. -1.
<mgrwt>
<rscale>  2 0.21661623E+03</rscale>
<asrwt>0</asrwt>
<pdfrwt beam="1">  1       21 0.25115559E-01 0.21661623E+03</pdfrwt>
<pdfrwt beam="2">  1       21 0.45656462E-01 0.21661623E+03</pdfrwt>
<totfact> 0.68333984E+04</totfact>
</mgrwt>
</event>
<event>
 4    1  0.4043938E+000  0.1964772E+03  0.7546771E-02  0.1152746E+00
         21   -1    0    0  503  502  0.00000000000E+00  0.00000000000E+00  0.89652085444E+02  0.89652085444E+02  0.00000000000E+00 0.  1.
         21   -1    0    0  501  503 -0.00000000000E+00 -0.00000000000E+00 -0.47320058847E+03  0.47320058847E+03  0.00000000000E+00 0. -1.
          6    1    1    2  501    0  0.65992454732E+02  0.65721301000E+02 -0.10732403811E+03  0.22387885707E+03  0.17300000000E+03 0. -1.
         -6    1    1    2    0  502 -0.65992454732E+02 -0.65721301000E+02 -0.27622446492E+03  0.33897381684E+03  0.17300000000E+03 0. -1.
<mgrwt>
<rscale>  2 0.19647721E+03</rscale>
<asrwt>0</asrwt>
<pdfrwt beam="1">  1       21 0.13792628E-01 0.19647721E+03</pdfrwt>
<pdfrwt beam="2">  1       21 0.72800091E-01 0.19647721E+03</pdfrwt>
<totfact> 0.77477796E+04</totfact>
</mgrwt>
</event>
<event>
 4    1  0.4043938E+000  0.3662580E+03  0.7546771E-02  0.1056133E+00
         21   -1    0    0  503  502  0.00000000000E+00  0.00000000000E+00  0.11884996177E+04  0.11884996177E+04  0.00000000000E+00 0.  1.
         21   -1    0    0  501  503 -0.00000000000E+00 -0.00000000000E+00 -0.11301314091E+03  0.11301314091E+03  0.00000000000E+00 0. -1.
          6    1    1    2  501    0  0.25032814513E+03  0.20384248250E+03  0.56097200824E+03  0.66995114146E+03  0.17300000000E+03 0. -1.
         -6    1    1    2    0  502 -0.25032814513E+03 -0.20384248250E+03  0.51451446855E+03  0.63156161716E+03  0.17300000000E+03 0.  1.
<mgrwt>
<rscale>  2 0.36625802E+03</rscale>
<asrwt>0</asrwt>
<pdfrwt beam="1">  1       21 0.18284609E+00 0.36625802E+03</pdfrwt>
<pdfrwt beam="2">  1       21 0.17386638E-01 0.36625802E+03</pdfrwt>
<totfact> 0.46553776E+03</totfact>
</mgrwt>
</event>
<event>
 4    1  0.4043938E+000  0.1952899E+03  0.7546771E-02  0.1153775E+00
         21   -1    0    0  501  502  0.00000000000E+00  0.00000000000E+00  0.63304806187E+03  0.63304806187E+03  0.00000000000E+00 0.  1.
         21   -1    0    0  502  503 -0.00000000000E+00 -0.00000000000E+00 -0.61721670754E+02  0.61721670754E+02  0.00000000000E+00 0.  1.
          6    1    1    2  501    0 -0.23616125962E+02 -0.87472380832E+02  0.33939075503E+03  0.39156637166E+03  0.17300000000E+03 0.  1.
         -6    1    1    2    0  503  0.23616125962E+02  0.87472380832E+02  0.23193563609E+03  0.30320336097E+03  0.17300000000E+03 0.  1.
<mgrwt>
<rscale>  2 0.19528988E+03</rscale>
<asrwt>0</asrwt>
<pdfrwt beam="1">  1       21 0.97392005E-01 0.19528988E+03</pdfrwt>
<pdfrwt beam="2">  1       21 0.94956421E-02 0.19528988E+03</pdfrwt>
<totfact> 0.77590756E+04</totfact>
</mgrwt>
</event>
<event>
 4    1  0.4043938E+000  0.1813410E+03  0.7546771E-02  0.1166512E+00
         21   -1    0    0  503  502  0.00000000000E+00  0.00000000000E+00  0.16836891949E+02  0.16836891949E+02  0.00000000000E+00 0.  1.
         21   -1    0    0  501  503 -0.00000000000E+00 -0.00000000000E+00 -0.21582416640E+04  0.21582416640E+04  0.00000000000E+00 0.  1.
          6    1    1    2  501    0  0.15717258477E+00 -0.54364760282E+02 -0.73543171898E+03  0.75745915081E+03  0.17300000000E+03 0.  1.
         -6    1    1    2    0  502 -0.15717258477E+00  0.54364760282E+02 -0.14059730531E+04  0.14176194051E+04  0.17300000000E+03 0.  1.
<mgrwt>
<rscale>  2 0.18134098E+03</rscale>
<asrwt>0</asrwt>
<pdfrwt beam="1">  1       21 0.25902922E-02 0.18134098E+03</pdfrwt>
<pdfrwt beam="2">  1       21 0.33203704E+00 0.18134098E+03</pdfrwt>
<totfact> 0.18193902E+04</totfact>
</mgrwt>
</event>
<event>
 4    1  0.4043938E+000  0.2928149E+03  0.7546771E-02  0.1088889E+00
         21   -1    0    0  503  502  0.00000000000E+00  0.00000000000E+00  0.11515187622E+03  0.11515187622E+03  0.00000000000E+00 0.  1.
         21   -1    0    0  501  503 -0.00000000000E+00 -0.00000000000E+00 -0.81316351439E+03  0.81316351439E+03  0.00000000000E+00 0.  1.
          6    1    1    2  501    0 -0.74287334259E+02  0.22426085024E+03 -0.48379833391E+03  0.56550982739E+03  0.17300000000E+03 0.  1.
         -6    1    1    2    0  502  0.74287334259E+02 -0.22426085024E+03 -0.21421330426E+03  0.36280556322E+03  0.17300000000E+03 0.  1.
<mgrwt>
<rscale>  2 0.29281485E+03</rscale>
<asrwt>0</asrwt>
<pdfrwt beam="1">  1       21 0.17715673E-01 0.29281485E+03</pdfrwt>
<pdfrwt beam="2">  1       21 0.12510208E+00 0.29281485E+03</pdfrwt>
<totfact> 0.12992058E+04</totfact>
</mgrwt>
</event>
<event>
 4    1  0.4043938E+000  0.3116003E+03  0.7546771E-02  0.1079581E+00
         21   -1    0    0  501  502  0.00000000000E+00  0.00000000000E+00  0.52653214622E+03  0.52653214622E+03  0.00000000000E+00 0. -1.
         21   -1    0    0  502  503 -0.00000000000E+00 -0.00000000000E+00 -0.27377617540E+03  0.27377617540E+03  0.00000000000E+00 0. -1.
          6    1    1    2  501    0 -0.17337428157E+03 -0.19263202633E+03  0.35500639232E+03  0.47236032609E+03  0.17300000000E+03 0. -1.
         -6    1    1    2    0  503  0.17337428157E+03  0.19263202633E+03 -0.10225042149E+03  0.32794799553E+03  0.17300000000E+03 0. -1.
<mgrwt>
<rscale>  2 0.31160029E+03</rscale>
<asrwt>0</asrwt>
<pdfrwt beam="1">  1       21 0.81004945E-01 0.31160029E+03</pdfrwt>
<pdfrwt beam="2">  1       21 0.42119412E-01 0.31160029E+03</pdfrwt>
<totfact> 0.67599299E+03</totfact>
</mgrwt>
</event>
<event>
 4    1  0.4043938E+000  0.1741208E+03  0.7546771E-02  0.1173617E+00
         21   -1    0    0  501  502  0.00000000000E+00  0.00000000000E+00  0.57442558228E+02  0.57442558228E+02  0.00000000000E+00 0.  1.
         21   -1    0    0  502  503 -0.00000000000E+00 -0.00000000000E+00 -0.65885852605E+03  0.65885852605E+03  0.00000000000E+00 0.  1.
          6    1    1    2  501    0 -0.14939577839E+01  0.19667437561E+02 -0.14097070957E+03  0.22403299080E+03  0.17300000000E+03 0.  1.
         -6    1    1    2    0  503  0.14939577839E+01 -0.19667437561E+02 -0.46044525825E+03  0.49226809347E+03  0.17300000000E+03 0.  1.
<mgrwt>
<rscale>  2 0.17412076E+03</rscale>
<asrwt>0</asrwt>
<pdfrwt beam="1">  1       21 0.88373168E-02 0.17412076E+03</pdfrwt>
<pdfrwt beam="2">  1       21 0.10136285E+00 0.17412076E+03</pdfrwt>
<totfact> 0.80836991E+04</totfact>
</mgrwt>
</event>
<event>
 4    1  0.4043938E+000  0.2686995E+03  0.7546771E-02  0.1102026E+00
         21   -1    0    0  501  502  0.00000000000E+00  0.00000000000E+00  0.31327772223E+03  0.31327772223E+03  0.00000000000E+00 0. -1.
         21   -1    0    0  502  503 -0.00000000000E+00 -0.00000000000E+00 -0.72422658326E+03  0.72422658326E+03  0.00000000000E+00 0.  1.
          6    1    1    2  501    0 -0.14062015874E+03  0.14998803701E+03  0.22285851911E+03  0.34909219388E+03  0.17300000000E+03 0. -1.
         -6    1    1    2    0  503  0.14062015874E+03 -0.14998803701E+03 -0.63380738014E+03  0.68841211161E+03  0.17300000000E+03 0. -1.
<mgrwt>
<rscale>  2 0.26869954E+03</rscale>
<asrwt>0</asrwt>
<pdfrwt beam="1">  1       21 0.48196572E-01 0.26869954E+03</pdfrwt>
<pdfrwt beam="2">  1       21 0.11141947E+00 0.26869954E+03</pdfrwt>
<totfact> 0.24563539E+03</totfact>
</mgrwt>
</event>
<event>
 4    1  0.4043938E+000  0.2022224E+03  0.7546771E-02  0.1147877E+00
         21   -1    0    0  503  502  0.00000000000E+00  0.00000000000E+00  0.22863867665E+03  0.22863867665E+03  0.00000000000E+00 0. -1.
         21   -1    0    0  501  503 -0.00000000000E+00 -0.00000000000E+00 -0.18101781042E+03  0.18101781042E+03  0.00000000000E+00 0. -1.
          6    1    1    2  501    0  0.98909126609E+02  0.34378406489E+02  0.14375388612E+01  0.20222748744E+03  0.17300000000E+03 0. -1.
         -6    1    1    2    0  502 -0.98909126609E+02 -0.34378406489E+02  0.46183327368E+02  0.20742899963E+03  0.17300000000E+03 0. -1.
<mgrwt>
<rscale>  2 0.20222238E+03</rscale>
<asrwt>0</asrwt>
<pdfrwt beam="1">  1       21 0.35175181E-01 0.20222238E+03</pdfrwt>
<pdfrwt beam="2">  1       21 0.27848894E-01 0.20222238E+03</pdfrwt>
<totfact> 0.95555431E+04</totfact>
</mgrwt>
</event>
<event>
 4    1  0.4043938E+000  0.2464532E+03  0.7546771E-02  0.1115567E+00
         21   -1    0    0  503  502  0.00000000000E+00  0.00000000000E+00  0.83858585956E+02  0.83858585956E+02  0.00000000000E+00 0. -1.
         21   -1    0    0  501  503 -0.00000000000E+00 -0.00000000000E+00 -0.11535882308E+04  0.11535882308E+04  0.00000000000E+00 0.  1.
          6    1    1    2  501    0  0.13915966404E+03  0.10698023242E+03 -0.91230068800E+03  0.94500355955E+03  0.17300000000E+03 0.  1.
         -6    1    1    2    0  502 -0.13915966404E+03 -0.10698023242E+03 -0.15742895679E+03  0.29244325716E+03  0.17300000000E+03 0. -1.
<mgrwt>
<rscale>  2 0.24645320E+03</rscale>
<asrwt>0</asrwt>
<pdfrwt beam="1">  1       21 0.12901320E-01 0.24645320E+03</pdfrwt>
<pdfrwt beam="2">  1       21 0.17747512E+00 0.24645320E+03</pdfrwt>
<totfact> 0.93796634E+03</totfact>
</mgrwt>
</event>
<event>
 4    1  0.4043938E+000  0.2015551E+03  0.7546771E-02  0.1148434E+00
         21   -1    0    0  503  502  0.00000000000E+00  0.00000000000E+00  0.17017292604E+03  0.17017292604E+03  0.00000000000E+00 0. -1.
         21   -1    0    0  501  503 -0.00000000000E+00 -0.00000000000E+00 -0.24098921380E+03  0.24098921380E+03  0.00000000000E+00 0. -1.
          6    1    1    2  501    0  0.10206996439E+03 -0.16648382172E+02 -0.15478881706E+02  0.20214856428E+03  0.17300000000E+03 0. -1.
         -6    1    1    2    0  502 -0.10206996439E+03  0.16648382172E+02 -0.55337406059E+02  0.20901357556E+03  0.17300000000E+03 0. -1.
<mgrwt>
<rscale>  2 0.20155507E+03</rscale>
<asrwt>0</asrwt>
<pdfrwt beam="1">  1       21 0.26180450E-01 0.20155507E+03</pdfrwt>
<pdfrwt beam="2">  1       21 0.37075264E-01 0.20155507E+03</pdfrwt>
<totfact> 0.96941812E+04</totfact>
</mgrwt>
</event>
<event>
 4    1  0.4043938E+000  0.1853849E+03  0.7546771E-02  0.1162691E+00
         21   -1    0    0  503  502  0.00000000000E+00  0.00000000000E+00  0.40463670684E+03  0.40463670684E+03  0.00000000000E+00 0.  1.
         21   -1    0    0  501  503 -0.00000000000E+00 -0.00000000000E+00 -0.85693977643E+02  0.85693977643E+02  0.00000000000E+00 0. -1.
          6    1    1    2  501    0  0.60269463441E+01 -0.66349290927E+02  0.18255406215E+03  0.26017981877E+03  0.17300000000E+03 0.  1.
         -6    1    1    2    0  502 -0.60269463441E+01  0.66349290927E+02  0.13638866705E+03  0.23015086571E+03  0.17300000000E+03 0. -1.
<mgrwt>
<rscale>  2 0.18538488E+03</rscale>
<asrwt>0</asrwt>
<pdfrwt beam="1">  1       21 0.62251800E-01 0.18538488E+03</pdfrwt>
<pdfrwt beam="2">  1       21 0.13183689E-01 0.18538488E+03</pdfrwt>
<totfact> 0.11893890E+05</totfact>
</mgrwt>
</event>
<event>
 4    1  0.4043938E+000  0.1884409E+03  0.7546771E-02  0.1159875E+00
         21   -1    0    0  503  502  0.00000000000E+00  0.00000000000E+00  0.51664021187E+02  0.51664021187E+02  0.00000000000E+00 0.  1.
         21   -1    0    0  501  503 -0.00000000000E+00 -0.00000000000E+00 -0.81172727034E+03  0.81172727034E+03  0.00000000000E+00 0.  1.
          6    1    1    2  501    0 -0.68015119661E+02 -0.30901931581E+02 -0.54903147890E+03  0.58047011181E+03  0.17300000000E+03 0.  1.
         -6    1    1    2    0  502  0.68015119661E+02  0.30901931581E+02 -0.21103177025E+03  0.28292117972E+03  0.17300000000E+03 0.  1.
<mgrwt>
<rscale>  2 0.18844093E+03</rscale>
<asrwt>0</asrwt>
<pdfrwt beam="1">  1       21 0.79483106E-02 0.18844093E+03</pdfrwt>
<pdfrwt beam="2">  1       21 0.12488112E+00 0.18844093E+03</pdfrwt>
<totfact> 0.58154998E+04</totfact>
</mgrwt>
</event>
<event>
 4    1  0.4043938E+000  0.2371885E+03  0.7546771E-02  0.1121680E+00
         21   -1    0    0  503  502  0.00000000000E+00  0.00000000000E+00  0.17512112737E+03  0.17512112737E+03  0.00000000000E+00 0. -1.
         21   -1    0    0  501  503 -0.00000000000E+00 -0.00000000000E+00 -0.47154345000E+03  0.47154345000E+03  0.00000000000E+00 0.  1.
          6    1    1    2  501    0  0.70813034837E+02 -0.14599628392E+03 -0.33074868337E+03  0.40700502746E+03  0.17300000000E+03 0.  1.
         -6    1    1    2    0  502 -0.70813034837E+02  0.14599628392E+03  0.34326360752E+02  0.23965954991E+03  0.17300000000E+03 0. -1.
<mgrwt>
<rscale>  2 0.23718853E+03</rscale>
<asrwt>0</asrwt>
<pdfrwt beam="1">  1       21 0.26941712E-01 0.23718853E+03</pdfrwt>
<pdfrwt beam="2">  1       21 0.72545146E-01 0.23718853E+03</pdfrwt>
<totfact> 0.21920845E+04</totfact>
</mgrwt>
</event>
<event>
 4    1  0.4043938E+000  0.2306039E+03  0.7546771E-02  0.1126215E+00
         21   -1    0    0  501  502  0.00000000000E+00  0.00000000000E+00  0.29663919108E+03  0.29663919108E+03  0.00000000000E+00 0.  1.
         21   -1    0    0  502  503 -0.00000000000E+00 -0.00000000000E+00 -0.20190683863E+03  0.20190683863E+03  0.00000000000E+00 0.  1.
          6    1    1    2  501    0 -0.12321821484E+03  0.89813266983E+02  0.13083401413E+03  0.26513334503E+03  0.17300000000E+03 0.  1.
         -6    1    1    2    0  503  0.12321821484E+03 -0.89813266983E+02 -0.36101661668E+02  0.23341268468E+03  0.17300000000E+03 0.  1.
<mgrwt>
<rscale>  2 0.23060388E+03</rscale>
<asrwt>0</asrwt>
<pdfrwt beam="1">  1       21 0.45636799E-01 0.23060388E+03</pdfrwt>
<pdfrwt beam="2">  1       21 0.31062591E-01 0.23060388E+03</pdfrwt>
<totfact> 0.45015029E+04</totfact>
</mgrwt>
</event>
<event>
 4    1  0.4043938E+000  0.3011205E+03  0.7546771E-02  0.1084682E+00
         21   -1    0    0  503  502  0.00000000000E+00  0.00000000000E+00  0.64318837013E+03  0.64318837013E+03  0.00000000000E+00 0.  1.
         21   -1    0    0  501  503 -0.00000000000E+00 -0.00000000000E+00 -0.16704925829E+03  0.16704925829E+03  0.00000000000E+00 0.  1.
          6    1    1    2  501    0 -0.18952952821E+03  0.15755350772E+03  0.78016039442E+02  0.31106277866E+03  0.17300000000E+03 0.  1.
         -6    1    1    2    0  502  0.18952952821E+03 -0.15755350772E+03  0.39812307240E+03  0.49917484976E+03  0.17300000000E+03 0.  1.
<mgrwt>
<rscale>  2 0.30112049E+03</rscale>
<asrwt>0</asrwt>
<pdfrwt beam="1">  1       21 0.98952056E-01 0.30112049E+03</pdfrwt>
<pdfrwt beam="2">  1       21 0.25699886E-01 0.30112049E+03</pdfrwt>
<totfact> 0.11378322E+04</totfact>
</mgrwt>
</event>
<event>
 4    1  0.4043938E+000  0.3081172E+03  0.7546771E-02  0.1081252E+00
         21   -1    0    0  501  502  0.00000000000E+00  0.00000000000E+00  0.29606208832E+03  0.29606208832E+03  0.00000000000E+00 0. -1.
         21   -1    0    0  502  503 -0.00000000000E+00 -0.00000000000E+00 -0.50101531192E+03  0.50101531192E+03  0.00000000000E+00 0.  1.
          6    1    1    2  501    0  0.20559853734E+03  0.15078601785E+03  0.13663780335E+03  0.33705499705E+03  0.17300000000E+03 0. -1.
         -6    1    1    2    0  503 -0.20559853734E+03 -0.15078601785E+03 -0.34159102695E+03  0.46002240318E+03  0.17300000000E+03 0.  1.
<mgrwt>
<rscale>  2 0.30811716E+03</rscale>
<asrwt>0</asrwt>
<pdfrwt beam="1">  1       21 0.45548014E-01 0.30811716E+03</pdfrwt>
<pdfrwt beam="2">  1       21 0.77079277E-01 0.30811716E+03</pdfrwt>
<totfact> 0.64502867E+03</totfact>
</mgrwt>
</event>
<event>
 4    1  0.4043938E+000  0.3113590E+03  0.7546771E-02  0.1079696E+00
         21   -1    0    0  501  502  0.00000000000E+00  0.00000000000E+00  0.49255630759E+03  0.49255630759E+03  0.00000000000E+00 0.  1.
         21   -1    0    0  502  503 -0.00000000000E+00 -0.00000000000E+00 -0.28249479940E+03  0.28249479940E+03  0.00000000000E+00 0. -1.
          6    1    1    2  501    0 -0.15749057913E+03 -0.20545587407E+03  0.31844549392E+03  0.44536718705E+03  0.17300000000E+03 0.  1.
         -6    1    1    2    0  503  0.15749057913E+03  0.20545587407E+03 -0.10838398573E+03  0.32968391994E+03  0.17300000000E+03 0. -1.
<mgrwt>
<rscale>  2 0.31135895E+03</rscale>
<asrwt>0</asrwt>
<pdfrwt beam="1">  1       21 0.75777893E-01 0.31135895E+03</pdfrwt>
<pdfrwt beam="2">  1       21 0.43460738E-01 0.31135895E+03</pdfrwt>
<totfact> 0.73782059E+03</totfact>
</mgrwt>
</event>
<event>
 4    1  0.4043938E+000  0.1887178E+03  0.7546771E-02  0.1159623E+00
         21   -1    0    0  503  502  0.00000000000E+00  0.00000000000E+00  0.76870346941E+03  0.76870346941E+03  0.00000000000E+00 0.  1.
         21   -1    0    0  501  503 -0.00000000000E+00 -0.00000000000E+00 -0.47246745071E+02  0.47246745071E+02  0.00000000000E+00 0.  1.
          6    1    1    2  501    0  0.39178292561E+01  0.75299838555E+02  0.41754216469E+03  0.45820942195E+03  0.17300000000E+03 0.  1.
         -6    1    1    2    0  502 -0.39178292561E+01 -0.75299838555E+02  0.30391455966E+03  0.35774079253E+03  0.17300000000E+03 0.  1.
<mgrwt>
<rscale>  2 0.18871782E+03</rscale>
<asrwt>0</asrwt>
<pdfrwt beam="1">  1       21 0.11826206E+00 0.18871782E+03</pdfrwt>
<pdfrwt beam="2">  1       21 0.72687306E-02 0.18871782E+03</pdfrwt>
<totfact> 0.77739098E+04</totfact>
</mgrwt>
</event>
<event>
 4    1  0.4043938E+000  0.2809995E+03  0.7546771E-02  0.1095144E+00
         21   -1    0    0  501  502  0.00000000000E+00  0.00000000000E+00  0.32385969513E+03  0.32385969513E+03  0.00000000000E+00 0. -1.
         21   -1    0    0  502  503 -0.00000000000E+00 -0.00000000000E+00 -0.24381464691E+03  0.24381464691E+03  0.00000000000E+00 0. -1.
          6    1    1    2  501    0  0.21651393647E+03  0.46404987582E+02  0.41047484867E+02  0.28398169584E+03  0.17300000000E+03 0. -1.
         -6    1    1    2    0  503 -0.21651393647E+03 -0.46404987582E+02  0.38997563357E+02  0.28369264620E+03  0.17300000000E+03 0. -1.
<mgrwt>
<rscale>  2 0.28099948E+03</rscale>
<asrwt>0</asrwt>
<pdfrwt beam="1">  1       21 0.49824569E-01 0.28099948E+03</pdfrwt>
<pdfrwt beam="2">  1       21 0.37509946E-01 0.28099948E+03</pdfrwt>
<totfact> 0.25201386E+04</totfact>
</mgrwt>
</event>
<event>
 4    1  0.4043938E+000  0.1894620E+03  0.7546771E-02  0.1158947E+00
         21   -1    0    0  503  502  0.00000000000E+00  0.00000000000E+00  0.37320471674E+03  0.37320471674E+03  0.00000000000E+00 0.  1.
         21   -1    0    0  501  503 -0.00000000000E+00 -0.00000000000E+00 -0.11558084031E+03  0.11558084031E+03  0.00000000000E+00 0. -1.
          6    1    1    2  501    0 -0.34042759734E+02 -0.69339316005E+02  0.28690955064E+02  0.19162207894E+03  0.17300000000E+03 0. -1.
         -6    1    1    2    0  502  0.34042759734E+02  0.69339316005E+02  0.22893292137E+03  0.29716347811E+03  0.17300000000E+03 0.  1.
<mgrwt>
<rscale>  2 0.18946200E+03</rscale>
<asrwt>0</asrwt>
<pdfrwt beam="1">  1       21 0.57416110E-01 0.18946200E+03</pdfrwt>
<pdfrwt beam="2">  1       21 0.17781668E-01 0.18946200E+03</pdfrwt>
<totfact> 0.81865174E+04</totfact>
</mgrwt>
</event>
<event>
 4    1  0.4043938E+000  0.2150276E+03  0.7546771E-02  0.1137645E+00
         21   -1    0    0  501  502  0.00000000000E+00  0.00000000000E+00  0.38598731904E+02  0.38598731904E+02  0.00000000000E+00 0.  1.
         21   -1    0    0  502  503 -0.00000000000E+00 -0.00000000000E+00 -0.12094081198E+04  0.12094081198E+04  0.00000000000E+00 0. -1.
          6    1    1    2  501    0  0.10369978150E+03  0.74526732313E+02 -0.52449762098E+03  0.56686385749E+03  0.17300000000E+03 0. -1.
         -6    1    1    2    0  503 -0.10369978150E+03 -0.74526732313E+02 -0.64631176690E+03  0.68114299420E+03  0.17300000000E+03 0.  1.
<mgrwt>
<rscale>  2 0.21502762E+03</rscale>
<asrwt>0</asrwt>
<pdfrwt beam="1">  1       21 0.59382671E-02 0.21502762E+03</pdfrwt>
<pdfrwt beam="2">  1       21 0.18606277E+00 0.21502762E+03</pdfrwt>
<totfact> 0.32753701E+04</totfact>
</mgrwt>
</event>
<event>
 4    1  0.4043938E+000  0.3007186E+03  0.7546771E-02  0.1084882E+00
         21   -1    0    0  501  502  0.00000000000E+00  0.00000000000E+00  0.93274095232E+03  0.93274095232E+03  0.00000000000E+00 0. -1.
         21   -1    0    0  502  503 -0.00000000000E+00 -0.00000000000E+00 -0.19908955974E+03  0.19908955974E+03  0.00000000000E+00 0. -1.
          6    1    1    2  501    0 -0.24446485064E+03 -0.27196230968E+02  0.77216483088E+03  0.82865567289E+03  0.17300000000E+03 0. -1.
         -6    1    1    2    0  503  0.24446485064E+03  0.27196230968E+02 -0.38513438299E+02  0.30317483917E+03  0.17300000000E+03 0. -1.
<mgrwt>
<rscale>  2 0.30071864E+03</rscale>
<asrwt>0</asrwt>
<pdfrwt beam="1">  1       21 0.14349861E+00 0.30071864E+03</pdfrwt>
<pdfrwt beam="2">  1       21 0.30629164E-01 0.30071864E+03</pdfrwt>
<totfact> 0.31781171E+03</totfact>
</mgrwt>
</event>
<event>
 4    1  0.4043938E+000  0.1921100E+03  0.7546771E-02  0.1156572E+00
         21   -1    0    0  503  502  0.00000000000E+00  0.00000000000E+00  0.41877547079E+03  0.41877547079E+03  0.00000000000E+00 0.  1.
         21   -1    0    0  501  503 -0.00000000000E+00 -0.00000000000E+00 -0.11031919889E+03  0.11031919889E+03  0.00000000000E+00 0.  1.
          6    1    1    2  501    0 -0.46463519643E+02  0.69414749602E+02  0.35580694800E+02  0.19537720431E+03  0.17300000000E+03 0.  1.
         -6    1    1    2    0  502  0.46463519643E+02 -0.69414749602E+02  0.27287557710E+03  0.33371746538E+03  0.17300000000E+03 0.  1.
<mgrwt>
<rscale>  2 0.19211004E+03</rscale>
<asrwt>0</asrwt>
<pdfrwt beam="1">  1       21 0.64426995E-01 0.19211004E+03</pdfrwt>
<pdfrwt beam="2">  1       21 0.16972185E-01 0.19211004E+03</pdfrwt>
<totfact> 0.69544755E+04</totfact>
</mgrwt>
</event>
<event>
 4    1  0.4043938E+000  0.2031288E+03  0.7546771E-02  0.1147126E+00
         21   -1    0    0  503  502  0.00000000000E+00  0.00000000000E+00  0.15520328934E+03  0.15520328934E+03  0.00000000000E+00 0.  1.
         21   -1    0    0  501  503 -0.00000000000E+00 -0.00000000000E+00 -0.26877417737E+03  0.26877417737E+03  0.00000000000E+00 0. -1.
          6    1    1    2  501    0  0.53157870805E+02  0.92231045586E+02 -0.34686736252E+02  0.20606915021E+03  0.17300000000E+03 0.  1.
         -6    1    1    2    0  502 -0.53157870805E+02 -0.92231045586E+02 -0.78884151775E+02  0.21790831650E+03  0.17300000000E+03 0. -1.
<mgrwt>
<rscale>  2 0.20312884E+03</rscale>
<asrwt>0</asrwt>
<pdfrwt beam="1">  1       21 0.23877429E-01 0.20312884E+03</pdfrwt>
<pdfrwt beam="2">  1       21 0.41349873E-01 0.20312884E+03</pdfrwt>
<totfact> 0.92705149E+04</totfact>
</mgrwt>
</event>
<event>
 4    1  0.4043938E+000  0.1896020E+03  0.7546771E-02  0.1158821E+00
         21   -1    0    0  503  502  0.00000000000E+00  0.00000000000E+00  0.77866838542E+02  0.77866838542E+02  0.00000000000E+00 0. -1.
         21   -1    0    0  501  503 -0.00000000000E+00 -0.00000000000E+00 -0.49676744912E+03  0.49676744912E+03  0.00000000000E+00 0. -1.
          6    1    1    2  501    0  0.74665924916E+01  0.77227935423E+02 -0.28581861249E+03  0.34298860515E+03  0.17300000000E+03 0. -1.
         -6    1    1    2    0  502 -0.74665924916E+01 -0.77227935423E+02 -0.13308199808E+03  0.23164568251E+03  0.17300000000E+03 0. -1.
<mgrwt>
<rscale>  2 0.18960196E+03</rscale>
<asrwt>0</asrwt>
<pdfrwt beam="1">  1       21 0.11979514E-01 0.18960196E+03</pdfrwt>
<pdfrwt beam="2">  1       21 0.76425760E-01 0.18960196E+03</pdfrwt>
<totfact> 0.89838000E+04</totfact>
</mgrwt>
</event>
<event>
 4    1  0.4043938E+000  0.1838149E+03  0.7546771E-02  0.1164161E+00
         21   -1    0    0  503  502  0.00000000000E+00  0.00000000000E+00  0.76643573852E+03  0.76643573852E+03  0.00000000000E+00 0.  1.
         21   -1    0    0  501  503 -0.00000000000E+00 -0.00000000000E+00 -0.44682613832E+02  0.44682613832E+02  0.00000000000E+00 0.  1.
          6    1    1    2  501    0  0.60961155150E+02 -0.11943823841E+02  0.40779957051E+03  0.44731242669E+03  0.17300000000E+03 0. -1.
         -6    1    1    2    0  502 -0.60961155150E+02  0.11943823841E+02  0.31395355419E+03  0.36380592567E+03  0.17300000000E+03 0. -1.
<mgrwt>
<rscale>  2 0.18381490E+03</rscale>
<asrwt>0</asrwt>
<pdfrwt beam="1">  1       21 0.11791318E+00 0.18381490E+03</pdfrwt>
<pdfrwt beam="2">  1       21 0.68742488E-02 0.18381490E+03</pdfrwt>
<totfact> 0.86414379E+04</totfact>
</mgrwt>
</event>
<event>
 4    1  0.4043938E+000  0.2360240E+03  0.7546771E-02  0.1122470E+00
         21   -1    0    0  501  502  0.00000000000E+00  0.00000000000E+00  0.37087564357E+03  0.37087564357E+03  0.00000000000E+00 0.  1.
         21   -1    0    0  502  503 -0.00000000000E+00 -0.00000000000E+00 -0.15029347943E+03  0.15029347943E+03  0.00000000000E+00 0. -1.
          6    1    1    2  501    0  0.15638449188E+03 -0.36362219807E+02  0.11661910636E+03  0.26326286540E+03  0.17300000000E+03 0. -1.
         -6    1    1    2    0  503 -0.15638449188E+03  0.36362219807E+02  0.10396305777E+03  0.25790625760E+03  0.17300000000E+03 0.  1.
<mgrwt>
<rscale>  2 0.23602398E+03</rscale>
<asrwt>0</asrwt>
<pdfrwt beam="1">  1       21 0.57057791E-01 0.23602398E+03</pdfrwt>
<pdfrwt beam="2">  1       21 0.23122074E-01 0.23602398E+03</pdfrwt>
<totfact> 0.49695762E+04</totfact>
</mgrwt>
</event>
<event>
 4    1  0.4043938E+000  0.1815696E+03  0.7546771E-02  0.1166293E+00
         21   -1    0    0  501  502  0.00000000000E+00  0.00000000000E+00  0.37646700420E+02  0.37646700420E+02  0.00000000000E+00 0. -1.
         21   -1    0    0  502  503 -0.00000000000E+00 -0.00000000000E+00 -0.16156656552E+04  0.16156656552E+04  0.00000000000E+00 0. -1.
          6    1    1    2  501    0 -0.12872094540E+02 -0.53598678446E+02 -0.22957057650E+03  0.29269465103E+03  0.17300000000E+03 0. -1.
         -6    1    1    2    0  503  0.12872094540E+02  0.53598678446E+02 -0.13484483783E+04  0.13606177046E+04  0.17300000000E+03 0. -1.
<mgrwt>
<rscale>  2 0.18156957E+03</rscale>
<asrwt>0</asrwt>
<pdfrwt beam="1">  1       21 0.57918008E-02 0.18156957E+03</pdfrwt>
<pdfrwt beam="2">  1       21 0.24856392E+00 0.18156957E+03</pdfrwt>
<totfact> 0.14348031E+04</totfact>
</mgrwt>
</event>
<event>
 4    1  0.4043938E+000  0.2343311E+03  0.7546771E-02  0.1123628E+00
         21   -1    0    0  503  502  0.00000000000E+00  0.00000000000E+00  0.16360643695E+04  0.16360643695E+04  0.00000000000E+00 0. -1.
         21   -1    0    0  501  503 -0.00000000000E+00 -0.00000000000E+00 -0.65561288591E+02  0.65561288591E+02  0.00000000000E+00 0. -1.
          6    1    1    2  501    0  0.14403352847E+03 -0.65087820094E+02  0.19085773643E+03  0.30222137119E+03  0.17300000000E+03 0. -1.
         -6    1    1    2    0  502 -0.14403352847E+03  0.65087820094E+02  0.13796453445E+04  0.13994042869E+04  0.17300000000E+03 0. -1.
<mgrwt>
<rscale>  2 0.23433114E+03</rscale>
<asrwt>0</asrwt>
<pdfrwt beam="1">  1       21 0.25170218E+00 0.23433114E+03</pdfrwt>
<pdfrwt beam="2">  1       21 0.10086353E-01 0.23433114E+03</pdfrwt>
<totfact> 0.49888028E+03</totfact>
</mgrwt>
</event>
<event>
 4    1  0.4043938E+000  0.2149121E+03  0.7546771E-02  0.1137734E+00
         21   -1    0    0  501  502  0.00000000000E+00  0.00000000000E+00  0.21907546640E+03  0.21907546640E+03  0.00000000000E+00 0.  1.
         21   -1    0    0  502  503 -0.00000000000E+00 -0.00000000000E+00 -0.21319604169E+03  0.21319604169E+03  0.00000000000E+00 0.  1.
          6    1    1    2  501    0  0.12738321258E+03 -0.56316242474E+01 -0.19840108241E+02  0.21582592044E+03  0.17300000000E+03 0.  1.
         -6    1    1    2    0  503 -0.12738321258E+03  0.56316242474E+01  0.25719532951E+02  0.21644558765E+03  0.17300000000E+03 0.  1.
<mgrwt>
<rscale>  2 0.21491207E+03</rscale>
<asrwt>0</asrwt>
<pdfrwt beam="1">  1       21 0.33703918E-01 0.21491207E+03</pdfrwt>
<pdfrwt beam="2">  1       21 0.32799391E-01 0.21491207E+03</pdfrwt>
<totfact> 0.75152106E+04</totfact>
</mgrwt>
</event>
<event>
 4    1  0.4043938E+000  0.1934935E+03  0.7546771E-02  0.1155348E+00
         21   -1    0    0  503  502  0.00000000000E+00  0.00000000000E+00  0.36309438359E+03  0.36309438359E+03  0.00000000000E+00 0. -1.
         21   -1    0    0  501  503 -0.00000000000E+00 -0.00000000000E+00 -0.12609574392E+03  0.12609574392E+03  0.00000000000E+00 0.  1.
          6    1    1    2  501    0 -0.22752052539E+01 -0.86634619048E+02  0.14075670680E+02  0.19400478933E+03  0.17300000000E+03 0.  1.
         -6    1    1    2    0  502  0.22752052539E+01  0.86634619048E+02  0.22292296899E+03  0.29518533819E+03  0.17300000000E+03 0. -1.
<mgrwt>
<rscale>  2 0.19349350E+03</rscale>
<asrwt>0</asrwt>
<pdfrwt beam="1">  1       21 0.55860674E-01 0.19349350E+03</pdfrwt>
<pdfrwt beam="2">  1       21 0.19399345E-01 0.19349350E+03</pdfrwt>
<totfact> 0.73726085E+04</totfact>
</mgrwt>
</event>
<event>
 4    1  0.4043938E+000  0.1852860E+03  0.7546771E-02  0.1162783E+00
         21   -1    0    0  503  502  0.00000000000E+00  0.00000000000E+00  0.28300389412E+03  0.28300389412E+03  0.00000000000E+00 0.  1.
         21   -1    0    0  501  503 -0.00000000000E+00 -0.00000000000E+00 -0.20173694807E+03  0.20173694807E+03  0.00000000000E+00 0.  1.
          6    1    1    2  501    0  0.32183477893E+01 -0.66268670384E+02 -0.11240147722E+03  0.21671406627E+03  0.17300000000E+03 0.  1.
         -6    1    1    2    0  502 -0.32183477893E+01  0.66268670384E+02  0.19366842328E+03  0.26802677592E+03  0.17300000000E+03 0.  1.
<mgrwt>
<rscale>  2 0.18528598E+03</rscale>
<asrwt>0</asrwt>
<pdfrwt beam="1">  1       21 0.43539061E-01 0.18528598E+03</pdfrwt>
<pdfrwt beam="2">  1       21 0.31036454E-01 0.18528598E+03</pdfrwt>
<totfact> 0.50735009E+04</totfact>
</mgrwt>
</event>
<event>
 4    1  0.4043938E+000  0.1748036E+03  0.7546771E-02  0.1172929E+00
         21   -1    0    0  503  502  0.00000000000E+00  0.00000000000E+00  0.27066843557E+03  0.27066843557E+03  0.00000000000E+00 0.  1.
         21   -1    0    0  501  503 -0.00000000000E+00 -0.00000000000E+00 -0.17692350958E+03  0.17692350958E+03  0.00000000000E+00 0.  1.
          6    1    1    2  501    0 -0.24384919508E+02 -0.57169862500E+01  0.18150693574E+03  0.25199419825E+03  0.17300000000E+03 0.  1.
         -6    1    1    2    0  502  0.24384919508E+02  0.57169862500E+01 -0.87762009754E+02  0.19559774689E+03  0.17300000000E+03 0.  1.
<mgrwt>
<rscale>  2 0.17480363E+03</rscale>
<asrwt>0</asrwt>
<pdfrwt beam="1">  1       21 0.41641298E-01 0.17480363E+03</pdfrwt>
<pdfrwt beam="2">  1       21 0.27219001E-01 0.17480363E+03</pdfrwt>
<totfact> 0.71987222E+04</totfact>
</mgrwt>
</event>
<event>
 4    1  0.4043938E+000  0.2005078E+03  0.7546771E-02  0.1149311E+00
         21   -1    0    0  501  502  0.00000000000E+00  0.00000000000E+00  0.34679280376E+03  0.34679280376E+03  0.00000000000E+00 0. -1.
         21   -1    0    0  502  503 -0.00000000000E+00 -0.00000000000E+00 -0.14850436462E+03  0.14850436462E+03  0.00000000000E+00 0. -1.
          6    1    1    2  501    0  0.75129520387E+02  0.68043730601E+02  0.21513137561E+03  0.29408315640E+03  0.17300000000E+03 0. -1.
         -6    1    1    2    0  503 -0.75129520387E+02 -0.68043730601E+02 -0.16842936471E+02  0.20121401198E+03  0.17300000000E+03 0. -1.
<mgrwt>
<rscale>  2 0.20050784E+03</rscale>
<asrwt>0</asrwt>
<pdfrwt beam="1">  1       21 0.53352739E-01 0.20050784E+03</pdfrwt>
<pdfrwt beam="2">  1       21 0.22846825E-01 0.20050784E+03</pdfrwt>
<totfact> 0.59561645E+04</totfact>
</mgrwt>
</event>
<event>
 4    1  0.4043938E+000  0.2000487E+03  0.7546771E-02  0.1149698E+00
         21   -1    0    0  503  502  0.00000000000E+00  0.00000000000E+00  0.11123296016E+03  0.11123296016E+03  0.00000000000E+00 0.  1.
         21   -1    0    0  501  503 -0.00000000000E+00 -0.00000000000E+00 -0.63341150663E+03  0.63341150663E+03  0.00000000000E+00 0.  1.
          6    1    1    2  501    0 -0.10028304580E+03  0.58129554228E+01 -0.50580306084E+03  0.54392666425E+03  0.17300000000E+03 0.  1.
         -6    1    1    2    0  502  0.10028304580E+03 -0.58129554228E+01 -0.16375485638E+02  0.20071780254E+03  0.17300000000E+03 0.  1.
<mgrwt>
<rscale>  2 0.20004869E+03</rscale>
<asrwt>0</asrwt>
<pdfrwt beam="1">  1       21 0.17112763E-01 0.20004869E+03</pdfrwt>
<pdfrwt beam="2">  1       21 0.97447925E-01 0.20004869E+03</pdfrwt>
<totfact> 0.26778221E+04</totfact>
</mgrwt>
</event>
<event>
 4    1  0.4043938E+000  0.1806012E+03  0.7546771E-02  0.1167223E+00
         21   -1    0    0  503  502  0.00000000000E+00  0.00000000000E+00  0.55074160299E+03  0.55074160299E+03  0.00000000000E+00 0.  1.
         21   -1    0    0  501  503 -0.00000000000E+00 -0.00000000000E+00 -0.64828764085E+02  0.64828764085E+02  0.00000000000E+00 0. -1.
          6    1    1    2  501    0 -0.42431542957E+02  0.29788288225E+02  0.15245266064E+03  0.23634422288E+03  0.17300000000E+03 0. -1.
         -6    1    1    2    0  502  0.42431542957E+02 -0.29788288225E+02  0.33346017827E+03  0.37922614420E+03  0.17300000000E+03 0.  1.
<mgrwt>
<rscale>  2 0.18060116E+03</rscale>
<asrwt>0</asrwt>
<pdfrwt beam="1">  1       21 0.84729474E-01 0.18060116E+03</pdfrwt>
<pdfrwt beam="2">  1       21 0.99736564E-02 0.18060116E+03</pdfrwt>
<totfact> 0.98875303E+04</totfact>
</mgrwt>
</event>
<event>
 4    1  0.4043938E+000  0.3382088E+03  0.7546771E-02  0.1067561E+00
         21   -1    0    0  501  502  0.00000000000E+00  0.00000000000E+00  0.14980005790E+04  0.14980005790E+04  0.00000000000E+00 0. -1.
         21   -1    0    0  502  503 -0.00000000000E+00 -0.00000000000E+00 -0.84508444072E+02  0.84508444072E+02  0.00000000000E+00 0.  1.
          6    1    1    2  501    0 -0.27910510081E+03 -0.80972494074E+02  0.46102565286E+03  0.57177780185E+03  0.17300000000E+03 0. -1.
         -6    1    1    2    0  503  0.27910510081E+03  0.80972494074E+02  0.95246648211E+03  0.10107312213E+04  0.17300000000E+03 0.  1.
<mgrwt>
<rscale>  2 0.33820881E+03</rscale>
<asrwt>0</asrwt>
<pdfrwt beam="1">  1       21 0.23046161E+00 0.33820881E+03</pdfrwt>
<pdfrwt beam="2">  1       21 0.13001300E-01 0.33820881E+03</pdfrwt>
<totfact> 0.39520139E+03</totfact>
</mgrwt>
</event>
<event>
 4    1  0.4043938E+000  0.2286336E+03  0.7546771E-02  0.1127605E+00
         21   -1    0    0  503  502  0.00000000000E+00  0.00000000000E+00  0.80954738065E+03  0.80954738065E+03  0.00000000000E+00 0.  1.
         21   -1    0    0  501  503 -0.00000000000E+00 -0.00000000000E+00 -0.14316791299E+03  0.14316791299E+03  0.00000000000E+00 0. -1.
          6    1    1    2  501    0  0.93742007463E+02 -0.11643344368E+03 -0.19760071663E+02  0.22948588454E+03  0.17300000000E+03 0. -1.
         -6    1    1    2    0  502 -0.93742007463E+02  0.11643344368E+03  0.68613953932E+03  0.72322940910E+03  0.17300000000E+03 0.  1.
<mgrwt>
<rscale>  2 0.22863357E+03</rscale>
<asrwt>0</asrwt>
<pdfrwt beam="1">  1       21 0.12454575E+00 0.22863357E+03</pdfrwt>
<pdfrwt beam="2">  1       21 0.22025833E-01 0.22863357E+03</pdfrwt>
<totfact> 0.90407644E+03</totfact>
</mgrwt>
</event>
<event>
 4    1  0.4043938E+000  0.2196810E+03  0.7546771E-02  0.1134121E+00
         21   -1    0    0  501  502  0.00000000000E+00  0.00000000000E+00  0.55163609466E+03  0.55163609466E+03  0.00000000000E+00 0. -1.
         21   -1    0    0  502  503 -0.00000000000E+00 -0.00000000000E+00 -0.31205066189E+03  0.31205066189E+03  0.00000000000E+00 0. -1.
          6    1    1    2  501    0  0.84600748842E+01 -0.13512653336E+03  0.48613379076E+03  0.53346585214E+03  0.17300000000E+03 0. -1.
         -6    1    1    2    0  503 -0.84600748842E+01  0.13512653336E+03 -0.24654835799E+03  0.33022090441E+03  0.17300000000E+03 0. -1.
<mgrwt>
<rscale>  2 0.21968103E+03</rscale>
<asrwt>0</asrwt>
<pdfrwt beam="1">  1       21 0.84867091E-01 0.21968103E+03</pdfrwt>
<pdfrwt beam="2">  1       21 0.48007794E-01 0.21968103E+03</pdfrwt>
<totfact> 0.48850787E+03</totfact>
</mgrwt>
</event>
<event>
 4    1  0.4043938E+000  0.2303107E+03  0.7546771E-02  0.1126421E+00
         21   -1    0    0  501  502  0.00000000000E+00  0.00000000000E+00  0.11574685689E+04  0.11574685689E+04  0.00000000000E+00 0.  1.
         21   -1    0    0  502  503 -0.00000000000E+00 -0.00000000000E+00 -0.54613024361E+02  0.54613024361E+02  0.00000000000E+00 0. -1.
          6    1    1    2  501    0 -0.15171830166E+03 -0.97762176381E+01  0.79451169660E+03  0.82721935030E+03  0.17300000000E+03 0.  1.
         -6    1    1    2    0  503  0.15171830166E+03  0.97762176381E+01  0.30834384795E+03  0.38486224296E+03  0.17300000000E+03 0. -1.
<mgrwt>
<rscale>  2 0.23031070E+03</rscale>
<asrwt>0</asrwt>
<pdfrwt beam="1">  1       21 0.17807207E+00 0.23031070E+03</pdfrwt>
<pdfrwt beam="2">  1       21 0.84020046E-02 0.23031070E+03</pdfrwt>
<totfact> 0.20140868E+04</totfact>
</mgrwt>
</event>
<event>
 4    1  0.4043938E+000  0.2302033E+03  0.7546771E-02  0.1126497E+00
         21   -1    0    0  501  502  0.00000000000E+00  0.00000000000E+00  0.21123854809E+03  0.21123854809E+03  0.00000000000E+00 0.  1.
         21   -1    0    0  502  503 -0.00000000000E+00 -0.00000000000E+00 -0.25604635442E+03  0.25604635442E+03  0.00000000000E+00 0.  1.
          6    1    1    2  501    0 -0.99915963116E+02  0.11437374992E+03  0.10814342609E+02  0.23045716383E+03  0.17300000000E+03 0.  1.
         -6    1    1    2    0  503  0.99915963116E+02 -0.11437374992E+03 -0.55622148934E+02  0.23682773868E+03  0.17300000000E+03 0.  1.
<mgrwt>
<rscale>  2 0.23020329E+03</rscale>
<asrwt>0</asrwt>
<pdfrwt beam="1">  1       21 0.32498238E-01 0.23020329E+03</pdfrwt>
<pdfrwt beam="2">  1       21 0.39391747E-01 0.23020329E+03</pdfrwt>
<totfact> 0.55656707E+04</totfact>
</mgrwt>
</event>
<event>
 4    1  0.4043938E+000  0.2055232E+03  0.7546771E-02  0.1145161E+00
         21   -1    0    0  501  502  0.00000000000E+00  0.00000000000E+00  0.76379820100E+02  0.76379820100E+02  0.00000000000E+00 0. -1.
         21   -1    0    0  502  503 -0.00000000000E+00 -0.00000000000E+00 -0.57038118880E+03  0.57038118880E+03  0.00000000000E+00 0. -1.
          6    1    1    2  501    0 -0.53784330239E+02  0.97046456619E+02 -0.19058653020E+03  0.28029091033E+03  0.17300000000E+03 0. -1.
         -6    1    1    2    0  503  0.53784330239E+02 -0.97046456619E+02 -0.30341483851E+03  0.36647009857E+03  0.17300000000E+03 0. -1.
<mgrwt>
<rscale>  2 0.20552316E+03</rscale>
<asrwt>0</asrwt>
<pdfrwt beam="1">  1       21 0.11750741E-01 0.20552316E+03</pdfrwt>
<pdfrwt beam="2">  1       21 0.87750955E-01 0.20552316E+03</pdfrwt>
<totfact> 0.67450724E+04</totfact>
</mgrwt>
</event>
<event>
 4    1  0.4043938E+000  0.1988201E+03  0.7546771E-02  0.1150738E+00
         21   -1    0    0  501  502  0.00000000000E+00  0.00000000000E+00  0.60048566665E+03  0.60048566665E+03  0.00000000000E+00 0.  1.
         21   -1    0    0  502  503 -0.00000000000E+00 -0.00000000000E+00 -0.66007685269E+02  0.66007685269E+02  0.00000000000E+00 0.  1.
          6    1    1    2  501    0  0.77509153708E+02  0.59939751784E+02  0.28457174532E+03  0.34714625302E+03  0.17300000000E+03 0.  1.
         -6    1    1    2    0  503 -0.77509153708E+02 -0.59939751784E+02  0.24990623607E+03  0.31934709890E+03  0.17300000000E+03 0.  1.
<mgrwt>
<rscale>  2 0.19882013E+03</rscale>
<asrwt>0</asrwt>
<pdfrwt beam="1">  1       21 0.92382407E-01 0.19882013E+03</pdfrwt>
<pdfrwt beam="2">  1       21 0.10155029E-01 0.19882013E+03</pdfrwt>
<totfact> 0.77862810E+04</totfact>
</mgrwt>
</event>
<event>
 4    1  0.4043938E+000  0.1754289E+03  0.7546771E-02  0.1172302E+00
         21   -1    0    0  503  502  0.00000000000E+00  0.00000000000E+00  0.78580274571E+03  0.78580274571E+03  0.00000000000E+00 0.  1.
         21   -1    0    0  501  503 -0.00000000000E+00 -0.00000000000E+00 -0.17081026998E+03  0.17081026998E+03  0.00000000000E+00 0.  1.
          6    1    1    2  501    0  0.29076269264E+02 -0.93709908993E+00 -0.11241095026E+03  0.20835433600E+03  0.17300000000E+03 0.  1.
         -6    1    1    2    0  502 -0.29076269264E+02  0.93709908993E+00  0.72740342599E+03  0.74825867969E+03  0.17300000000E+03 0.  1.
<mgrwt>
<rscale>  2 0.17542892E+03</rscale>
<asrwt>0</asrwt>
<pdfrwt beam="1">  1       21 0.12089273E+00 0.17542892E+03</pdfrwt>
<pdfrwt beam="2">  1       21 0.26278504E-01 0.17542892E+03</pdfrwt>
<totfact> 0.72349099E+03</totfact>
</mgrwt>
</event>
<event>
 4    1  0.4043938E+000  0.1833831E+03  0.7546771E-02  0.1164568E+00
         21   -1    0    0  501  502  0.00000000000E+00  0.00000000000E+00  0.47903525273E+03  0.47903525273E+03  0.00000000000E+00 0. -1.
         21   -1    0    0  502  503 -0.00000000000E+00 -0.00000000000E+00 -0.88691661066E+03  0.88691661066E+03  0.00000000000E+00 0. -1.
          6    1    1    2  501    0  0.53302030372E+02 -0.29313025355E+02  0.45144824399E+03  0.48727289777E+03  0.17300000000E+03 0. -1.
         -6    1    1    2    0  503 -0.53302030372E+02  0.29313025355E+02 -0.85932960192E+03  0.87867896563E+03  0.17300000000E+03 0. -1.
<mgrwt>
<rscale>  2 0.18338310E+03</rscale>
<asrwt>0</asrwt>
<pdfrwt beam="1">  1       21 0.73697733E-01 0.18338310E+03</pdfrwt>
<pdfrwt beam="2">  1       21 0.13644871E+00 0.18338310E+03</pdfrwt>
<totfact> 0.63862859E+02</totfact>
</mgrwt>
</event>
<event>
 4    1  0.4043938E+000  0.1821364E+03  0.7546771E-02  0.1165751E+00
         21   -1    0    0  503  502  0.00000000000E+00  0.00000000000E+00  0.26788741510E+03  0.26788741510E+03  0.00000000000E+00 0. -1.
         21   -1    0    0  501  503 -0.00000000000E+00 -0.00000000000E+00 -0.12525341307E+03  0.12525341307E+03  0.00000000000E+00 0.  1.
          6    1    1    2  501    0  0.70364712269E+01  0.56525679208E+02  0.50393999788E+02  0.18897941568E+03  0.17300000000E+03 0. -1.
         -6    1    1    2    0  502 -0.70364712269E+01 -0.56525679208E+02  0.92240002237E+02  0.20416141249E+03  0.17300000000E+03 0.  1.
<mgrwt>
<rscale>  2 0.18213639E+03</rscale>
<asrwt>0</asrwt>
<pdfrwt beam="1">  1       21 0.41213448E-01 0.18213639E+03</pdfrwt>
<pdfrwt beam="2">  1       21 0.19269756E-01 0.18213639E+03</pdfrwt>
<totfact> 0.14076482E+05</totfact>
</mgrwt>
</event>
<event>
 4    1  0.4043938E+000  0.2229022E+03  0.7546771E-02  0.1131738E+00
         21   -1    0    0  501  502  0.00000000000E+00  0.00000000000E+00  0.20418995506E+03  0.20418995506E+03  0.00000000000E+00 0.  1.
         21   -1    0    0  502  503 -0.00000000000E+00 -0.00000000000E+00 -0.24496682600E+03  0.24496682600E+03  0.00000000000E+00 0. -1.
          6    1    1    2  501    0  0.85787421217E+02  0.11134141969E+03 -0.20267741760E+01  0.22291142005E+03  0.17300000000E+03 0. -1.
         -6    1    1    2    0  503 -0.85787421217E+02 -0.11134141969E+03 -0.38750096767E+02  0.22624536101E+03  0.17300000000E+03 0. -1.
<mgrwt>
<rscale>  2 0.22290221E+03</rscale>
<asrwt>0</asrwt>
<pdfrwt beam="1">  1       21 0.31413839E-01 0.22290221E+03</pdfrwt>
<pdfrwt beam="2">  1       21 0.37687204E-01 0.22290221E+03</pdfrwt>
<totfact> 0.65257927E+04</totfact>
</mgrwt>
</event>
<event>
 4    1  0.4043938E+000  0.1983264E+03  0.7546771E-02  0.1151159E+00
         21   -1    0    0  501  502  0.00000000000E+00  0.00000000000E+00  0.15549655482E+03  0.15549655482E+03  0.00000000000E+00 0.  1.
         21   -1    0    0  502  503 -0.00000000000E+00 -0.00000000000E+00 -0.57901974861E+03  0.57901974861E+03  0.00000000000E+00 0. -1.
          6    1    1    2  501    0  0.87447467844E+02  0.41920408956E+02  0.63837477246E+02  0.20834731537E+03  0.17300000000E+03 0.  1.
         -6    1    1    2    0  503 -0.87447467844E+02 -0.41920408956E+02 -0.48736067104E+03  0.52616898806E+03  0.17300000000E+03 0. -1.
<mgrwt>
<rscale>  2 0.19832645E+03</rscale>
<asrwt>0</asrwt>
<pdfrwt beam="1">  1       21 0.23922547E-01 0.19832645E+03</pdfrwt>
<pdfrwt beam="2">  1       21 0.89079960E-01 0.19832645E+03</pdfrwt>
<totfact> 0.17658741E+04</totfact>
</mgrwt>
</event>
<event>
 4    1  0.4043938E+000  0.3335417E+03  0.7546771E-02  0.1069580E+00
         21   -1    0    0  501  502  0.00000000000E+00  0.00000000000E+00  0.15115074914E+03  0.15115074914E+03  0.00000000000E+00 0. -1.
         21   -1    0    0  502  503 -0.00000000000E+00 -0.00000000000E+00 -0.98817556461E+03  0.98817556461E+03  0.00000000000E+00 0. -1.
          6    1    1    2  501    0 -0.27485839474E+03 -0.75986191922E+02 -0.70627543254E+03  0.78107299603E+03  0.17300000000E+03 0. -1.
         -6    1    1    2    0  503  0.27485839474E+03  0.75986191922E+02 -0.13074938292E+03  0.35825331771E+03  0.17300000000E+03 0. -1.
<mgrwt>
<rscale>  2 0.33354166E+03</rscale>
<asrwt>0</asrwt>
<pdfrwt beam="1">  1       21 0.23253962E-01 0.33354166E+03</pdfrwt>
<pdfrwt beam="2">  1       21 0.15202701E+00 0.33354166E+03</pdfrwt>
<totfact> 0.45748378E+03</totfact>
</mgrwt>
</event>
<event>
 4    1  0.4043938E+000  0.2143900E+03  0.7546771E-02  0.1138136E+00
         21   -1    0    0  501  502  0.00000000000E+00  0.00000000000E+00  0.27039279310E+03  0.27039279310E+03  0.00000000000E+00 0. -1.
         21   -1    0    0  502  503 -0.00000000000E+00 -0.00000000000E+00 -0.37497550284E+03  0.37497550284E+03  0.00000000000E+00 0. -1.
          6    1    1    2  501    0  0.38879032880E+02  0.12050927660E+03  0.18629285510E+03  0.28402128935E+03  0.17300000000E+03 0. -1.
         -6    1    1    2    0  503 -0.38879032880E+02 -0.12050927660E+03 -0.29087556485E+03  0.36134700659E+03  0.17300000000E+03 0. -1.
<mgrwt>
<rscale>  2 0.21438998E+03</rscale>
<asrwt>0</asrwt>
<pdfrwt beam="1">  1       21 0.41598891E-01 0.21438998E+03</pdfrwt>
<pdfrwt beam="2">  1       21 0.57688539E-01 0.21438998E+03</pdfrwt>
<totfact> 0.15471104E+04</totfact>
</mgrwt>
</event>
<event>
 4    1  0.4043938E+000  0.1920435E+03  0.7546771E-02  0.1156631E+00
         21   -1    0    0  501  502  0.00000000000E+00  0.00000000000E+00  0.81413523582E+03  0.81413523582E+03  0.00000000000E+00 0. -1.
         21   -1    0    0  502  503 -0.00000000000E+00 -0.00000000000E+00 -0.10839551520E+03  0.10839551520E+03  0.00000000000E+00 0.  1.
          6    1    1    2  501    0 -0.16775145661E+02  0.81671969107E+02  0.70478892629E+03  0.73048487093E+03  0.17300000000E+03 0. -1.
         -6    1    1    2    0  503  0.16775145661E+02 -0.81671969107E+02  0.95079433570E+00  0.19204588009E+03  0.17300000000E+03 0.  1.
<mgrwt>
<rscale>  2 0.19204353E+03</rscale>
<asrwt>0</asrwt>
<pdfrwt beam="1">  1       21 0.12525157E+00 0.19204353E+03</pdfrwt>
<pdfrwt beam="2">  1       21 0.16676234E-01 0.19204353E+03</pdfrwt>
<totfact> 0.15346743E+04</totfact>
</mgrwt>
</event>
<event>
 4    1  0.4043938E+000  0.1745438E+03  0.7546771E-02  0.1173191E+00
         21   -1    0    0  501  502  0.00000000000E+00  0.00000000000E+00  0.42140866077E+03  0.42140866077E+03  0.00000000000E+00 0. -1.
         21   -1    0    0  502  503 -0.00000000000E+00 -0.00000000000E+00 -0.28955577882E+03  0.28955577882E+03  0.00000000000E+00 0. -1.
          6    1    1    2  501    0  0.14764096379E+02  0.17848618240E+02  0.37384997007E+03  0.41258859878E+03  0.17300000000E+03 0. -1.
         -6    1    1    2    0  503 -0.14764096379E+02 -0.17848618240E+02 -0.24199708813E+03  0.29837584081E+03  0.17300000000E+03 0. -1.
<mgrwt>
<rscale>  2 0.17454384E+03</rscale>
<asrwt>0</asrwt>
<pdfrwt beam="1">  1       21 0.64832102E-01 0.17454384E+03</pdfrwt>
<pdfrwt beam="2">  1       21 0.44547043E-01 0.17454384E+03</pdfrwt>
<totfact> 0.10737991E+04</totfact>
</mgrwt>
</event>
<event>
 4    1  0.4043938E+000  0.2211410E+03  0.7546771E-02  0.1133035E+00
         21   -1    0    0  503  502  0.00000000000E+00  0.00000000000E+00  0.72675247421E+03  0.72675247421E+03  0.00000000000E+00 0.  1.
         21   -1    0    0  501  503 -0.00000000000E+00 -0.00000000000E+00 -0.27453794350E+03  0.27453794350E+03  0.00000000000E+00 0.  1.
          6    1    1    2  501    0  0.98880146917E+02  0.95901228865E+02 -0.20887722026E+03  0.30419240999E+03  0.17300000000E+03 0.  1.
         -6    1    1    2    0  502 -0.98880146917E+02 -0.95901228865E+02  0.66109175098E+03  0.69709800772E+03  0.17300000000E+03 0.  1.
<mgrwt>
<rscale>  2 0.22114097E+03</rscale>
<asrwt>0</asrwt>
<pdfrwt beam="1">  1       21 0.11180807E+00 0.22114097E+03</pdfrwt>
<pdfrwt beam="2">  1       21 0.42236607E-01 0.22114097E+03</pdfrwt>
<totfact> 0.33084103E+03</totfact>
</mgrwt>
</event>
<event>
 4    1  0.4043938E+000  0.2248246E+03  0.7546771E-02  0.1130336E+00
         21   -1    0    0  503  502  0.00000000000E+00  0.00000000000E+00  0.13255980606E+04  0.13255980606E+04  0.00000000000E+00 0.  1.
         21   -1    0    0  501  503 -0.00000000000E+00 -0.00000000000E+00 -0.69777106492E+02  0.69777106492E+02  0.00000000000E+00 0. -1.
          6    1    1    2  501    0  0.12528528897E+03 -0.70147823730E+02  0.15805315573E+03  0.27482161640E+03  0.17300000000E+03 0. -1.
         -6    1    1    2    0  502 -0.12528528897E+03  0.70147823730E+02  0.10977677984E+04  0.11205535507E+04  0.17300000000E+03 0.  1.
<mgrwt>
<rscale>  2 0.22482464E+03</rscale>
<asrwt>0</asrwt>
<pdfrwt beam="1">  1       21 0.20393814E+00 0.22482464E+03</pdfrwt>
<pdfrwt beam="2">  1       21 0.10734940E-01 0.22482464E+03</pdfrwt>
<totfact> 0.88318802E+03</totfact>
</mgrwt>
</event>
<event>
 4    1  0.4043938E+000  0.1994108E+03  0.7546771E-02  0.1150237E+00
         21   -1    0    0  501  502  0.00000000000E+00  0.00000000000E+00  0.38272154212E+02  0.38272154212E+02  0.00000000000E+00 0. -1.
         21   -1    0    0  502  503 -0.00000000000E+00 -0.00000000000E+00 -0.11763873454E+04  0.11763873454E+04  0.00000000000E+00 0.  1.
          6    1    1    2  501    0 -0.38480084314E+02  0.91405433947E+02 -0.36150565622E+03  0.41285712992E+03  0.17300000000E+03 0. -1.
         -6    1    1    2    0  503  0.38480084314E+02 -0.91405433947E+02 -0.77660953492E+03  0.80180236964E+03  0.17300000000E+03 0.  1.
<mgrwt>
<rscale>  2 0.19941081E+03</rscale>
<asrwt>0</asrwt>
<pdfrwt beam="1">  1       21 0.58880254E-02 0.19941081E+03</pdfrwt>
<pdfrwt beam="2">  1       21 0.18098262E+00 0.19941081E+03</pdfrwt>
<totfact> 0.36327007E+04</totfact>
</mgrwt>
</event>
<event>
 4    1  0.4043938E+000  0.2128805E+03  0.7546771E-02  0.1139305E+00
         21   -1    0    0  503  502  0.00000000000E+00  0.00000000000E+00  0.22838762611E+03  0.22838762611E+03  0.00000000000E+00 0.  1.
         21   -1    0    0  501  503 -0.00000000000E+00 -0.00000000000E+00 -0.37692030122E+03  0.37692030122E+03  0.00000000000E+00 0.  1.
          6    1    1    2  501    0  0.10465454371E+03 -0.66607213307E+02 -0.28253959306E+03  0.35376081754E+03  0.17300000000E+03 0.  1.
         -6    1    1    2    0  502 -0.10465454371E+03  0.66607213307E+02  0.13400691795E+03  0.25154710979E+03  0.17300000000E+03 0.  1.
<mgrwt>
<rscale>  2 0.21288047E+03</rscale>
<asrwt>0</asrwt>
<pdfrwt beam="1">  1       21 0.35136558E-01 0.21288047E+03</pdfrwt>
<pdfrwt beam="2">  1       21 0.57987738E-01 0.21288047E+03</pdfrwt>
<totfact> 0.21512134E+04</totfact>
</mgrwt>
</event>
<event>
 4    1  0.4043938E+000  0.2986467E+03  0.7546771E-02  0.1085919E+00
         21   -1    0    0  503  502  0.00000000000E+00  0.00000000000E+00  0.46118554301E+02  0.46118554301E+02  0.00000000000E+00 0. -1.
         21   -1    0    0  501  503 -0.00000000000E+00 -0.00000000000E+00 -0.29245126606E+04  0.29245126606E+04  0.00000000000E+00 0.  1.
          6    1    1    2  501    0 -0.91387014066E+02  0.22563079998E+03 -0.23036440259E+04  0.23229217899E+04  0.17300000000E+03 0.  1.
         -6    1    1    2    0  502  0.91387014066E+02 -0.22563079998E+03 -0.57475008045E+03  0.64770942498E+03  0.17300000000E+03 0. -1.
<mgrwt>
<rscale>  2 0.29864669E+03</rscale>
<asrwt>0</asrwt>
<pdfrwt beam="1">  1       21 0.70951588E-02 0.29864669E+03</pdfrwt>
<pdfrwt beam="2">  1       21 0.44992524E+00 0.29864669E+03</pdfrwt>
<totfact> 0.53611807E+02</totfact>
</mgrwt>
</event>
<event>
 4    1  0.4043938E+000  0.1871411E+03  0.7546771E-02  0.1161065E+00
         21   -1    0    0  501  502  0.00000000000E+00  0.00000000000E+00  0.53321324169E+03  0.53321324169E+03  0.00000000000E+00 0.  1.
         21   -1    0    0  502  503 -0.00000000000E+00 -0.00000000000E+00 -0.71943030043E+02  0.71943030043E+02  0.00000000000E+00 0.  1.
          6    1    1    2  501    0 -0.46354736945E+02 -0.54258793910E+02  0.31990680425E+03  0.37062398972E+03  0.17300000000E+03 0.  1.
         -6    1    1    2    0  503  0.46354736945E+02  0.54258793910E+02  0.14136340740E+03  0.23453228201E+03  0.17300000000E+03 0.  1.
<mgrwt>
<rscale>  2 0.18714107E+03</rscale>
<asrwt>0</asrwt>
<pdfrwt beam="1">  1       21 0.82032804E-01 0.18714107E+03</pdfrwt>
<pdfrwt beam="2">  1       21 0.11068159E-01 0.18714107E+03</pdfrwt>
<totfact> 0.88274833E+04</totfact>
</mgrwt>
</event>
<event>
 4    1  0.4043938E+000  0.2036777E+03  0.7546771E-02  0.1146673E+00
         21   -1    0    0  503  502  0.00000000000E+00  0.00000000000E+00  0.12283211652E+03  0.12283211652E+03  0.00000000000E+00 0. -1.
         21   -1    0    0  501  503 -0.00000000000E+00 -0.00000000000E+00 -0.76760142626E+03  0.76760142626E+03  0.00000000000E+00 0. -1.
          6    1    1    2  501    0  0.10359373289E+03 -0.28704647237E+02 -0.65555838339E+03  0.68647025594E+03  0.17300000000E+03 0. -1.
         -6    1    1    2    0  502 -0.10359373289E+03  0.28704647237E+02  0.10789073646E+02  0.20396328684E+03  0.17300000000E+03 0. -1.
<mgrwt>
<rscale>  2 0.20367773E+03</rscale>
<asrwt>0</asrwt>
<pdfrwt beam="1">  1       21 0.18897249E-01 0.20367773E+03</pdfrwt>
<pdfrwt beam="2">  1       21 0.11809253E+00 0.20367773E+03</pdfrwt>
<totfact> 0.13991312E+04</totfact>
</mgrwt>
</event>
<event>
 4    1  0.4043938E+000  0.2082733E+03  0.7546771E-02  0.1142941E+00
         21   -1    0    0  503  502  0.00000000000E+00  0.00000000000E+00  0.78049332308E+03  0.78049332308E+03  0.00000000000E+00 0. -1.
         21   -1    0    0  501  503 -0.00000000000E+00 -0.00000000000E+00 -0.92488051491E+02  0.92488051491E+02  0.00000000000E+00 0. -1.
          6    1    1    2  501    0 -0.74938773315E+02 -0.88503854507E+02  0.68257216813E+02  0.21917299025E+03  0.17300000000E+03 0. -1.
         -6    1    1    2    0  502  0.74938773315E+02  0.88503854507E+02  0.61974805478E+03  0.65380838432E+03  0.17300000000E+03 0. -1.
<mgrwt>
<rscale>  2 0.20827326E+03</rscale>
<asrwt>0</asrwt>
<pdfrwt beam="1">  1       21 0.12007589E+00 0.20827326E+03</pdfrwt>
<pdfrwt beam="2">  1       21 0.14228932E-01 0.20827326E+03</pdfrwt>
<totfact> 0.22546510E+04</totfact>
</mgrwt>
</event>
<event>
 4    1  0.4043938E+000  0.2255707E+03  0.7546771E-02  0.1129797E+00
         21   -1    0    0  503  502  0.00000000000E+00  0.00000000000E+00  0.52745072681E+03  0.52745072681E+03  0.00000000000E+00 0. -1.
         21   -1    0    0  501  503 -0.00000000000E+00 -0.00000000000E+00 -0.20761123825E+03  0.20761123825E+03  0.00000000000E+00 0.  1.
          6    1    1    2  501    0  0.14225602077E+03 -0.26764902917E+02  0.42883161865E+03  0.48453967085E+03  0.17300000000E+03 0. -1.
         -6    1    1    2    0  502 -0.14225602077E+03  0.26764902917E+02 -0.10899213009E+03  0.25052229421E+03  0.17300000000E+03 0.  1.
<mgrwt>
<rscale>  2 0.22557069E+03</rscale>
<asrwt>0</asrwt>
<pdfrwt beam="1">  1       21 0.81146265E-01 0.22557069E+03</pdfrwt>
<pdfrwt beam="2">  1       21 0.31940191E-01 0.22557069E+03</pdfrwt>
<totfact> 0.12292632E+04</totfact>
</mgrwt>
</event>
<event>
 4    1  0.4043938E+000  0.2843428E+03  0.7546771E-02  0.1093340E+00
         21   -1    0    0  503  502  0.00000000000E+00  0.00000000000E+00  0.40496091239E+02  0.40496091239E+02  0.00000000000E+00 0. -1.
         21   -1    0    0  501  503 -0.00000000000E+00 -0.00000000000E+00 -0.21641338181E+04  0.21641338181E+04  0.00000000000E+00 0. -1.
          6    1    1    2  501    0  0.78408576044E+02 -0.21159850690E+03 -0.13686024285E+04  0.13978281154E+04  0.17300000000E+03 0. -1.
         -6    1    1    2    0  502 -0.78408576044E+02  0.21159850690E+03 -0.75503529831E+03  0.80680179389E+03  0.17300000000E+03 0. -1.
<mgrwt>
<rscale>  2 0.28434281E+03</rscale>
<asrwt>0</asrwt>
<pdfrwt beam="1">  1       21 0.62301676E-02 0.28434281E+03</pdfrwt>
<pdfrwt beam="2">  1       21 0.33294368E+00 0.28434281E+03</pdfrwt>
<totfact> 0.36998707E+03</totfact>
</mgrwt>
</event>
<event>
 4    1  0.4043938E+000  0.1785830E+03  0.7546771E-02  0.1169181E+00
         21   -1    0    0  501  502  0.00000000000E+00  0.00000000000E+00  0.28523989250E+03  0.28523989250E+03  0.00000000000E+00 0. -1.
         21   -1    0    0  502  503 -0.00000000000E+00 -0.00000000000E+00 -0.13790649594E+03  0.13790649594E+03  0.00000000000E+00 0. -1.
          6    1    1    2  501    0  0.18998883758E+02 -0.40024170279E+02  0.16570787229E+03  0.24362058766E+03  0.17300000000E+03 0.  1.
         -6    1    1    2    0  503 -0.18998883758E+02  0.40024170279E+02 -0.18374475732E+02  0.17952580079E+03  0.17300000000E+03 0.  1.
<mgrwt>
<rscale>  2 0.17858301E+03</rscale>
<asrwt>0</asrwt>
<pdfrwt beam="1">  1       21 0.43883060E-01 0.17858301E+03</pdfrwt>
<pdfrwt beam="2">  1       21 0.21216384E-01 0.17858301E+03</pdfrwt>
<totfact> 0.10365200E+05</totfact>
</mgrwt>
</event>
<event>
 4    1  0.4043938E+000  0.2327144E+03  0.7546771E-02  0.1124744E+00
         21   -1    0    0  503  502  0.00000000000E+00  0.00000000000E+00  0.61709362927E+02  0.61709362927E+02  0.00000000000E+00 0. -1.
         21   -1    0    0  501  503 -0.00000000000E+00 -0.00000000000E+00 -0.16761707514E+04  0.16761707514E+04  0.00000000000E+00 0.  1.
          6    1    1    2  501    0 -0.15272762044E+03 -0.30020981240E+02 -0.14070052762E+04  0.14261205533E+04  0.17300000000E+03 0.  1.
         -6    1    1    2    0  502  0.15272762044E+03  0.30020981240E+02 -0.20745611229E+03  0.31175956102E+03  0.17300000000E+03 0. -1.
<mgrwt>
<rscale>  2 0.23271439E+03</rscale>
<asrwt>0</asrwt>
<pdfrwt beam="1">  1       21 0.94937474E-02 0.23271439E+03</pdfrwt>
<pdfrwt beam="2">  1       21 0.25787244E+00 0.23271439E+03</pdfrwt>
<totfact> 0.51130393E+03</totfact>
</mgrwt>
</event>
<event>
 4    1  0.4043938E+000  0.3070588E+03  0.7546771E-02  0.1081764E+00
         21   -1    0    0  501  502  0.00000000000E+00  0.00000000000E+00  0.20437705305E+04  0.20437705305E+04  0.00000000000E+00 0.  1.
         21   -1    0    0  502  503 -0.00000000000E+00 -0.00000000000E+00 -0.46332613727E+02  0.46332613727E+02  0.00000000000E+00 0.  1.
          6    1    1    2  501    0 -0.22199763131E+03  0.12277291602E+03  0.10673243106E+04  0.11106152895E+04  0.17300000000E+03 0.  1.
         -6    1    1    2    0  503  0.22199763131E+03 -0.12277291602E+03  0.93011360609E+03  0.97948785467E+03  0.17300000000E+03 0.  1.
<mgrwt>
<rscale>  2 0.30705885E+03</rscale>
<asrwt>0</asrwt>
<pdfrwt beam="1">  1       21 0.31442617E+00 0.30705885E+03</pdfrwt>
<pdfrwt beam="2">  1       21 0.71280960E-02 0.30705885E+03</pdfrwt>
<totfact> 0.37032586E+03</totfact>
</mgrwt>
</event>
<event>
 4    1  0.4043938E+000  0.2162078E+03  0.7546771E-02  0.1136742E+00
         21   -1    0    0  503  502  0.00000000000E+00  0.00000000000E+00  0.11034935035E+03  0.11034935035E+03  0.00000000000E+00 0.  1.
         21   -1    0    0  501  503 -0.00000000000E+00 -0.00000000000E+00 -0.44961239708E+03  0.44961239708E+03  0.00000000000E+00 0.  1.
          6    1    1    2  501    0 -0.11577770950E+03  0.58415166451E+02 -0.10230885537E+03  0.23919220634E+03  0.17300000000E+03 0.  1.
         -6    1    1    2    0  502  0.11577770950E+03 -0.58415166451E+02 -0.23695419136E+03  0.32076954109E+03  0.17300000000E+03 0.  1.
<mgrwt>
<rscale>  2 0.21620779E+03</rscale>
<asrwt>0</asrwt>
<pdfrwt beam="1">  1       21 0.16976823E-01 0.21620779E+03</pdfrwt>
<pdfrwt beam="2">  1       21 0.69171138E-01 0.21620779E+03</pdfrwt>
<totfact> 0.58842587E+04</totfact>
</mgrwt>
</event>
<event>
 4    1  0.4043938E+000  0.2311984E+03  0.7546771E-02  0.1125799E+00
         21   -1    0    0  501  502  0.00000000000E+00  0.00000000000E+00  0.11930535807E+03  0.11930535807E+03  0.00000000000E+00 0.  1.
         21   -1    0    0  502  503 -0.00000000000E+00 -0.00000000000E+00 -0.52262521569E+03  0.52262521569E+03  0.00000000000E+00 0.  1.
          6    1    1    2  501    0 -0.15212848476E+03 -0.19509363948E+02 -0.80401825859E+02  0.24477978830E+03  0.17300000000E+03 0.  1.
         -6    1    1    2    0  503  0.15212848476E+03  0.19509363948E+02 -0.32291803177E+03  0.39715078547E+03  0.17300000000E+03 0.  1.
<mgrwt>
<rscale>  2 0.23119838E+03</rscale>
<asrwt>0</asrwt>
<pdfrwt beam="1">  1       21 0.18354670E-01 0.23119838E+03</pdfrwt>
<pdfrwt beam="2">  1       21 0.80403879E-01 0.23119838E+03</pdfrwt>
<totfact> 0.36105278E+04</totfact>
</mgrwt>
</event>
<event>
 4    1  0.4043938E+000  0.1927768E+03  0.7546771E-02  0.1155980E+00
         21   -1    0    0  501  502  0.00000000000E+00  0.00000000000E+00  0.17011898518E+03  0.17011898518E+03  0.00000000000E+00 0.  1.
         21   -1    0    0  502  503 -0.00000000000E+00 -0.00000000000E+00 -0.40415697850E+03  0.40415697850E+03  0.00000000000E+00 0.  1.
          6    1    1    2  501    0 -0.76793391385E+02 -0.36560531148E+02  0.77618688208E+02  0.20781616433E+03  0.17300000000E+03 0.  1.
         -6    1    1    2    0  503  0.76793391385E+02  0.36560531148E+02 -0.31165668153E+03  0.36645979935E+03  0.17300000000E+03 0.  1.
<mgrwt>
<rscale>  2 0.19277681E+03</rscale>
<asrwt>0</asrwt>
<pdfrwt beam="1">  1       21 0.26172152E-01 0.19277681E+03</pdfrwt>
<pdfrwt beam="2">  1       21 0.62177995E-01 0.19277681E+03</pdfrwt>
<totfact> 0.33295851E+04</totfact>
</mgrwt>
</event>
<event>
 4    1  0.4043938E+000  0.2299055E+03  0.7546771E-02  0.1126706E+00
         21   -1    0    0  503  502  0.00000000000E+00  0.00000000000E+00  0.16580462855E+03  0.16580462855E+03  0.00000000000E+00 0. -1.
         21   -1    0    0  501  503 -0.00000000000E+00 -0.00000000000E+00 -0.35612750858E+03  0.35612750858E+03  0.00000000000E+00 0.  1.
          6    1    1    2  501    0 -0.44369433527E+02 -0.14477180772E+03 -0.17966318666E+03  0.29177968329E+03  0.17300000000E+03 0.  1.
         -6    1    1    2    0  502  0.44369433527E+02  0.14477180772E+03 -0.10659693369E+02  0.23015245383E+03  0.17300000000E+03 0. -1.
<mgrwt>
<rscale>  2 0.22990547E+03</rscale>
<asrwt>0</asrwt>
<pdfrwt beam="1">  1       21 0.25508405E-01 0.22990547E+03</pdfrwt>
<pdfrwt beam="2">  1       21 0.54788846E-01 0.22990547E+03</pdfrwt>
<totfact> 0.45025220E+04</totfact>
</mgrwt>
</event>
<event>
 4    1  0.4043938E+000  0.1781604E+03  0.7546771E-02  0.1169595E+00
         21   -1    0    0  503  502  0.00000000000E+00  0.00000000000E+00  0.19246262818E+03  0.19246262818E+03  0.00000000000E+00 0. -1.
         21   -1    0    0  501  503 -0.00000000000E+00 -0.00000000000E+00 -0.27243348610E+03  0.27243348610E+03  0.00000000000E+00 0. -1.
          6    1    1    2  501    0 -0.40809041186E+02 -0.12113418363E+02 -0.18600978532E+03  0.25756698736E+03  0.17300000000E+03 0. -1.
         -6    1    1    2    0  502  0.40809041186E+02  0.12113418363E+02  0.10603892740E+03  0.20732912692E+03  0.17300000000E+03 0. -1.
<mgrwt>
<rscale>  2 0.17816036E+03</rscale>
<asrwt>0</asrwt>
<pdfrwt beam="1">  1       21 0.29609635E-01 0.17816036E+03</pdfrwt>
<pdfrwt beam="2">  1       21 0.41912844E-01 0.17816036E+03</pdfrwt>
<totfact> 0.60285895E+04</totfact>
</mgrwt>
</event>
<event>
 4    1  0.4043938E+000  0.2089053E+03  0.7546771E-02  0.1142436E+00
         21   -1    0    0  503  502  0.00000000000E+00  0.00000000000E+00  0.82887065750E+02  0.82887065750E+02  0.00000000000E+00 0.  1.
         21   -1    0    0  501  503 -0.00000000000E+00 -0.00000000000E+00 -0.86728941638E+03  0.86728941638E+03  0.00000000000E+00 0.  1.
          6    1    1    2  501    0  0.18702075182E+02 -0.11559695056E+03 -0.69000116569E+03  0.72093205730E+03  0.17300000000E+03 0.  1.
         -6    1    1    2    0  502 -0.18702075182E+02  0.11559695056E+03 -0.94401184936E+02  0.22924442482E+03  0.17300000000E+03 0.  1.
<mgrwt>
<rscale>  2 0.20890530E+03</rscale>
<asrwt>0</asrwt>
<pdfrwt beam="1">  1       21 0.12751855E-01 0.20890530E+03</pdfrwt>
<pdfrwt beam="2">  1       21 0.13342915E+00 0.20890530E+03</pdfrwt>
<totfact> 0.21076129E+04</totfact>
</mgrwt>
</event>
<event>
 4    1  0.4043938E+000  0.1738735E+03  0.7546771E-02  0.1173868E+00
         21   -1    0    0  501  502  0.00000000000E+00  0.00000000000E+00  0.11371442535E+04  0.11371442535E+04  0.00000000000E+00 0.  1.
         21   -1    0    0  502  503 -0.00000000000E+00 -0.00000000000E+00 -0.48071699216E+02  0.48071699216E+02  0.00000000000E+00 0.  1.
          6    1    1    2  501    0  0.86380034564E+00  0.17385334007E+02  0.94072177855E+03  0.95665535102E+03  0.17300000000E+03 0.  1.
         -6    1    1    2    0  503 -0.86380034564E+00 -0.17385334007E+02  0.14835077574E+03  0.22856060171E+03  0.17300000000E+03 0.  1.
<mgrwt>
<rscale>  2 0.17387351E+03</rscale>
<asrwt>0</asrwt>
<pdfrwt beam="1">  1       21 0.17494525E+00 0.17387351E+03</pdfrwt>
<pdfrwt beam="2">  1       21 0.73956468E-02 0.17387351E+03</pdfrwt>
<totfact> 0.27462572E+04</totfact>
</mgrwt>
</event>
<event>
 4    1  0.4043938E+000  0.1958980E+03  0.7546771E-02  0.1153247E+00
         21   -1    0    0  503  502  0.00000000000E+00  0.00000000000E+00  0.16913118519E+03  0.16913118519E+03  0.00000000000E+00 0.  1.
         21   -1    0    0  501  503 -0.00000000000E+00 -0.00000000000E+00 -0.22702310006E+03  0.22702310006E+03  0.00000000000E+00 0. -1.
          6    1    1    2  501    0 -0.43578576214E+02  0.80919410621E+02 -0.24353233805E+02  0.19740598602E+03  0.17300000000E+03 0.  1.
         -6    1    1    2    0  502  0.43578576214E+02 -0.80919410621E+02 -0.33538681070E+02  0.19874829923E+03  0.17300000000E+03 0. -1.
<mgrwt>
<rscale>  2 0.19589804E+03</rscale>
<asrwt>0</asrwt>
<pdfrwt beam="1">  1       21 0.26020182E-01 0.19589804E+03</pdfrwt>
<pdfrwt beam="2">  1       21 0.34926631E-01 0.19589804E+03</pdfrwt>
<totfact> 0.11074018E+05</totfact>
</mgrwt>
</event>
<event>
 4    1  0.4043938E+000  0.1739071E+03  0.7546771E-02  0.1173834E+00
         21   -1    0    0  501  502  0.00000000000E+00  0.00000000000E+00  0.15829845194E+03  0.15829845194E+03  0.00000000000E+00 0. -1.
         21   -1    0    0  502  503 -0.00000000000E+00 -0.00000000000E+00 -0.21019674766E+03  0.21019674766E+03  0.00000000000E+00 0. -1.
          6    1    1    2  501    0 -0.15317683643E+02  0.89477528230E+01  0.29651628578E+02  0.17641687218E+03  0.17300000000E+03 0.  1.
         -6    1    1    2    0  503  0.15317683643E+02 -0.89477528230E+01 -0.81549924297E+02  0.19207832742E+03  0.17300000000E+03 0.  1.
<mgrwt>
<rscale>  2 0.17390714E+03</rscale>
<asrwt>0</asrwt>
<pdfrwt beam="1">  1       21 0.24353608E-01 0.17390714E+03</pdfrwt>
<pdfrwt beam="2">  1       21 0.32337961E-01 0.17390714E+03</pdfrwt>
<totfact> 0.14739347E+05</totfact>
</mgrwt>
</event>
<event>
 4    1  0.4043938E+000  0.2029234E+03  0.7546771E-02  0.1147296E+00
         21   -1    0    0  503  502  0.00000000000E+00  0.00000000000E+00  0.52489565444E+03  0.52489565444E+03  0.00000000000E+00 0. -1.
         21   -1    0    0  501  503 -0.00000000000E+00 -0.00000000000E+00 -0.10508368985E+03  0.10508368985E+03  0.00000000000E+00 0. -1.
          6    1    1    2  501    0 -0.50336384429E+02 -0.93355055704E+02  0.36848531838E+03  0.42066536331E+03  0.17300000000E+03 0. -1.
         -6    1    1    2    0  502  0.50336384429E+02  0.93355055704E+02  0.51326646207E+02  0.20931398098E+03  0.17300000000E+03 0. -1.
<mgrwt>
<rscale>  2 0.20292343E+03</rscale>
<asrwt>0</asrwt>
<pdfrwt beam="1">  1       21 0.80753176E-01 0.20292343E+03</pdfrwt>
<pdfrwt beam="2">  1       21 0.16166722E-01 0.20292343E+03</pdfrwt>
<totfact> 0.45826379E+04</totfact>
</mgrwt>
</event>
<event>
 4    1  0.4043938E+000  0.1791509E+03  0.7546771E-02  0.1168627E+00
         21   -1    0    0  501  502  0.00000000000E+00  0.00000000000E+00  0.10099268036E+04  0.10099268036E+04  0.00000000000E+00 0. -1.
         21   -1    0    0  502  503 -0.00000000000E+00 -0.00000000000E+00 -0.57811884229E+02  0.57811884229E+02  0.00000000000E+00 0. -1.
          6    1    1    2  501    0  0.45839851342E+02  0.80459616033E+01  0.83430473278E+03  0.85332257477E+03  0.17300000000E+03 0. -1.
         -6    1    1    2    0  503 -0.45839851342E+02 -0.80459616033E+01  0.11781018656E+03  0.21441611303E+03  0.17300000000E+03 0. -1.
<mgrwt>
<rscale>  2 0.17915086E+03</rscale>
<asrwt>0</asrwt>
<pdfrwt beam="1">  1       21 0.15537334E+00 0.17915086E+03</pdfrwt>
<pdfrwt beam="2">  1       21 0.88941368E-02 0.17915086E+03</pdfrwt>
<totfact> 0.27397462E+04</totfact>
</mgrwt>
</event>
<event>
 4    1  0.4043938E+000  0.1993056E+03  0.7546771E-02  0.1150326E+00
         21   -1    0    0  503  502  0.00000000000E+00  0.00000000000E+00  0.46403172359E+03  0.46403172359E+03  0.00000000000E+00 0. -1.
         21   -1    0    0  501  503 -0.00000000000E+00 -0.00000000000E+00 -0.90153712688E+02  0.90153712688E+02  0.00000000000E+00 0.  1.
          6    1    1    2  501    0  0.79385007559E+01  0.98644226636E+02  0.12468706441E+03  0.23509480486E+03  0.17300000000E+03 0.  1.
         -6    1    1    2    0  502 -0.79385007559E+01 -0.98644226636E+02  0.24919094650E+03  0.31909063142E+03  0.17300000000E+03 0. -1.
<mgrwt>
<rscale>  2 0.19930555E+03</rscale>
<asrwt>0</asrwt>
<pdfrwt beam="1">  1       21 0.71389495E-01 0.19930555E+03</pdfrwt>
<pdfrwt beam="2">  1       21 0.13869802E-01 0.19930555E+03</pdfrwt>
<totfact> 0.79999206E+04</totfact>
</mgrwt>
</event>
<event>
 4    1  0.4043938E+000  0.1865571E+03  0.7546771E-02  0.1161604E+00
         21   -1    0    0  503  502  0.00000000000E+00  0.00000000000E+00  0.50825007555E+03  0.50825007555E+03  0.00000000000E+00 0.  1.
         21   -1    0    0  501  503 -0.00000000000E+00 -0.00000000000E+00 -0.68867833133E+02  0.68867833133E+02  0.00000000000E+00 0.  1.
          6    1    1    2  501    0  0.41306080069E+02 -0.56288165949E+02  0.19795898843E+03  0.27201343896E+03  0.17300000000E+03 0.  1.
         -6    1    1    2    0  502 -0.41306080069E+02  0.56288165949E+02  0.24142325399E+03  0.30510446972E+03  0.17300000000E+03 0.  1.
<mgrwt>
<rscale>  2 0.18655710E+03</rscale>
<asrwt>0</asrwt>
<pdfrwt beam="1">  1       21 0.78192317E-01 0.18655710E+03</pdfrwt>
<pdfrwt beam="2">  1       21 0.10595052E-01 0.18655710E+03</pdfrwt>
<totfact> 0.10632711E+05</totfact>
</mgrwt>
</event>
<event>
 4    1  0.4043938E+000  0.1965670E+03  0.7546771E-02  0.1152668E+00
         21   -1    0    0  501  502  0.00000000000E+00  0.00000000000E+00  0.53663873091E+03  0.53663873091E+03  0.00000000000E+00 0. -1.
         21   -1    0    0  502  503 -0.00000000000E+00 -0.00000000000E+00 -0.85141429790E+02  0.85141429790E+02  0.00000000000E+00 0. -1.
          6    1    1    2  501    0  0.12942321918E+02  0.92423399398E+02  0.34788339691E+03  0.39957658377E+03  0.17300000000E+03 0. -1.
         -6    1    1    2    0  503 -0.12942321918E+02 -0.92423399398E+02  0.10361390421E+03  0.22220357692E+03  0.17300000000E+03 0. -1.
<mgrwt>
<rscale>  2 0.19656701E+03</rscale>
<asrwt>0</asrwt>
<pdfrwt beam="1">  1       21 0.82559803E-01 0.19656701E+03</pdfrwt>
<pdfrwt beam="2">  1       21 0.13098682E-01 0.19656701E+03</pdfrwt>
<totfact> 0.64095015E+04</totfact>
</mgrwt>
</event>
<event>
 4    1  0.4043938E+000  0.2020673E+03  0.7546771E-02  0.1148006E+00
         21   -1    0    0  501  502  0.00000000000E+00  0.00000000000E+00  0.27096087067E+03  0.27096087067E+03  0.00000000000E+00 0. -1.
         21   -1    0    0  502  503 -0.00000000000E+00 -0.00000000000E+00 -0.15070738346E+03  0.15070738346E+03  0.00000000000E+00 0.  1.
          6    1    1    2  501    0  0.61206970687E+02 -0.84592440244E+02  0.57881861411E+02  0.21019392020E+03  0.17300000000E+03 0. -1.
         -6    1    1    2    0  503 -0.61206970687E+02  0.84592440244E+02  0.62371625797E+02  0.21147433393E+03  0.17300000000E+03 0.  1.
<mgrwt>
<rscale>  2 0.20206725E+03</rscale>
<asrwt>0</asrwt>
<pdfrwt beam="1">  1       21 0.41686288E-01 0.20206725E+03</pdfrwt>
<pdfrwt beam="2">  1       21 0.23185751E-01 0.20206725E+03</pdfrwt>
<totfact> 0.96469303E+04</totfact>
</mgrwt>
</event>
<event>
 4    1  0.4043938E+000  0.2669627E+03  0.7546771E-02  0.1103031E+00
         21   -1    0    0  501  502  0.00000000000E+00  0.00000000000E+00  0.45618991809E+03  0.45618991809E+03  0.00000000000E+00 0. -1.
         21   -1    0    0  502  503 -0.00000000000E+00 -0.00000000000E+00 -0.19178392176E+03  0.19178392176E+03  0.00000000000E+00 0. -1.
          6    1    1    2  501    0  0.20292322603E+03 -0.12736833795E+02  0.27170648426E+03  0.38091137576E+03  0.17300000000E+03 0. -1.
         -6    1    1    2    0  503 -0.20292322603E+03  0.12736833795E+02 -0.73004879217E+01  0.26706246408E+03  0.17300000000E+03 0. -1.
<mgrwt>
<rscale>  2 0.26696266E+03</rscale>
<asrwt>0</asrwt>
<pdfrwt beam="1">  1       21 0.70183064E-01 0.26696266E+03</pdfrwt>
<pdfrwt beam="2">  1       21 0.29505219E-01 0.26696266E+03</pdfrwt>
<totfact> 0.19491036E+04</totfact>
</mgrwt>
</event>
<event>
 4    1  0.4043938E+000  0.1857091E+03  0.7546771E-02  0.1162389E+00
         21   -1    0    0  501  502  0.00000000000E+00  0.00000000000E+00  0.90022054867E+02  0.90022054867E+02  0.00000000000E+00 0. -1.
         21   -1    0    0  502  503 -0.00000000000E+00 -0.00000000000E+00 -0.81492270734E+03  0.81492270734E+03  0.00000000000E+00 0. -1.
          6    1    1    2  501    0 -0.66477538447E+02 -0.11814880864E+02 -0.33080099122E+02  0.18863230764E+03  0.17300000000E+03 0. -1.
         -6    1    1    2    0  503  0.66477538447E+02  0.11814880864E+02 -0.69182055335E+03  0.71631245457E+03  0.17300000000E+03 0. -1.
<mgrwt>
<rscale>  2 0.18570906E+03</rscale>
<asrwt>0</asrwt>
<pdfrwt beam="1">  1       21 0.13849547E-01 0.18570906E+03</pdfrwt>
<pdfrwt beam="2">  1       21 0.12537272E+00 0.18570906E+03</pdfrwt>
<totfact> 0.21562779E+04</totfact>
</mgrwt>
</event>
<event>
 4    1  0.4043938E+000  0.1894147E+03  0.7546771E-02  0.1158990E+00
         21   -1    0    0  503  502  0.00000000000E+00  0.00000000000E+00  0.26916703882E+03  0.26916703882E+03  0.00000000000E+00 0. -1.
         21   -1    0    0  501  503 -0.00000000000E+00 -0.00000000000E+00 -0.13347357261E+03  0.13347357261E+03  0.00000000000E+00 0. -1.
          6    1    1    2  501    0  0.76026113555E+02 -0.12997706579E+02  0.75264650805E+02  0.20382020994E+03  0.17300000000E+03 0. -1.
         -6    1    1    2    0  502 -0.76026113555E+02  0.12997706579E+02  0.60428815397E+02  0.19882040149E+03  0.17300000000E+03 0. -1.
<mgrwt>
<rscale>  2 0.18941465E+03</rscale>
<asrwt>0</asrwt>
<pdfrwt beam="1">  1       21 0.41410313E-01 0.18941465E+03</pdfrwt>
<pdfrwt beam="2">  1       21 0.20534396E-01 0.18941465E+03</pdfrwt>
<totfact> 0.12352251E+05</totfact>
</mgrwt>
</event>
<event>
 4    1  0.4043938E+000  0.1735829E+03  0.7546771E-02  0.1174162E+00
         21   -1    0    0  503  502  0.00000000000E+00  0.00000000000E+00  0.15236033284E+03  0.15236033284E+03  0.00000000000E+00 0. -1.
         21   -1    0    0  501  503 -0.00000000000E+00 -0.00000000000E+00 -0.19779788289E+03  0.19779788289E+03  0.00000000000E+00 0. -1.
          6    1    1    2  501    0  0.78478249268E+01 -0.11850971934E+02 -0.25087714568E+02  0.17538650836E+03  0.17300000000E+03 0. -1.
         -6    1    1    2    0  502 -0.78478249268E+01  0.11850971934E+02 -0.20349835483E+02  0.17477170737E+03  0.17300000000E+03 0. -1.
<mgrwt>
<rscale>  2 0.17358293E+03</rscale>
<asrwt>0</asrwt>
<pdfrwt beam="1">  1       21 0.23440051E-01 0.17358293E+03</pdfrwt>
<pdfrwt beam="2">  1       21 0.30430443E-01 0.17358293E+03</pdfrwt>
<totfact> 0.17848064E+05</totfact>
</mgrwt>
</event>
<event>
 4    1  0.4043938E+000  0.1860788E+03  0.7546771E-02  0.1162046E+00
         21   -1    0    0  501  502  0.00000000000E+00  0.00000000000E+00  0.89663420991E+02  0.89663420991E+02  0.00000000000E+00 0.  1.
         21   -1    0    0  502  503 -0.00000000000E+00 -0.00000000000E+00 -0.72305663309E+03  0.72305663309E+03  0.00000000000E+00 0.  1.
          6    1    1    2  501    0 -0.66590286190E+02  0.16187532468E+02 -0.39321894892E+02  0.19018810121E+03  0.17300000000E+03 0.  1.
         -6    1    1    2    0  503  0.66590286190E+02 -0.16187532468E+02 -0.59407131721E+03  0.62253195288E+03  0.17300000000E+03 0.  1.
<mgrwt>
<rscale>  2 0.18607875E+03</rscale>
<asrwt>0</asrwt>
<pdfrwt beam="1">  1       21 0.13794372E-01 0.18607875E+03</pdfrwt>
<pdfrwt beam="2">  1       21 0.11123948E+00 0.18607875E+03</pdfrwt>
<totfact> 0.29139262E+04</totfact>
</mgrwt>
</event>
<event>
 4    1  0.4043938E+000  0.2062090E+03  0.7546771E-02  0.1144604E+00
         21   -1    0    0  503  502  0.00000000000E+00  0.00000000000E+00  0.47882402457E+02  0.47882402457E+02  0.00000000000E+00 0.  1.
         21   -1    0    0  501  503 -0.00000000000E+00 -0.00000000000E+00 -0.13125353904E+04  0.13125353904E+04  0.00000000000E+00 0.  1.
          6    1    1    2  501    0 -0.46488558021E+02  0.10213704341E+03 -0.10191528851E+04  0.10398051572E+04  0.17300000000E+03 0.  1.
         -6    1    1    2    0  502  0.46488558021E+02 -0.10213704341E+03 -0.24550010282E+03  0.32061263566E+03  0.17300000000E+03 0.  1.
<mgrwt>
<rscale>  2 0.20620902E+03</rscale>
<asrwt>0</asrwt>
<pdfrwt beam="1">  1       21 0.73665226E-02 0.20620902E+03</pdfrwt>
<pdfrwt beam="2">  1       21 0.20192854E+00 0.20620902E+03</pdfrwt>
<totfact> 0.17885679E+04</totfact>
</mgrwt>
</event>
<event>
 4    1  0.4043938E+000  0.2972849E+03  0.7546771E-02  0.1086606E+00
         21   -1    0    0  501  502  0.00000000000E+00  0.00000000000E+00  0.72459757327E+02  0.72459757327E+02  0.00000000000E+00 0. -1.
         21   -1    0    0  502  503 -0.00000000000E+00 -0.00000000000E+00 -0.18656009332E+04  0.18656009332E+04  0.00000000000E+00 0.  1.
          6    1    1    2  501    0  0.14922242712E+03 -0.19021558050E+03 -0.32638665285E+03  0.44148221593E+03  0.17300000000E+03 0. -1.
         -6    1    1    2    0  503 -0.14922242712E+03  0.19021558050E+03 -0.14667545230E+04  0.14965784746E+04  0.17300000000E+03 0.  1.
<mgrwt>
<rscale>  2 0.29728488E+03</rscale>
<asrwt>0</asrwt>
<pdfrwt beam="1">  1       21 0.11147655E-01 0.29728488E+03</pdfrwt>
<pdfrwt beam="2">  1       21 0.28701552E+00 0.29728488E+03</pdfrwt>
<totfact> 0.24525303E+03</totfact>
</mgrwt>
</event>
<event>
 4    1  0.4043938E+000  0.1730062E+03  0.7546771E-02  0.1174749E+00
         21   -1    0    0  503  502  0.00000000000E+00  0.00000000000E+00  0.11931678461E+03  0.11931678461E+03  0.00000000000E+00 0. -1.
         21   -1    0    0  501  503 -0.00000000000E+00 -0.00000000000E+00 -0.67515968483E+03  0.67515968483E+03  0.00000000000E+00 0. -1.
          6    1    1    2  501    0  0.95190279923E+00  0.11066093067E+01 -0.59283188708E+03  0.61756034283E+03  0.17300000000E+03 0. -1.
         -6    1    1    2    0  502 -0.95190279923E+00 -0.11066093067E+01  0.36988986855E+02  0.17691612660E+03  0.17300000000E+03 0. -1.
<mgrwt>
<rscale>  2 0.17300616E+03</rscale>
<asrwt>0</asrwt>
<pdfrwt beam="1">  1       21 0.18356428E-01 0.17300616E+03</pdfrwt>
<pdfrwt beam="2">  1       21 0.10387072E+00 0.17300616E+03</pdfrwt>
<totfact> 0.20553700E+04</totfact>
</mgrwt>
</event>
<event>
 4    1  0.4043938E+000  0.2425285E+03  0.7546771E-02  0.1118120E+00
         21   -1    0    0  503  502  0.00000000000E+00  0.00000000000E+00  0.38421034292E+02  0.38421034292E+02  0.00000000000E+00 0. -1.
         21   -1    0    0  501  503 -0.00000000000E+00 -0.00000000000E+00 -0.16627292900E+04  0.16627292900E+04  0.00000000000E+00 0. -1.
          6    1    1    2  501    0  0.85680581367E+02 -0.14679887753E+03 -0.10516244311E+04  0.10792284358E+04  0.17300000000E+03 0. -1.
         -6    1    1    2    0  502 -0.85680581367E+02  0.14679887753E+03 -0.57268382461E+03  0.62192188854E+03  0.17300000000E+03 0. -1.
<mgrwt>
<rscale>  2 0.24252850E+03</rscale>
<asrwt>0</asrwt>
<pdfrwt beam="1">  1       21 0.59109295E-02 0.24252850E+03</pdfrwt>
<pdfrwt beam="2">  1       21 0.25580446E+00 0.24252850E+03</pdfrwt>
<totfact> 0.11914116E+04</totfact>
</mgrwt>
</event>
<event>
 4    1  0.4043938E+000  0.2232045E+03  0.7546771E-02  0.1131516E+00
         21   -1    0    0  503  502  0.00000000000E+00  0.00000000000E+00  0.19249159925E+03  0.19249159925E+03  0.00000000000E+00 0.  1.
         21   -1    0    0  501  503 -0.00000000000E+00 -0.00000000000E+00 -0.27703133965E+03  0.27703133965E+03  0.00000000000E+00 0. -1.
          6    1    1    2  501    0 -0.13711634203E+03  0.33020438465E+02 -0.10246484906E+03  0.24559984915E+03  0.17300000000E+03 0.  1.
         -6    1    1    2    0  502  0.13711634203E+03 -0.33020438465E+02  0.17925108657E+02  0.22392308976E+03  0.17300000000E+03 0. -1.
<mgrwt>
<rscale>  2 0.22320448E+03</rscale>
<asrwt>0</asrwt>
<pdfrwt beam="1">  1       21 0.29614092E-01 0.22320448E+03</pdfrwt>
<pdfrwt beam="2">  1       21 0.42620206E-01 0.22320448E+03</pdfrwt>
<totfact> 0.57075524E+04</totfact>
</mgrwt>
</event>
<event>
 4    1  0.4043938E+000  0.2301992E+03  0.7546771E-02  0.1126500E+00
         21   -1    0    0  501  502  0.00000000000E+00  0.00000000000E+00  0.86688835630E+03  0.86688835630E+03  0.00000000000E+00 0. -1.
         21   -1    0    0  502  503 -0.00000000000E+00 -0.00000000000E+00 -0.61378756904E+02  0.61378756904E+02  0.00000000000E+00 0. -1.
          6    1    1    2  501    0 -0.13626781574E+03  0.67035495006E+02  0.43238513359E+03  0.48984546436E+03  0.17300000000E+03 0. -1.
         -6    1    1    2    0  503  0.13626781574E+03 -0.67035495006E+02  0.37312446581E+03  0.43842164885E+03  0.17300000000E+03 0. -1.
<mgrwt>
<rscale>  2 0.23019921E+03</rscale>
<asrwt>0</asrwt>
<pdfrwt beam="1">  1       21 0.13336743E+00 0.23019921E+03</pdfrwt>
<pdfrwt beam="2">  1       21 0.94428863E-02 0.23019921E+03</pdfrwt>
<totfact> 0.35621769E+04</totfact>
</mgrwt>
</event>
<event>
 4    1  0.4043938E+000  0.1821549E+03  0.7546771E-02  0.1165734E+00
         21   -1    0    0  501  502  0.00000000000E+00  0.00000000000E+00  0.55225250473E+03  0.55225250473E+03  0.00000000000E+00 0. -1.
         21   -1    0    0  502  503 -0.00000000000E+00 -0.00000000000E+00 -0.53286389197E+03  0.53286389197E+03  0.00000000000E+00 0. -1.
          6    1    1    2  501    0  0.38405390641E+02  0.42147586988E+02  0.52075047650E+03  0.55168963366E+03  0.17300000000E+03 0. -1.
         -6    1    1    2    0  503 -0.38405390641E+02 -0.42147586988E+02 -0.50136186373E+03  0.53342676303E+03  0.17300000000E+03 0. -1.
<mgrwt>
<rscale>  2 0.18215486E+03</rscale>
<asrwt>0</asrwt>
<pdfrwt beam="1">  1       21 0.84961924E-01 0.18215486E+03</pdfrwt>
<pdfrwt beam="2">  1       21 0.81979061E-01 0.18215486E+03</pdfrwt>
<totfact> 0.15766849E+03</totfact>
</mgrwt>
</event>
<event>
 4    1  0.4043938E+000  0.2110700E+03  0.7546771E-02  0.1140721E+00
         21   -1    0    0  503  502  0.00000000000E+00  0.00000000000E+00  0.25593150891E+03  0.25593150891E+03  0.00000000000E+00 0. -1.
         21   -1    0    0  501  503 -0.00000000000E+00 -0.00000000000E+00 -0.34134673255E+03  0.34134673255E+03  0.00000000000E+00 0. -1.
          6    1    1    2  501    0  0.93977443017E+02  0.76090715696E+02 -0.25176415068E+03  0.32853575814E+03  0.17300000000E+03 0. -1.
         -6    1    1    2    0  502 -0.93977443017E+02 -0.76090715696E+02  0.16634892704E+03  0.26874248331E+03  0.17300000000E+03 0. -1.
<mgrwt>
<rscale>  2 0.21107003E+03</rscale>
<asrwt>0</asrwt>
<pdfrwt beam="1">  1       21 0.39374079E-01 0.21107003E+03</pdfrwt>
<pdfrwt beam="2">  1       21 0.52514882E-01 0.21107003E+03</pdfrwt>
<totfact> 0.21152188E+04</totfact>
</mgrwt>
</event>
<event>
 4    1  0.4043938E+000  0.1998496E+03  0.7546771E-02  0.1149866E+00
         21   -1    0    0  503  502  0.00000000000E+00  0.00000000000E+00  0.26628033808E+03  0.26628033808E+03  0.00000000000E+00 0. -1.
         21   -1    0    0  501  503 -0.00000000000E+00 -0.00000000000E+00 -0.20061217392E+03  0.20061217392E+03  0.00000000000E+00 0.  1.
          6    1    1    2  501    0  0.91980615991E+02  0.39375360148E+02  0.15009983037E+03  0.24993961627E+03  0.17300000000E+03 0. -1.
         -6    1    1    2    0  502 -0.91980615991E+02 -0.39375360148E+02 -0.84431666214E+02  0.21695289573E+03  0.17300000000E+03 0.  1.
<mgrwt>
<rscale>  2 0.19984958E+03</rscale>
<asrwt>0</asrwt>
<pdfrwt beam="1">  1       21 0.40966206E-01 0.19984958E+03</pdfrwt>
<pdfrwt beam="2">  1       21 0.30863412E-01 0.19984958E+03</pdfrwt>
<totfact> 0.57669841E+04</totfact>
</mgrwt>
</event>
<event>
 4    1  0.4043938E+000  0.2021692E+03  0.7546771E-02  0.1147922E+00
         21   -1    0    0  501  502  0.00000000000E+00  0.00000000000E+00  0.21793884037E+03  0.21793884037E+03  0.00000000000E+00 0. -1.
         21   -1    0    0  502  503 -0.00000000000E+00 -0.00000000000E+00 -0.23753218891E+03  0.23753218891E+03  0.00000000000E+00 0. -1.
          6    1    1    2  501    0  0.18527275764E+02  0.10295693162E+03  0.94679634808E+02  0.22324117668E+03  0.17300000000E+03 0. -1.
         -6    1    1    2    0  503 -0.18527275764E+02 -0.10295693162E+03 -0.11427298334E+03  0.23222985260E+03  0.17300000000E+03 0. -1.
<mgrwt>
<rscale>  2 0.20216921E+03</rscale>
<asrwt>0</asrwt>
<pdfrwt beam="1">  1       21 0.33529052E-01 0.20216921E+03</pdfrwt>
<pdfrwt beam="2">  1       21 0.36543414E-01 0.20216921E+03</pdfrwt>
<totfact> 0.61601203E+04</totfact>
</mgrwt>
</event>
<event>
 4    1  0.4043938E+000  0.1938050E+03  0.7546771E-02  0.1155074E+00
         21   -1    0    0  503  502  0.00000000000E+00  0.00000000000E+00  0.23019332139E+03  0.23019332139E+03  0.00000000000E+00 0.  1.
         21   -1    0    0  501  503 -0.00000000000E+00 -0.00000000000E+00 -0.18295414526E+03  0.18295414526E+03  0.00000000000E+00 0.  1.
          6    1    1    2  501    0 -0.55879889486E+02 -0.67147578252E+02 -0.44312693838E+02  0.19880637351E+03  0.17300000000E+03 0.  1.
         -6    1    1    2    0  502  0.55879889486E+02  0.67147578252E+02  0.91551869966E+02  0.21434109314E+03  0.17300000000E+03 0.  1.
<mgrwt>
<rscale>  2 0.19380495E+03</rscale>
<asrwt>0</asrwt>
<pdfrwt beam="1">  1       21 0.35414357E-01 0.19380495E+03</pdfrwt>
<pdfrwt beam="2">  1       21 0.28146792E-01 0.19380495E+03</pdfrwt>
<totfact> 0.92681393E+04</totfact>
</mgrwt>
</event>
<event>
 4    1  0.4043938E+000  0.1791922E+03  0.7546771E-02  0.1168587E+00
         21   -1    0    0  503  502  0.00000000000E+00  0.00000000000E+00  0.30779703328E+02  0.30779703328E+02  0.00000000000E+00 0. -1.
         21   -1    0    0  501  503 -0.00000000000E+00 -0.00000000000E+00 -0.12854845292E+04  0.12854845292E+04  0.00000000000E+00 0. -1.
          6    1    1    2  501    0 -0.41854899014E+02  0.20712308708E+02 -0.91306509503E+03  0.93048250927E+03  0.17300000000E+03 0.  1.
         -6    1    1    2    0  502  0.41854899014E+02 -0.20712308708E+02 -0.34163973081E+03  0.38578172322E+03  0.17300000000E+03 0.  1.
<mgrwt>
<rscale>  2 0.17919217E+03</rscale>
<asrwt>0</asrwt>
<pdfrwt beam="1">  1       21 0.47353383E-02 0.17919217E+03</pdfrwt>
<pdfrwt beam="2">  1       21 0.19776688E+00 0.17919217E+03</pdfrwt>
<totfact> 0.41309382E+04</totfact>
</mgrwt>
</event>
<event>
 4    1  0.4043938E+000  0.2095102E+03  0.7546771E-02  0.1141954E+00
         21   -1    0    0  503  502  0.00000000000E+00  0.00000000000E+00  0.10218971673E+03  0.10218971673E+03  0.00000000000E+00 0.  1.
         21   -1    0    0  501  503 -0.00000000000E+00 -0.00000000000E+00 -0.52776235020E+03  0.52776235020E+03  0.00000000000E+00 0. -1.
          6    1    1    2  501    0  0.45513149194E+02  0.10905998186E+03 -0.34866909915E+03  0.40677348376E+03  0.17300000000E+03 0. -1.
         -6    1    1    2    0  502 -0.45513149194E+02 -0.10905998186E+03 -0.76903534318E+02  0.22317858316E+03  0.17300000000E+03 0.  1.
<mgrwt>
<rscale>  2 0.20951021E+03</rscale>
<asrwt>0</asrwt>
<pdfrwt beam="1">  1       21 0.15721495E-01 0.20951021E+03</pdfrwt>
<pdfrwt beam="2">  1       21 0.81194210E-01 0.20951021E+03</pdfrwt>
<totfact> 0.47484678E+04</totfact>
</mgrwt>
</event>
<event>
 4    1  0.4043938E+000  0.1889003E+03  0.7546771E-02  0.1159457E+00
         21   -1    0    0  501  502  0.00000000000E+00  0.00000000000E+00  0.32566183881E+03  0.32566183881E+03  0.00000000000E+00 0. -1.
         21   -1    0    0  502  503 -0.00000000000E+00 -0.00000000000E+00 -0.11037320196E+03  0.11037320196E+03  0.00000000000E+00 0. -1.
          6    1    1    2  501    0 -0.71768688734E+02  0.24567484610E+02  0.12622341594E+03  0.22719079364E+03  0.17300000000E+03 0. -1.
         -6    1    1    2    0  503  0.71768688734E+02 -0.24567484610E+02  0.89065220914E+02  0.20884424713E+03  0.17300000000E+03 0. -1.
<mgrwt>
<rscale>  2 0.18890025E+03</rscale>
<asrwt>0</asrwt>
<pdfrwt beam="1">  1       21 0.50101821E-01 0.18890025E+03</pdfrwt>
<pdfrwt beam="2">  1       21 0.16980493E-01 0.18890025E+03</pdfrwt>
<totfact> 0.11878107E+05</totfact>
</mgrwt>
</event>
<event>
 4    1  0.4043938E+000  0.2315182E+03  0.7546771E-02  0.1125576E+00
         21   -1    0    0  503  502  0.00000000000E+00  0.00000000000E+00  0.21144901214E+03  0.21144901214E+03  0.00000000000E+00 0. -1.
         21   -1    0    0  501  503 -0.00000000000E+00 -0.00000000000E+00 -0.31548427041E+03  0.31548427041E+03  0.00000000000E+00 0. -1.
          6    1    1    2  501    0 -0.10413078119E+03 -0.11326268098E+03  0.64772246091E+02  0.24040819112E+03  0.17300000000E+03 0. -1.
         -6    1    1    2    0  502  0.10413078119E+03  0.11326268098E+03 -0.16880750435E+03  0.28652509143E+03  0.17300000000E+03 0. -1.
<mgrwt>
<rscale>  2 0.23151815E+03</rscale>
<asrwt>0</asrwt>
<pdfrwt beam="1">  1       21 0.32530617E-01 0.23151815E+03</pdfrwt>
<pdfrwt beam="2">  1       21 0.48536042E-01 0.23151815E+03</pdfrwt>
<totfact> 0.36150907E+04</totfact>
</mgrwt>
</event>
<event>
 4    1  0.4043938E+000  0.1999357E+03  0.7546771E-02  0.1149793E+00
         21   -1    0    0  503  502  0.00000000000E+00  0.00000000000E+00  0.12776803669E+03  0.12776803669E+03  0.00000000000E+00 0.  1.
         21   -1    0    0  501  503 -0.00000000000E+00 -0.00000000000E+00 -0.48885064365E+03  0.48885064365E+03  0.00000000000E+00 0.  1.
          6    1    1    2  501    0  0.41357756878E+02 -0.91295204072E+02  0.44434504588E+01  0.19998505592E+03  0.17300000000E+03 0.  1.
         -6    1    1    2    0  502 -0.41357756878E+02  0.91295204072E+02 -0.36552605742E+03  0.41663362442E+03  0.17300000000E+03 0.  1.
<mgrwt>
<rscale>  2 0.19993569E+03</rscale>
<asrwt>0</asrwt>
<pdfrwt beam="1">  1       21 0.19656621E-01 0.19993569E+03</pdfrwt>
<pdfrwt beam="2">  1       21 0.75207792E-01 0.19993569E+03</pdfrwt>
<totfact> 0.37526718E+04</totfact>
</mgrwt>
</event>
<event>
 4    1  0.4043938E+000  0.3319347E+03  0.7546771E-02  0.1070284E+00
         21   -1    0    0  501  502  0.00000000000E+00  0.00000000000E+00  0.33800301854E+03  0.33800301854E+03  0.00000000000E+00 0. -1.
         21   -1    0    0  502  503 -0.00000000000E+00 -0.00000000000E+00 -0.32762016766E+03  0.32762016766E+03  0.00000000000E+00 0. -1.
          6    1    1    2  501    0  0.58604732832E+02  0.27715903062E+03  0.28773154554E+02  0.33317943722E+03  0.17300000000E+03 0. -1.
         -6    1    1    2    0  503 -0.58604732832E+02 -0.27715903062E+03 -0.18390303673E+02  0.33244374897E+03  0.17300000000E+03 0. -1.
<mgrwt>
<rscale>  2 0.33193470E+03</rscale>
<asrwt>0</asrwt>
<pdfrwt beam="1">  1       21 0.52000464E-01 0.33193470E+03</pdfrwt>
<pdfrwt beam="2">  1       21 0.50403103E-01 0.33193470E+03</pdfrwt>
<totfact> 0.12249925E+04</totfact>
</mgrwt>
</event>
<event>
 4    1  0.4043938E+000  0.2154781E+03  0.7546771E-02  0.1137300E+00
         21   -1    0    0  503  502  0.00000000000E+00  0.00000000000E+00  0.14191795071E+03  0.14191795071E+03  0.00000000000E+00 0. -1.
         21   -1    0    0  501  503 -0.00000000000E+00 -0.00000000000E+00 -0.33987111102E+03  0.33987111102E+03  0.00000000000E+00 0.  1.
          6    1    1    2  501    0  0.97465593198E+02 -0.83679644006E+02 -0.14555099797E+03  0.26003060914E+03  0.17300000000E+03 0.  1.
         -6    1    1    2    0  502 -0.97465593198E+02  0.83679644006E+02 -0.52402162335E+02  0.22175845259E+03  0.17300000000E+03 0. -1.
<mgrwt>
<rscale>  2 0.21547813E+03</rscale>
<asrwt>0</asrwt>
<pdfrwt beam="1">  1       21 0.21833531E-01 0.21547813E+03</pdfrwt>
<pdfrwt beam="2">  1       21 0.52287864E-01 0.21547813E+03</pdfrwt>
<totfact> 0.67259875E+04</totfact>
</mgrwt>
</event>
<event>
 4    1  0.4043938E+000  0.2640909E+03  0.7546771E-02  0.1104710E+00
         21   -1    0    0  501  502  0.00000000000E+00  0.00000000000E+00  0.68949135554E+02  0.68949135554E+02  0.00000000000E+00 0. -1.
         21   -1    0    0  502  503 -0.00000000000E+00 -0.00000000000E+00 -0.27821906145E+04  0.27821906145E+04  0.00000000000E+00 0. -1.
          6    1    1    2  501    0 -0.19928860850E+03 -0.99529926081E+01 -0.21935246634E+03  0.34330673753E+03  0.17300000000E+03 0. -1.
         -6    1    1    2    0  503  0.19928860850E+03  0.99529926081E+01 -0.24938890126E+04  0.25078330125E+04  0.17300000000E+03 0. -1.
<mgrwt>
<rscale>  2 0.26409092E+03</rscale>
<asrwt>0</asrwt>
<pdfrwt beam="1">  1       21 0.10607560E-01 0.26409092E+03</pdfrwt>
<pdfrwt beam="2">  1       21 0.42802928E+00 0.26409092E+03</pdfrwt>
<totfact> 0.38227534E+02</totfact>
</mgrwt>
</event>
<event>
 4    1  0.4043938E+000  0.1925994E+03  0.7546771E-02  0.1156138E+00
         21   -1    0    0  501  502  0.00000000000E+00  0.00000000000E+00  0.52079130803E+02  0.52079130803E+02  0.00000000000E+00 0.  1.
         21   -1    0    0  502  503 -0.00000000000E+00 -0.00000000000E+00 -0.82413635846E+03  0.82413635846E+03  0.00000000000E+00 0.  1.
          6    1    1    2  501    0  0.71183559953E+01 -0.84349550320E+02 -0.54743728136E+03  0.58032929846E+03  0.17300000000E+03 0.  1.
         -6    1    1    2    0  503 -0.71183559953E+01  0.84349550320E+02 -0.22461994629E+03  0.29588619080E+03  0.17300000000E+03 0.  1.
<mgrwt>
<rscale>  2 0.19259937E+03</rscale>
<asrwt>0</asrwt>
<pdfrwt beam="1">  1       21 0.80121742E-02 0.19259937E+03</pdfrwt>
<pdfrwt beam="2">  1       21 0.12679021E+00 0.19259937E+03</pdfrwt>
<totfact> 0.55097870E+04</totfact>
</mgrwt>
</event>
<event>
 4    1  0.4043938E+000  0.1761265E+03  0.7546771E-02  0.1171605E+00
         21   -1    0    0  503  502  0.00000000000E+00  0.00000000000E+00  0.12260944982E+03  0.12260944982E+03  0.00000000000E+00 0. -1.
         21   -1    0    0  501  503 -0.00000000000E+00 -0.00000000000E+00 -0.26558407889E+03  0.26558407889E+03  0.00000000000E+00 0. -1.
          6    1    1    2  501    0 -0.32462597516E+02 -0.61424678774E+01 -0.11373251881E+03  0.20965599439E+03  0.17300000000E+03 0. -1.
         -6    1    1    2    0  502  0.32462597516E+02  0.61424678774E+01 -0.29242110257E+02  0.17853753432E+03  0.17300000000E+03 0. -1.
<mgrwt>
<rscale>  2 0.17612652E+03</rscale>
<asrwt>0</asrwt>
<pdfrwt beam="1">  1       21 0.18862992E-01 0.17612652E+03</pdfrwt>
<pdfrwt beam="2">  1       21 0.40859089E-01 0.17612652E+03</pdfrwt>
<totfact> 0.14933318E+05</totfact>
</mgrwt>
</event>
<event>
 4    1  0.4043938E+000  0.2169862E+03  0.7546771E-02  0.1136150E+00
         21   -1    0    0  501  502  0.00000000000E+00  0.00000000000E+00  0.22259829623E+03  0.22259829623E+03  0.00000000000E+00 0. -1.
         21   -1    0    0  502  503 -0.00000000000E+00 -0.00000000000E+00 -0.37480100251E+03  0.37480100251E+03  0.00000000000E+00 0.  1.
          6    1    1    2  501    0  0.81675607488E+02  0.10238696362E+03  0.12105379553E+03  0.24846934739E+03  0.17300000000E+03 0. -1.
         -6    1    1    2    0  503 -0.81675607488E+02 -0.10238696362E+03 -0.27325650180E+03  0.34892995136E+03  0.17300000000E+03 0.  1.
<mgrwt>
<rscale>  2 0.21698616E+03</rscale>
<asrwt>0</asrwt>
<pdfrwt beam="1">  1       21 0.34245892E-01 0.21698616E+03</pdfrwt>
<pdfrwt beam="2">  1       21 0.57661692E-01 0.21698616E+03</pdfrwt>
<totfact> 0.22861617E+04</totfact>
</mgrwt>
</event>
<event>
 4    1  0.4043938E+000  0.1884544E+03  0.7546771E-02  0.1159863E+00
         21   -1    0    0  503  502  0.00000000000E+00  0.00000000000E+00  0.15008602659E+03  0.15008602659E+03  0.00000000000E+00 0.  1.
         21   -1    0    0  501  503 -0.00000000000E+00 -0.00000000000E+00 -0.24922978354E+03  0.24922978354E+03  0.00000000000E+00 0.  1.
          6    1    1    2  501    0 -0.37394439560E+02 -0.64712647917E+02 -0.94461242933E+02  0.21080321944E+03  0.17300000000E+03 0.  1.
         -6    1    1    2    0  502  0.37394439560E+02  0.64712647917E+02 -0.46825140216E+01  0.18851259069E+03  0.17300000000E+03 0.  1.
<mgrwt>
<rscale>  2 0.18845443E+03</rscale>
<asrwt>0</asrwt>
<pdfrwt beam="1">  1       21 0.23090158E-01 0.18845443E+03</pdfrwt>
<pdfrwt beam="2">  1       21 0.38343044E-01 0.18845443E+03</pdfrwt>
<totfact> 0.11573126E+05</totfact>
</mgrwt>
</event>
<event>
 4    1  0.4043938E+000  0.1991343E+03  0.7546771E-02  0.1150471E+00
         21   -1    0    0  501  502  0.00000000000E+00  0.00000000000E+00  0.22804217413E+03  0.22804217413E+03  0.00000000000E+00 0.  1.
         21   -1    0    0  502  503 -0.00000000000E+00 -0.00000000000E+00 -0.94975979435E+03  0.94975979435E+03  0.00000000000E+00 0. -1.
          6    1    1    2  501    0  0.87897006089E+02  0.44716614165E+02  0.17140821250E+03  0.26274557004E+03  0.17300000000E+03 0.  1.
         -6    1    1    2    0  503 -0.87897006089E+02 -0.44716614165E+02 -0.89312583272E+03  0.91505639844E+03  0.17300000000E+03 0. -1.
<mgrwt>
<rscale>  2 0.19913427E+03</rscale>
<asrwt>0</asrwt>
<pdfrwt beam="1">  1       21 0.35083411E-01 0.19913427E+03</pdfrwt>
<pdfrwt beam="2">  1       21 0.14611689E+00 0.19913427E+03</pdfrwt>
<totfact> 0.24928547E+03</totfact>
</mgrwt>
</event>
<event>
 4    1  0.4043938E+000  0.2922025E+03  0.7546771E-02  0.1089205E+00
         21   -1    0    0  501  502  0.00000000000E+00  0.00000000000E+00  0.68963931718E+03  0.68963931718E+03  0.00000000000E+00 0.  1.
         21   -1    0    0  502  503 -0.00000000000E+00 -0.00000000000E+00 -0.12488072297E+03  0.12488072297E+03  0.00000000000E+00 0. -1.
          6    1    1    2  501    0 -0.23526730707E+03  0.10129394872E+02  0.32013916510E+03  0.43344134026E+03  0.17300000000E+03 0. -1.
         -6    1    1    2    0  503  0.23526730707E+03 -0.10129394872E+02  0.24461942911E+03  0.38107869990E+03  0.17300000000E+03 0. -1.
<mgrwt>
<rscale>  2 0.29220252E+03</rscale>
<asrwt>0</asrwt>
<pdfrwt beam="1">  1       21 0.10609835E+00 0.29220252E+03</pdfrwt>
<pdfrwt beam="2">  1       21 0.19212419E-01 0.29220252E+03</pdfrwt>
<totfact> 0.16802363E+04</totfact>
</mgrwt>
</event>
<event>
 4    1  0.4043938E+000  0.2723470E+03  0.7546771E-02  0.1099944E+00
         21   -1    0    0  503  502  0.00000000000E+00  0.00000000000E+00  0.89140138510E+02  0.89140138510E+02  0.00000000000E+00 0.  1.
         21   -1    0    0  501  503 -0.00000000000E+00 -0.00000000000E+00 -0.90338325750E+03  0.90338325750E+03  0.00000000000E+00 0.  1.
          6    1    1    2  501    0  0.18981041933E+03 -0.90641706230E+02 -0.54652992712E+03  0.61062908171E+03  0.17300000000E+03 0.  1.
         -6    1    1    2    0  502 -0.18981041933E+03  0.90641706230E+02 -0.26771319187E+03  0.38189431430E+03  0.17300000000E+03 0.  1.
<mgrwt>
<rscale>  2 0.27234705E+03</rscale>
<asrwt>0</asrwt>
<pdfrwt beam="1">  1       21 0.13713867E-01 0.27234705E+03</pdfrwt>
<pdfrwt beam="2">  1       21 0.13898205E+00 0.27234705E+03</pdfrwt>
<totfact> 0.16053664E+04</totfact>
</mgrwt>
</event>
<event>
 4    1  0.4043938E+000  0.1731809E+03  0.7546771E-02  0.1174571E+00
         21   -1    0    0  503  502  0.00000000000E+00  0.00000000000E+00  0.41311306526E+03  0.41311306526E+03  0.00000000000E+00 0. -1.
         21   -1    0    0  501  503 -0.00000000000E+00 -0.00000000000E+00 -0.73435581829E+02  0.73435581829E+02  0.00000000000E+00 0. -1.
          6    1    1    2  501    0  0.78458945597E+01 -0.10346084639E+01  0.14387445180E+03  0.22514769898E+03  0.17300000000E+03 0. -1.
         -6    1    1    2    0  502 -0.78458945597E+01  0.10346084639E+01  0.19580303164E+03  0.26140094811E+03  0.17300000000E+03 0. -1.
<mgrwt>
<rscale>  2 0.17318091E+03</rscale>
<asrwt>0</asrwt>
<pdfrwt beam="1">  1       21 0.63555855E-01 0.17318091E+03</pdfrwt>
<pdfrwt beam="2">  1       21 0.11297782E-01 0.17318091E+03</pdfrwt>
<totfact> 0.15053879E+05</totfact>
</mgrwt>
</event>
<event>
 4    1  0.4043938E+000  0.1880701E+03  0.7546771E-02  0.1160214E+00
         21   -1    0    0  501  502  0.00000000000E+00  0.00000000000E+00  0.21716651571E+02  0.21716651571E+02  0.00000000000E+00 0. -1.
         21   -1    0    0  502  503 -0.00000000000E+00 -0.00000000000E+00 -0.16301754465E+04  0.16301754465E+04  0.00000000000E+00 0.  1.
          6    1    1    2  501    0 -0.59363948814E+02  0.43786683848E+02 -0.77955298084E+03  0.80191845099E+03  0.17300000000E+03 0.  1.
         -6    1    1    2    0  503  0.59363948814E+02 -0.43786683848E+02 -0.82890581406E+03  0.84997364705E+03  0.17300000000E+03 0.  1.
<mgrwt>
<rscale>  2 0.18807007E+03</rscale>
<asrwt>0</asrwt>
<pdfrwt beam="1">  1       21 0.33410232E-02 0.18807007E+03</pdfrwt>
<pdfrwt beam="2">  1       21 0.25079623E+00 0.18807007E+03</pdfrwt>
<totfact> 0.34944357E+04</totfact>
</mgrwt>
</event>
<event>
 4    1  0.4043938E+000  0.2272508E+03  0.7546771E-02  0.1128590E+00
         21   -1    0    0  501  502  0.00000000000E+00  0.00000000000E+00  0.15710037943E+03  0.15710037943E+03  0.00000000000E+00 0. -1.
         21   -1    0    0  502  503 -0.00000000000E+00 -0.00000000000E+00 -0.33896747234E+03  0.33896747234E+03  0.00000000000E+00 0. -1.
          6    1    1    2  501    0  0.14431854444E+03  0.29766994621E+02 -0.47819201928E+02  0.23222745813E+03  0.17300000000E+03 0. -1.
         -6    1    1    2    0  503 -0.14431854444E+03 -0.29766994621E+02 -0.13404789099E+03  0.26384039364E+03  0.17300000000E+03 0. -1.
<mgrwt>
<rscale>  2 0.22725078E+03</rscale>
<asrwt>0</asrwt>
<pdfrwt beam="1">  1       21 0.24169290E-01 0.22725078E+03</pdfrwt>
<pdfrwt beam="2">  1       21 0.52148841E-01 0.22725078E+03</pdfrwt>
<totfact> 0.55486467E+04</totfact>
</mgrwt>
</event>
<event>
 4    1  0.4043938E+000  0.1883594E+03  0.7546771E-02  0.1159949E+00
         21   -1    0    0  501  502  0.00000000000E+00  0.00000000000E+00  0.36901720617E+03  0.36901720617E+03  0.00000000000E+00 0.  1.
         21   -1    0    0  502  503 -0.00000000000E+00 -0.00000000000E+00 -0.62366971197E+03  0.62366971197E+03  0.00000000000E+00 0.  1.
          6    1    1    2  501    0 -0.60677203482E+02  0.43226627897E+02  0.32915848677E+03  0.37924210446E+03  0.17300000000E+03 0.  1.
         -6    1    1    2    0  503  0.60677203482E+02 -0.43226627897E+02 -0.58381099257E+03  0.61344481368E+03  0.17300000000E+03 0.  1.
<mgrwt>
<rscale>  2 0.18835940E+03</rscale>
<asrwt>0</asrwt>
<pdfrwt beam="1">  1       21 0.56771878E-01 0.18835940E+03</pdfrwt>
<pdfrwt beam="2">  1       21 0.95949186E-01 0.18835940E+03</pdfrwt>
<totfact> 0.26493246E+03</totfact>
</mgrwt>
</event>
<event>
 4    1  0.4043938E+000  0.1873320E+03  0.7546771E-02  0.1160890E+00
         21   -1    0    0  503  502  0.00000000000E+00  0.00000000000E+00  0.18039829746E+03  0.18039829746E+03  0.00000000000E+00 0. -1.
         21   -1    0    0  501  503 -0.00000000000E+00 -0.00000000000E+00 -0.20898249873E+03  0.20898249873E+03  0.00000000000E+00 0. -1.
          6    1    1    2  501    0  0.69617483673E+01  0.71524837625E+02  0.36903042948E+02  0.19093219455E+03  0.17300000000E+03 0. -1.
         -6    1    1    2    0  502 -0.69617483673E+01 -0.71524837625E+02 -0.65487244212E+02  0.19844860164E+03  0.17300000000E+03 0. -1.
<mgrwt>
<rscale>  2 0.18733197E+03</rscale>
<asrwt>0</asrwt>
<pdfrwt beam="1">  1       21 0.27753584E-01 0.18733197E+03</pdfrwt>
<pdfrwt beam="2">  1       21 0.32151154E-01 0.18733197E+03</pdfrwt>
<totfact> 0.11554909E+05</totfact>
</mgrwt>
</event>
<event>
 4    1  0.4043938E+000  0.3885217E+03  0.7546771E-02  0.1047828E+00
         21   -1    0    0  503  502  0.00000000000E+00  0.00000000000E+00  0.87403420097E+03  0.87403420097E+03  0.00000000000E+00 0.  1.
         21   -1    0    0  501  503 -0.00000000000E+00 -0.00000000000E+00 -0.17576930381E+03  0.17576930381E+03  0.00000000000E+00 0. -1.
          6    1    1    2  501    0 -0.94692288272E+02 -0.33474396217E+03  0.41845069419E+03  0.57100799744E+03  0.17300000000E+03 0. -1.
         -6    1    1    2    0  502  0.94692288272E+02  0.33474396217E+03  0.27981420297E+03  0.47879550734E+03  0.17300000000E+03 0.  1.
<mgrwt>
<rscale>  2 0.38852175E+03</rscale>
<asrwt>0</asrwt>
<pdfrwt beam="1">  1       21 0.13446680E+00 0.38852175E+03</pdfrwt>
<pdfrwt beam="2">  1       21 0.27041432E-01 0.38852175E+03</pdfrwt>
<totfact> 0.46160034E+03</totfact>
</mgrwt>
</event>
<event>
 4    1  0.4043938E+000  0.1907774E+03  0.7546771E-02  0.1157762E+00
         21   -1    0    0  501  502  0.00000000000E+00  0.00000000000E+00  0.35447215620E+03  0.35447215620E+03  0.00000000000E+00 0.  1.
         21   -1    0    0  502  503 -0.00000000000E+00 -0.00000000000E+00 -0.23325735735E+03  0.23325735735E+03  0.00000000000E+00 0. -1.
          6    1    1    2  501    0  0.54003179572E+02 -0.59587505464E+02  0.28047909920E+03  0.33921164382E+03  0.17300000000E+03 0.  1.
         -6    1    1    2    0  503 -0.54003179572E+02  0.59587505464E+02 -0.15926430035E+03  0.24851786973E+03  0.17300000000E+03 0. -1.
<mgrwt>
<rscale>  2 0.19077739E+03</rscale>
<asrwt>0</asrwt>
<pdfrwt beam="1">  1       21 0.54534177E-01 0.19077739E+03</pdfrwt>
<pdfrwt beam="2">  1       21 0.35885748E-01 0.19077739E+03</pdfrwt>
<totfact> 0.23806295E+04</totfact>
</mgrwt>
</event>
<event>
 4    1  0.4043938E+000  0.2271095E+03  0.7546771E-02  0.1128691E+00
         21   -1    0    0  503  502  0.00000000000E+00  0.00000000000E+00  0.11618480146E+03  0.11618480146E+03  0.00000000000E+00 0. -1.
         21   -1    0    0  501  503 -0.00000000000E+00 -0.00000000000E+00 -0.52819504973E+03  0.52819504973E+03  0.00000000000E+00 0.  1.
          6    1    1    2  501    0 -0.87883718694E+02  0.11800930111E+03 -0.33468784988E+03  0.40446841659E+03  0.17300000000E+03 0.  1.
         -6    1    1    2    0  502  0.87883718694E+02 -0.11800930111E+03 -0.77322398387E+02  0.23991143460E+03  0.17300000000E+03 0. -1.
<mgrwt>
<rscale>  2 0.22710954E+03</rscale>
<asrwt>0</asrwt>
<pdfrwt beam="1">  1       21 0.17874585E-01 0.22710954E+03</pdfrwt>
<pdfrwt beam="2">  1       21 0.81260776E-01 0.22710954E+03</pdfrwt>
<totfact> 0.37095283E+04</totfact>
</mgrwt>
</event>
<event>
 4    1  0.4043938E+000  0.1933458E+03  0.7546771E-02  0.1155478E+00
         21   -1    0    0  501  502  0.00000000000E+00  0.00000000000E+00  0.42473474377E+02  0.42473474377E+02  0.00000000000E+00 0. -1.
         21   -1    0    0  502  503 -0.00000000000E+00 -0.00000000000E+00 -0.10817934567E+04  0.10817934567E+04  0.00000000000E+00 0.  1.
          6    1    1    2  501    0  0.86333759352E+02 -0.27759623755E+00 -0.27695968665E+03  0.33777102169E+03  0.17300000000E+03 0. -1.
         -6    1    1    2    0  503 -0.86333759352E+02  0.27759623755E+00 -0.76236029562E+03  0.78649590934E+03  0.17300000000E+03 0.  1.
<mgrwt>
<rscale>  2 0.19334579E+03</rscale>
<asrwt>0</asrwt>
<pdfrwt beam="1">  1       21 0.65343820E-02 0.19334579E+03</pdfrwt>
<pdfrwt beam="2">  1       21 0.16642973E+00 0.19334579E+03</pdfrwt>
<totfact> 0.38506056E+04</totfact>
</mgrwt>
</event>
<event>
 4    1  0.4043938E+000  0.1887028E+03  0.7546771E-02  0.1159637E+00
         21   -1    0    0  501  502  0.00000000000E+00  0.00000000000E+00  0.20048565743E+02  0.20048565743E+02  0.00000000000E+00 0.  1.
         21   -1    0    0  502  503 -0.00000000000E+00 -0.00000000000E+00 -0.18024041915E+04  0.18024041915E+04  0.00000000000E+00 0. -1.
          6    1    1    2  501    0 -0.59064378185E+02 -0.46809595497E+02 -0.78114698998E+03  0.80361642526E+03  0.17300000000E+03 0.  1.
         -6    1    1    2    0  503  0.59064378185E+02  0.46809595497E+02 -0.10012086357E+04  0.10188363319E+04  0.17300000000E+03 0. -1.
<mgrwt>
<rscale>  2 0.18870278E+03</rscale>
<asrwt>0</asrwt>
<pdfrwt beam="1">  1       21 0.30843943E-02 0.18870278E+03</pdfrwt>
<pdfrwt beam="2">  1       21 0.27729299E+00 0.18870278E+03</pdfrwt>
<totfact> 0.27978430E+04</totfact>
</mgrwt>
</event>
<event>
 4    1  0.4043938E+000  0.1761498E+03  0.7546771E-02  0.1171582E+00
         21   -1    0    0  501  502  0.00000000000E+00  0.00000000000E+00  0.33292163965E+02  0.33292163965E+02  0.00000000000E+00 0. -1.
         21   -1    0    0  502  503 -0.00000000000E+00 -0.00000000000E+00 -0.97625210944E+03  0.97625210944E+03  0.00000000000E+00 0. -1.
          6    1    1    2  501    0  0.32466868100E+02  0.67570843617E+01 -0.36402816630E+03  0.40440729664E+03  0.17300000000E+03 0.  1.
         -6    1    1    2    0  503 -0.32466868100E+02 -0.67570843617E+01 -0.57893177917E+03  0.60513697677E+03  0.17300000000E+03 0.  1.
<mgrwt>
<rscale>  2 0.17614981E+03</rscale>
<asrwt>0</asrwt>
<pdfrwt beam="1">  1       21 0.51218707E-02 0.17614981E+03</pdfrwt>
<pdfrwt beam="2">  1       21 0.15019265E+00 0.17614981E+03</pdfrwt>
<totfact> 0.77575351E+04</totfact>
</mgrwt>
</event>
<event>
 4    1  0.4043938E+000  0.2004249E+03  0.7546771E-02  0.1149381E+00
         21   -1    0    0  503  502  0.00000000000E+00  0.00000000000E+00  0.40727217243E+03  0.40727217243E+03  0.00000000000E+00 0. -1.
         21   -1    0    0  501  503 -0.00000000000E+00 -0.00000000000E+00 -0.11475624154E+03  0.11475624154E+03  0.00000000000E+00 0. -1.
          6    1    1    2  501    0  0.37912530780E+02 -0.93828520340E+02  0.48418760564E+02  0.20619051286E+03  0.17300000000E+03 0. -1.
         -6    1    1    2    0  502 -0.37912530780E+02  0.93828520340E+02  0.24409717032E+03  0.31583790111E+03  0.17300000000E+03 0. -1.
<mgrwt>
<rscale>  2 0.20042493E+03</rscale>
<asrwt>0</asrwt>
<pdfrwt beam="1">  1       21 0.62657257E-01 0.20042493E+03</pdfrwt>
<pdfrwt beam="2">  1       21 0.17654807E-01 0.20042493E+03</pdfrwt>
<totfact> 0.68434265E+04</totfact>
</mgrwt>
</event>
<event>
 4    1  0.4043938E+000  0.3164987E+03  0.7546771E-02  0.1077272E+00
         21   -1    0    0  501  502  0.00000000000E+00  0.00000000000E+00  0.37166157929E+03  0.37166157929E+03  0.00000000000E+00 0.  1.
         21   -1    0    0  502  503 -0.00000000000E+00 -0.00000000000E+00 -0.50513442190E+03  0.50513442190E+03  0.00000000000E+00 0. -1.
          6    1    1    2  501    0  0.16792233029E+03  0.20504767177E+03  0.23267128411E+03  0.39281978458E+03  0.17300000000E+03 0.  1.
         -6    1    1    2    0  503 -0.16792233029E+03 -0.20504767177E+03 -0.36614412673E+03  0.48397621661E+03  0.17300000000E+03 0. -1.
<mgrwt>
<rscale>  2 0.31649875E+03</rscale>
<asrwt>0</asrwt>
<pdfrwt beam="1">  1       21 0.57178705E-01 0.31649875E+03</pdfrwt>
<pdfrwt beam="2">  1       21 0.77712987E-01 0.31649875E+03</pdfrwt>
<totfact> 0.38963589E+03</totfact>
</mgrwt>
</event>
<event>
 4    1  0.4043938E+000  0.2678529E+03  0.7546771E-02  0.1102515E+00
         21   -1    0    0  501  502  0.00000000000E+00  0.00000000000E+00  0.13887463833E+04  0.13887463833E+04  0.00000000000E+00 0. -1.
         21   -1    0    0  502  503 -0.00000000000E+00 -0.00000000000E+00 -0.13400675232E+03  0.13400675232E+03  0.00000000000E+00 0.  1.
          6    1    1    2  501    0 -0.19675518606E+02  0.20354121854E+03  0.12242052877E+04  0.12531654880E+04  0.17300000000E+03 0. -1.
         -6    1    1    2    0  503  0.19675518606E+02 -0.20354121854E+03  0.30534343284E+02  0.26958764771E+03  0.17300000000E+03 0.  1.
<mgrwt>
<rscale>  2 0.26785286E+03</rscale>
<asrwt>0</asrwt>
<pdfrwt beam="1">  1       21 0.21365328E+00 0.26785286E+03</pdfrwt>
<pdfrwt beam="2">  1       21 0.20616424E-01 0.26785286E+03</pdfrwt>
<totfact> 0.22439056E+03</totfact>
</mgrwt>
</event>
<event>
 4    1  0.4043938E+000  0.3296867E+03  0.7546771E-02  0.1071276E+00
         21   -1    0    0  503  502  0.00000000000E+00  0.00000000000E+00  0.21584413665E+03  0.21584413665E+03  0.00000000000E+00 0.  1.
         21   -1    0    0  501  503 -0.00000000000E+00 -0.00000000000E+00 -0.50955298159E+03  0.50955298159E+03  0.00000000000E+00 0.  1.
          6    1    1    2  501    0  0.25779237347E+03  0.11093881287E+03 -0.10756343848E+03  0.34678988064E+03  0.17300000000E+03 0.  1.
         -6    1    1    2    0  502 -0.25779237347E+03 -0.11093881287E+03 -0.18614540646E+03  0.37860723760E+03  0.17300000000E+03 0.  1.
<mgrwt>
<rscale>  2 0.32968671E+03</rscale>
<asrwt>0</asrwt>
<pdfrwt beam="1">  1       21 0.33206791E-01 0.32968671E+03</pdfrwt>
<pdfrwt beam="2">  1       21 0.78392765E-01 0.32968671E+03</pdfrwt>
<totfact> 0.11705028E+04</totfact>
</mgrwt>
</event>
<event>
 4    1  0.4043938E+000  0.2209916E+03  0.7546771E-02  0.1133146E+00
         21   -1    0    0  503  502  0.00000000000E+00  0.00000000000E+00  0.64671317331E+03  0.64671317331E+03  0.00000000000E+00 0. -1.
         21   -1    0    0  501  503 -0.00000000000E+00 -0.00000000000E+00 -0.22314496405E+03  0.22314496405E+03  0.00000000000E+00 0. -1.
          6    1    1    2  501    0  0.11433035837E+03  0.76399203603E+02 -0.14197734141E+03  0.26266867843E+03  0.17300000000E+03 0. -1.
         -6    1    1    2    0  502 -0.11433035837E+03 -0.76399203603E+02  0.56554555067E+03  0.60718945893E+03  0.17300000000E+03 0. -1.
<mgrwt>
<rscale>  2 0.22099156E+03</rscale>
<asrwt>0</asrwt>
<pdfrwt beam="1">  1       21 0.99494334E-01 0.22099156E+03</pdfrwt>
<pdfrwt beam="2">  1       21 0.34329995E-01 0.22099156E+03</pdfrwt>
<totfact> 0.66551541E+03</totfact>
</mgrwt>
</event>
<event>
 4    1  0.4043938E+000  0.2293340E+03  0.7546771E-02  0.1127109E+00
         21   -1    0    0  503  502  0.00000000000E+00  0.00000000000E+00  0.65789201672E+02  0.65789201672E+02  0.00000000000E+00 0. -1.
         21   -1    0    0  501  503 -0.00000000000E+00 -0.00000000000E+00 -0.92892719840E+03  0.92892719840E+03  0.00000000000E+00 0. -1.
          6    1    1    2  501    0  0.91704410745E+02 -0.11939589992E+03 -0.61726521841E+03  0.65849102479E+03  0.17300000000E+03 0. -1.
         -6    1    1    2    0  502 -0.91704410745E+02  0.11939589992E+03 -0.24587277832E+03  0.33622537528E+03  0.17300000000E+03 0. -1.
<mgrwt>
<rscale>  2 0.22933399E+03</rscale>
<asrwt>0</asrwt>
<pdfrwt beam="1">  1       21 0.10121415E-01 0.22933399E+03</pdfrwt>
<pdfrwt beam="2">  1       21 0.14291188E+00 0.22933399E+03</pdfrwt>
<totfact> 0.26358296E+04</totfact>
</mgrwt>
</event>
<event>
 4    1  0.4043938E+000  0.1815292E+03  0.7546771E-02  0.1166331E+00
         21   -1    0    0  501  502  0.00000000000E+00  0.00000000000E+00  0.44012386624E+02  0.44012386624E+02  0.00000000000E+00 0.  1.
         21   -1    0    0  502  503 -0.00000000000E+00 -0.00000000000E+00 -0.13485289843E+04  0.13485289843E+04  0.00000000000E+00 0.  1.
          6    1    1    2  501    0  0.53631973624E+02 -0.12143947913E+02 -0.18789788225E+03  0.26126323549E+03  0.17300000000E+03 0.  1.
         -6    1    1    2    0  503 -0.53631973624E+02  0.12143947913E+02 -0.11166187155E+04  0.11312781355E+04  0.17300000000E+03 0.  1.
<mgrwt>
<rscale>  2 0.18152924E+03</rscale>
<asrwt>0</asrwt>
<pdfrwt beam="1">  1       21 0.67711367E-02 0.18152924E+03</pdfrwt>
<pdfrwt beam="2">  1       21 0.20746599E+00 0.18152924E+03</pdfrwt>
<totfact> 0.19453017E+04</totfact>
</mgrwt>
</event>
<event>
 4    1  0.4043938E+000  0.2238832E+03  0.7546771E-02  0.1131021E+00
         21   -1    0    0  501  502  0.00000000000E+00  0.00000000000E+00  0.97780095984E+03  0.97780095984E+03  0.00000000000E+00 0. -1.
         21   -1    0    0  502  503 -0.00000000000E+00 -0.00000000000E+00 -0.17806252371E+03  0.17806252371E+03  0.00000000000E+00 0.  1.
          6    1    1    2  501    0 -0.14145787960E+03  0.13578469404E+02  0.88756767417E+03  0.91536882335E+03  0.17300000000E+03 0. -1.
         -6    1    1    2    0  503  0.14145787960E+03 -0.13578469404E+02 -0.87829238036E+02  0.24049466020E+03  0.17300000000E+03 0.  1.
<mgrwt>
<rscale>  2 0.22388324E+03</rscale>
<asrwt>0</asrwt>
<pdfrwt beam="1">  1       21 0.15043091E+00 0.22388324E+03</pdfrwt>
<pdfrwt beam="2">  1       21 0.27394235E-01 0.22388324E+03</pdfrwt>
<totfact> 0.36726050E+03</totfact>
</mgrwt>
</event>
<event>
 4    1  0.4043938E+000  0.2319613E+03  0.7546771E-02  0.1125267E+00
         21   -1    0    0  503  502  0.00000000000E+00  0.00000000000E+00  0.29477782888E+04  0.29477782888E+04  0.00000000000E+00 0. -1.
         21   -1    0    0  501  503 -0.00000000000E+00 -0.00000000000E+00 -0.65282849813E+02  0.65282849813E+02  0.00000000000E+00 0.  1.
          6    1    1    2  501    0 -0.15051903129E+03  0.34943476957E+02  0.16255899795E+03  0.28325157224E+03  0.17300000000E+03 0.  1.
         -6    1    1    2    0  502  0.15051903129E+03 -0.34943476957E+02  0.27199364410E+04  0.27298095663E+04  0.17300000000E+03 0. -1.
<mgrwt>
<rscale>  2 0.23196126E+03</rscale>
<asrwt>0</asrwt>
<pdfrwt beam="1">  1       21 0.45350425E+00 0.23196126E+03</pdfrwt>
<pdfrwt beam="2">  1       21 0.10043518E-01 0.23196126E+03</pdfrwt>
<totfact> 0.29826990E+02</totfact>
</mgrwt>
</event>
<event>
 4    1  0.4043938E+000  0.1890373E+03  0.7546771E-02  0.1159332E+00
         21   -1    0    0  503  502  0.00000000000E+00  0.00000000000E+00  0.63478236145E+03  0.63478236145E+03  0.00000000000E+00 0. -1.
         21   -1    0    0  501  503 -0.00000000000E+00 -0.00000000000E+00 -0.76314762200E+02  0.76314762200E+02  0.00000000000E+00 0. -1.
          6    1    1    2  501    0 -0.69809229445E+02 -0.30541335776E+02  0.97128067598E+02  0.21252991136E+03  0.17300000000E+03 0. -1.
         -6    1    1    2    0  502  0.69809229445E+02  0.30541335776E+02  0.46133953165E+03  0.49856721229E+03  0.17300000000E+03 0. -1.
<mgrwt>
<rscale>  2 0.18903730E+03</rscale>
<asrwt>0</asrwt>
<pdfrwt beam="1">  1       21 0.97658821E-01 0.18903730E+03</pdfrwt>
<pdfrwt beam="2">  1       21 0.11740733E-01 0.18903730E+03</pdfrwt>
<totfact> 0.53070882E+04</totfact>
</mgrwt>
</event>
<event>
 4    1  0.4043938E+000  0.1733656E+03  0.7546771E-02  0.1174383E+00
         21   -1    0    0  503  502  0.00000000000E+00  0.00000000000E+00  0.48831066283E+02  0.48831066283E+02  0.00000000000E+00 0. -1.
         21   -1    0    0  501  503 -0.00000000000E+00 -0.00000000000E+00 -0.62283277852E+03  0.62283277852E+03  0.00000000000E+00 0. -1.
          6    1    1    2  501    0  0.49578020761E+01  0.10102642560E+02 -0.32343399562E+03  0.36696756357E+03  0.17300000000E+03 0.  1.
         -6    1    1    2    0  502 -0.49578020761E+01 -0.10102642560E+02 -0.25056771661E+03  0.30469628123E+03  0.17300000000E+03 0.  1.
<mgrwt>
<rscale>  2 0.17336563E+03</rscale>
<asrwt>0</asrwt>
<pdfrwt beam="1">  1       21 0.75124719E-02 0.17336563E+03</pdfrwt>
<pdfrwt beam="2">  1       21 0.95820426E-01 0.17336563E+03</pdfrwt>
<totfact> 0.12243251E+05</totfact>
</mgrwt>
</event>
<event>
 4    1  0.4043938E+000  0.1797616E+03  0.7546771E-02  0.1168034E+00
         21   -1    0    0  503  502  0.00000000000E+00  0.00000000000E+00  0.84542887703E+03  0.84542887703E+03  0.00000000000E+00 0.  1.
         21   -1    0    0  501  503 -0.00000000000E+00 -0.00000000000E+00 -0.67612736286E+02  0.67612736286E+02  0.00000000000E+00 0.  1.
          6    1    1    2  501    0  0.33178694711E+01 -0.48726005199E+02  0.87919936604E+02  0.20011033730E+03  0.17300000000E+03 0.  1.
         -6    1    1    2    0  502 -0.33178694711E+01  0.48726005199E+02  0.68989620414E+03  0.71293127602E+03  0.17300000000E+03 0.  1.
<mgrwt>
<rscale>  2 0.17976160E+03</rscale>
<asrwt>0</asrwt>
<pdfrwt beam="1">  1       21 0.13006597E+00 0.17976160E+03</pdfrwt>
<pdfrwt beam="2">  1       21 0.10401960E-01 0.17976160E+03</pdfrwt>
<totfact> 0.32919133E+04</totfact>
</mgrwt>
</event>
<event>
 4    1  0.4043938E+000  0.1784864E+03  0.7546771E-02  0.1169276E+00
         21   -1    0    0  503  502  0.00000000000E+00  0.00000000000E+00  0.21441518944E+03  0.21441518944E+03  0.00000000000E+00 0.  1.
         21   -1    0    0  501  503 -0.00000000000E+00 -0.00000000000E+00 -0.29997341867E+03  0.29997341867E+03  0.00000000000E+00 0.  1.
          6    1    1    2  501    0  0.34930793127E+02  0.26612821963E+02 -0.22549494482E+03  0.28758541817E+03  0.17300000000E+03 0.  1.
         -6    1    1    2    0  502 -0.34930793127E+02 -0.26612821963E+02  0.13993671559E+03  0.22680318995E+03  0.17300000000E+03 0.  1.
<mgrwt>
<rscale>  2 0.17848642E+03</rscale>
<asrwt>0</asrwt>
<pdfrwt beam="1">  1       21 0.32986952E-01 0.17848642E+03</pdfrwt>
<pdfrwt beam="2">  1       21 0.46149757E-01 0.17848642E+03</pdfrwt>
<totfact> 0.40088686E+04</totfact>
</mgrwt>
</event>
<event>
 4    1  0.4043938E+000  0.1880523E+03  0.7546771E-02  0.1160230E+00
         21   -1    0    0  501  502  0.00000000000E+00  0.00000000000E+00  0.11704073591E+04  0.11704073591E+04  0.00000000000E+00 0.  1.
         21   -1    0    0  502  503 -0.00000000000E+00 -0.00000000000E+00 -0.32569643210E+02  0.32569643210E+02  0.00000000000E+00 0. -1.
          6    1    1    2  501    0  0.73714109123E+02 -0.94953529974E+00  0.73065165815E+03  0.75446372812E+03  0.17300000000E+03 0.  1.
         -6    1    1    2    0  503 -0.73714109123E+02  0.94953529974E+00  0.40718605773E+03  0.44851327418E+03  0.17300000000E+03 0. -1.
<mgrwt>
<rscale>  2 0.18805231E+03</rscale>
<asrwt>0</asrwt>
<pdfrwt beam="1">  1       21 0.18006264E+00 0.18805231E+03</pdfrwt>
<pdfrwt beam="2">  1       21 0.50107152E-02 0.18805231E+03</pdfrwt>
<totfact> 0.48858040E+04</totfact>
</mgrwt>
</event>
<event>
 4    1  0.4043938E+000  0.2597398E+03  0.7546771E-02  0.1107300E+00
         21   -1    0    0  503  502  0.00000000000E+00  0.00000000000E+00  0.24379977311E+03  0.24379977311E+03  0.00000000000E+00 0.  1.
         21   -1    0    0  501  503 -0.00000000000E+00 -0.00000000000E+00 -0.46214069586E+03  0.46214069586E+03  0.00000000000E+00 0. -1.
          6    1    1    2  501    0 -0.18910370675E+03 -0.42137174310E+02 -0.33274779546E+03  0.42212065662E+03  0.17300000000E+03 0. -1.
         -6    1    1    2    0  502  0.18910370675E+03  0.42137174310E+02  0.11440687271E+03  0.28381981236E+03  0.17300000000E+03 0.  1.
<mgrwt>
<rscale>  2 0.25973978E+03</rscale>
<asrwt>0</asrwt>
<pdfrwt beam="1">  1       21 0.37507657E-01 0.25973978E+03</pdfrwt>
<pdfrwt beam="2">  1       21 0.71098568E-01 0.25973978E+03</pdfrwt>
<totfact> 0.11793658E+04</totfact>
</mgrwt>
</event>
<event>
 4    1  0.4043938E+000  0.2109356E+03  0.7546771E-02  0.1140827E+00
         21   -1    0    0  503  502  0.00000000000E+00  0.00000000000E+00  0.90637597100E+02  0.90637597100E+02  0.00000000000E+00 0.  1.
         21   -1    0    0  501  503 -0.00000000000E+00 -0.00000000000E+00 -0.96561709174E+03  0.96561709174E+03  0.00000000000E+00 0. -1.
          6    1    1    2  501    0  0.11785887791E+03 -0.25963507191E+02 -0.80779042987E+03  0.83487675581E+03  0.17300000000E+03 0. -1.
         -6    1    1    2    0  502 -0.11785887791E+03  0.25963507191E+02 -0.67189064769E+02  0.22137793303E+03  0.17300000000E+03 0.  1.
<mgrwt>
<rscale>  2 0.21093558E+03</rscale>
<asrwt>0</asrwt>
<pdfrwt beam="1">  1       21 0.13944246E-01 0.21093558E+03</pdfrwt>
<pdfrwt beam="2">  1       21 0.14855647E+00 0.21093558E+03</pdfrwt>
<totfact> 0.13554984E+04</totfact>
</mgrwt>
</event>
<event>
 4    1  0.4043938E+000  0.2144882E+03  0.7546771E-02  0.1138060E+00
         21   -1    0    0  501  502  0.00000000000E+00  0.00000000000E+00  0.73930656962E+03  0.73930656962E+03  0.00000000000E+00 0.  1.
         21   -1    0    0  502  503 -0.00000000000E+00 -0.00000000000E+00 -0.99328762207E+02  0.99328762207E+02  0.00000000000E+00 0.  1.
          6    1    1    2  501    0  0.52729474420E+02  0.11530735596E+03  0.57626028813E+03  0.61488299983E+03  0.17300000000E+03 0.  1.
         -6    1    1    2    0  503 -0.52729474420E+02 -0.11530735596E+03  0.63717519289E+02  0.22375233200E+03  0.17300000000E+03 0.  1.
<mgrwt>
<rscale>  2 0.21448819E+03</rscale>
<asrwt>0</asrwt>
<pdfrwt beam="1">  1       21 0.11373947E+00 0.21448819E+03</pdfrwt>
<pdfrwt beam="2">  1       21 0.15281348E-01 0.21448819E+03</pdfrwt>
<totfact> 0.22536859E+04</totfact>
</mgrwt>
</event>
<event>
 4    1  0.4043938E+000  0.2014846E+03  0.7546771E-02  0.1148492E+00
         21   -1    0    0  503  502  0.00000000000E+00  0.00000000000E+00  0.59558908738E+03  0.59558908738E+03  0.00000000000E+00 0.  1.
         21   -1    0    0  501  503 -0.00000000000E+00 -0.00000000000E+00 -0.30548864377E+03  0.30548864377E+03  0.00000000000E+00 0.  1.
          6    1    1    2  501    0 -0.57264535399E+02 -0.85952343161E+02 -0.25205789120E+03  0.32269058373E+03  0.17300000000E+03 0.  1.
         -6    1    1    2    0  502  0.57264535399E+02  0.85952343161E+02  0.54215833481E+03  0.57838714743E+03  0.17300000000E+03 0.  1.
<mgrwt>
<rscale>  2 0.20148457E+03</rscale>
<asrwt>0</asrwt>
<pdfrwt beam="1">  1       21 0.91629091E-01 0.20148457E+03</pdfrwt>
<pdfrwt beam="2">  1       21 0.46998253E-01 0.20148457E+03</pdfrwt>
<totfact> 0.43357486E+03</totfact>
</mgrwt>
</event>
<event>
 4    1  0.4043938E+000  0.1779677E+03  0.7546771E-02  0.1169785E+00
         21   -1    0    0  503  502  0.00000000000E+00  0.00000000000E+00  0.28677672395E+02  0.28677672395E+02  0.00000000000E+00 0.  1.
         21   -1    0    0  501  503 -0.00000000000E+00 -0.00000000000E+00 -0.17788591814E+04  0.17788591814E+04  0.00000000000E+00 0.  1.
          6    1    1    2  501    0  0.14707059987E+02 -0.39079582302E+02 -0.14315767305E+04  0.14425964254E+04  0.17300000000E+03 0.  1.
         -6    1    1    2    0  502 -0.14707059987E+02  0.39079582302E+02 -0.31860477851E+03  0.36494042836E+03  0.17300000000E+03 0.  1.
<mgrwt>
<rscale>  2 0.17796773E+03</rscale>
<asrwt>0</asrwt>
<pdfrwt beam="1">  1       21 0.44119488E-02 0.17796773E+03</pdfrwt>
<pdfrwt beam="2">  1       21 0.27367070E+00 0.17796773E+03</pdfrwt>
<totfact> 0.16322490E+04</totfact>
</mgrwt>
</event>
<event>
 4    1  0.4043938E+000  0.1864359E+03  0.7546771E-02  0.1161716E+00
         21   -1    0    0  501  502  0.00000000000E+00  0.00000000000E+00  0.78666216294E+03  0.78666216294E+03  0.00000000000E+00 0.  1.
         21   -1    0    0  502  503 -0.00000000000E+00 -0.00000000000E+00 -0.76846336904E+02  0.76846336904E+02  0.00000000000E+00 0.  1.
          6    1    1    2  501    0 -0.64214025741E+02 -0.26568709840E+02  0.63638613921E+03  0.66313321107E+03  0.17300000000E+03 0.  1.
         -6    1    1    2    0  503  0.64214025741E+02  0.26568709840E+02  0.73429686826E+02  0.20037528878E+03  0.17300000000E+03 0.  1.
<mgrwt>
<rscale>  2 0.18643588E+03</rscale>
<asrwt>0</asrwt>
<pdfrwt beam="1">  1       21 0.12102494E+00 0.18643588E+03</pdfrwt>
<pdfrwt beam="2">  1       21 0.11822514E-01 0.18643588E+03</pdfrwt>
<totfact> 0.31273564E+04</totfact>
</mgrwt>
</event>
<event>
 4    1  0.4043938E+000  0.2453297E+03  0.7546771E-02  0.1116292E+00
         21   -1    0    0  501  502  0.00000000000E+00  0.00000000000E+00  0.21698689600E+03  0.21698689600E+03  0.00000000000E+00 0.  1.
         21   -1    0    0  502  503 -0.00000000000E+00 -0.00000000000E+00 -0.64208138446E+03  0.64208138446E+03  0.00000000000E+00 0. -1.
          6    1    1    2  501    0  0.13988880986E+02  0.17338386905E+03  0.11117650844E+03  0.26934526331E+03  0.17300000000E+03 0.  1.
         -6    1    1    2    0  503 -0.13988880986E+02 -0.17338386905E+03 -0.53627099690E+03  0.58972301715E+03  0.17300000000E+03 0. -1.
<mgrwt>
<rscale>  2 0.24532969E+03</rscale>
<asrwt>0</asrwt>
<pdfrwt beam="1">  1       21 0.33382600E-01 0.24532969E+03</pdfrwt>
<pdfrwt beam="2">  1       21 0.98781749E-01 0.24532969E+03</pdfrwt>
<totfact> 0.70455183E+03</totfact>
</mgrwt>
</event>
<event>
 4    1  0.4043938E+000  0.1981096E+03  0.7546771E-02  0.1151344E+00
         21   -1    0    0  501  502  0.00000000000E+00  0.00000000000E+00  0.30496048374E+02  0.30496048374E+02  0.00000000000E+00 0.  1.
         21   -1    0    0  502  503 -0.00000000000E+00 -0.00000000000E+00 -0.12946879764E+04  0.12946879764E+04  0.00000000000E+00 0.  1.
          6    1    1    2  501    0 -0.90507022320E+02 -0.33569176213E+02 -0.58092811344E+03  0.61377918152E+03  0.17300000000E+03 0.  1.
         -6    1    1    2    0  503  0.90507022320E+02  0.33569176213E+02 -0.68326381454E+03  0.71140484321E+03  0.17300000000E+03 0.  1.
<mgrwt>
<rscale>  2 0.19810959E+03</rscale>
<asrwt>0</asrwt>
<pdfrwt beam="1">  1       21 0.46916994E-02 0.19810959E+03</pdfrwt>
<pdfrwt beam="2">  1       21 0.19918278E+00 0.19810959E+03</pdfrwt>
<totfact> 0.40563945E+04</totfact>
</mgrwt>
</event>
<event>
 4    1  0.4043938E+000  0.2820361E+03  0.7546771E-02  0.1094582E+00
         21   -1    0    0  503  502  0.00000000000E+00  0.00000000000E+00  0.13570887222E+03  0.13570887222E+03  0.00000000000E+00 0. -1.
         21   -1    0    0  501  503 -0.00000000000E+00 -0.00000000000E+00 -0.77048693462E+03  0.77048693462E+03  0.00000000000E+00 0.  1.
          6    1    1    2  501    0  0.18054846064E+03  0.13045166343E+03 -0.53901850007E+03  0.60834638698E+03  0.17300000000E+03 0.  1.
         -6    1    1    2    0  502 -0.18054846064E+03 -0.13045166343E+03 -0.95759562327E+02  0.29784941986E+03  0.17300000000E+03 0. -1.
<mgrwt>
<rscale>  2 0.28203614E+03</rscale>
<asrwt>0</asrwt>
<pdfrwt beam="1">  1       21 0.20878288E-01 0.28203614E+03</pdfrwt>
<pdfrwt beam="2">  1       21 0.11853645E+00 0.28203614E+03</pdfrwt>
<totfact> 0.10989229E+04</totfact>
</mgrwt>
</event>
<event>
 4    1  0.4043938E+000  0.1808465E+03  0.7546771E-02  0.1166986E+00
         21   -1    0    0  501  502  0.00000000000E+00  0.00000000000E+00  0.73201504636E+03  0.73201504636E+03  0.00000000000E+00 0.  1.
         21   -1    0    0  502  503 -0.00000000000E+00 -0.00000000000E+00 -0.15105300004E+03  0.15105300004E+03  0.00000000000E+00 0.  1.
          6    1    1    2  501    0 -0.40917277708E+02 -0.33200001446E+02  0.66100635244E+03  0.68529910381E+03  0.17300000000E+03 0.  1.
         -6    1    1    2    0  503  0.40917277708E+02  0.33200001446E+02 -0.80044306123E+02  0.19776894259E+03  0.17300000000E+03 0.  1.
<mgrwt>
<rscale>  2 0.18084652E+03</rscale>
<asrwt>0</asrwt>
<pdfrwt beam="1">  1       21 0.11261770E+00 0.18084652E+03</pdfrwt>
<pdfrwt beam="2">  1       21 0.23238924E-01 0.18084652E+03</pdfrwt>
<totfact> 0.10827310E+04</totfact>
</mgrwt>
</event>
<event>
 4    1  0.4043938E+000  0.3098931E+03  0.7546771E-02  0.1080397E+00
         21   -1    0    0  503  502  0.00000000000E+00  0.00000000000E+00  0.50360871351E+03  0.50360871351E+03  0.00000000000E+00 0. -1.
         21   -1    0    0  501  503 -0.00000000000E+00 -0.00000000000E+00 -0.19426154850E+03  0.19426154850E+03  0.00000000000E+00 0.  1.
          6    1    1    2  501    0 -0.53244908950E+02 -0.25153474231E+03  0.10736859425E+03  0.32796609878E+03  0.17300000000E+03 0.  1.
         -6    1    1    2    0  502  0.53244908950E+02  0.25153474231E+03  0.20197857076E+03  0.36990416322E+03  0.17300000000E+03 0. -1.
<mgrwt>
<rscale>  2 0.30989312E+03</rscale>
<asrwt>0</asrwt>
<pdfrwt beam="1">  1       21 0.77478263E-01 0.30989312E+03</pdfrwt>
<pdfrwt beam="2">  1       21 0.29886392E-01 0.30989312E+03</pdfrwt>
<totfact> 0.14936124E+04</totfact>
</mgrwt>
</event>
<event>
 4    1  0.4043938E+000  0.1765243E+03  0.7546771E-02  0.1171210E+00
         21   -1    0    0  503  502  0.00000000000E+00  0.00000000000E+00  0.72155293166E+02  0.72155293166E+02  0.00000000000E+00 0.  1.
         21   -1    0    0  501  503 -0.00000000000E+00 -0.00000000000E+00 -0.55293167248E+03  0.55293167248E+03  0.00000000000E+00 0.  1.
          6    1    1    2  501    0  0.34673714251E+02  0.54359090535E+01 -0.38663964409E+03  0.42503062237E+03  0.17300000000E+03 0.  1.
         -6    1    1    2    0  502 -0.34673714251E+02 -0.54359090535E+01 -0.94136735221E+02  0.20005634328E+03  0.17300000000E+03 0.  1.
<mgrwt>
<rscale>  2 0.17652426E+03</rscale>
<asrwt>0</asrwt>
<pdfrwt beam="1">  1       21 0.11100814E-01 0.17652426E+03</pdfrwt>
<pdfrwt beam="2">  1       21 0.85066411E-01 0.17652426E+03</pdfrwt>
<totfact> 0.81212225E+04</totfact>
</mgrwt>
</event>
<event>
 4    1  0.4043938E+000  0.3148922E+03  0.7546771E-02  0.1078024E+00
         21   -1    0    0  501  502  0.00000000000E+00  0.00000000000E+00  0.27345266969E+03  0.27345266969E+03  0.00000000000E+00 0. -1.
         21   -1    0    0  502  503 -0.00000000000E+00 -0.00000000000E+00 -0.69099957680E+03  0.69099957680E+03  0.00000000000E+00 0.  1.
          6    1    1    2  501    0  0.49330668634E+02  0.25844642973E+03  0.12366064114E+03  0.33830315705E+03  0.17300000000E+03 0. -1.
         -6    1    1    2    0  503 -0.49330668634E+02 -0.25844642973E+03 -0.54120754826E+03  0.62614908943E+03  0.17300000000E+03 0.  1.
<mgrwt>
<rscale>  2 0.31489216E+03</rscale>
<asrwt>0</asrwt>
<pdfrwt beam="1">  1       21 0.42069642E-01 0.31489216E+03</pdfrwt>
<pdfrwt beam="2">  1       21 0.10630763E+00 0.31489216E+03</pdfrwt>
<totfact> 0.35570727E+03</totfact>
</mgrwt>
</event>
<event>
 4    1  0.4043938E+000  0.2971104E+03  0.7546771E-02  0.1086694E+00
         21   -1    0    0  501  502  0.00000000000E+00  0.00000000000E+00  0.12587988888E+04  0.12587988888E+04  0.00000000000E+00 0. -1.
         21   -1    0    0  502  503 -0.00000000000E+00 -0.00000000000E+00 -0.18116406815E+03  0.18116406815E+03  0.00000000000E+00 0. -1.
          6    1    1    2  501    0  0.86441805500E+02 -0.22555134061E+03  0.11024825083E+04  0.11418153415E+04  0.17300000000E+03 0. -1.
         -6    1    1    2    0  503 -0.86441805500E+02  0.22555134061E+03 -0.24847687681E+02  0.29814761541E+03  0.17300000000E+03 0. -1.
<mgrwt>
<rscale>  2 0.29711041E+03</rscale>
<asrwt>0</asrwt>
<pdfrwt beam="1">  1       21 0.19366136E+00 0.29711041E+03</pdfrwt>
<pdfrwt beam="2">  1       21 0.27871396E-01 0.29711041E+03</pdfrwt>
<totfact> 0.16604550E+03</totfact>
</mgrwt>
</event>
<event>
 4    1  0.4043938E+000  0.2117487E+03  0.7546771E-02  0.1140189E+00
         21   -1    0    0  503  502  0.00000000000E+00  0.00000000000E+00  0.32973074943E+03  0.32973074943E+03  0.00000000000E+00 0.  1.
         21   -1    0    0  501  503 -0.00000000000E+00 -0.00000000000E+00 -0.13786448819E+03  0.13786448819E+03  0.00000000000E+00 0.  1.
          6    1    1    2  501    0 -0.95510968065E+02 -0.76066735561E+02  0.12325206380E+03  0.24500727441E+03  0.17300000000E+03 0.  1.
         -6    1    1    2    0  502  0.95510968065E+02  0.76066735561E+02  0.68614197432E+02  0.22258796322E+03  0.17300000000E+03 0.  1.
<mgrwt>
<rscale>  2 0.21174866E+03</rscale>
<asrwt>0</asrwt>
<pdfrwt beam="1">  1       21 0.50727807E-01 0.21174866E+03</pdfrwt>
<pdfrwt beam="2">  1       21 0.21209921E-01 0.21174866E+03</pdfrwt>
<totfact> 0.75821374E+04</totfact>
</mgrwt>
</event>
<event>
 4    1  0.4043938E+000  0.2049472E+03  0.7546771E-02  0.1145631E+00
         21   -1    0    0  503  502  0.00000000000E+00  0.00000000000E+00  0.15034492968E+04  0.15034492968E+04  0.00000000000E+00 0.  1.
         21   -1    0    0  501  503 -0.00000000000E+00 -0.00000000000E+00 -0.44791987339E+02  0.44791987339E+02  0.00000000000E+00 0.  1.
          6    1    1    2  501    0 -0.74121088469E+02  0.81119673567E+02  0.25447469410E+03  0.32674257013E+03  0.17300000000E+03 0.  1.
         -6    1    1    2    0  502  0.74121088469E+02 -0.81119673567E+02  0.12041826154E+04  0.12214987140E+04  0.17300000000E+03 0.  1.
<mgrwt>
<rscale>  2 0.20494716E+03</rscale>
<asrwt>0</asrwt>
<pdfrwt beam="1">  1       21 0.23129985E+00 0.20494716E+03</pdfrwt>
<pdfrwt beam="2">  1       21 0.68910761E-02 0.20494716E+03</pdfrwt>
<totfact> 0.13207631E+04</totfact>
</mgrwt>
</event>
<event>
 4    1  0.4043938E+000  0.2601620E+03  0.7546771E-02  0.1107046E+00
         21   -1    0    0  503  502  0.00000000000E+00  0.00000000000E+00  0.12695231477E+04  0.12695231477E+04  0.00000000000E+00 0. -1.
         21   -1    0    0  501  503 -0.00000000000E+00 -0.00000000000E+00 -0.58397862959E+02  0.58397862959E+02  0.00000000000E+00 0.  1.
          6    1    1    2  501    0  0.18730946259E+03 -0.51676313777E+02  0.40967377174E+03  0.48530080922E+03  0.17300000000E+03 0.  1.
         -6    1    1    2    0  502 -0.18730946259E+03  0.51676313777E+02  0.80145151302E+03  0.84262020145E+03  0.17300000000E+03 0. -1.
<mgrwt>
<rscale>  2 0.26016202E+03</rscale>
<asrwt>0</asrwt>
<pdfrwt beam="1">  1       21 0.19531123E+00 0.26016202E+03</pdfrwt>
<pdfrwt beam="2">  1       21 0.89842876E-02 0.26016202E+03</pdfrwt>
<totfact> 0.13452930E+04</totfact>
</mgrwt>
</event>
<event>
 4    1  0.4043938E+000  0.2223846E+03  0.7546771E-02  0.1132118E+00
         21   -1    0    0  503  502  0.00000000000E+00  0.00000000000E+00  0.20719379795E+04  0.20719379795E+04  0.00000000000E+00 0. -1.
         21   -1    0    0  501  503 -0.00000000000E+00 -0.00000000000E+00 -0.23916025585E+02  0.23916025585E+02  0.00000000000E+00 0.  1.
          6    1    1    2  501    0  0.92411702782E+02  0.10481409716E+03  0.97750252779E+03  0.10024799797E+04  0.17300000000E+03 0. -1.
         -6    1    1    2    0  502 -0.92411702782E+02 -0.10481409716E+03  0.10705194261E+04  0.10933740254E+04  0.17300000000E+03 0.  1.
<mgrwt>
<rscale>  2 0.22238462E+03</rscale>
<asrwt>0</asrwt>
<pdfrwt beam="1">  1       21 0.31875955E+00 0.22238462E+03</pdfrwt>
<pdfrwt beam="2">  1       21 0.36793902E-02 0.22238462E+03</pdfrwt>
<totfact> 0.11625486E+04</totfact>
</mgrwt>
</event>
<event>
 4    1  0.4043938E+000  0.2336370E+03  0.7546771E-02  0.1124106E+00
         21   -1    0    0  501  502  0.00000000000E+00  0.00000000000E+00  0.23529800830E+02  0.23529800830E+02  0.00000000000E+00 0. -1.
         21   -1    0    0  502  503 -0.00000000000E+00 -0.00000000000E+00 -0.32434046348E+04  0.32434046348E+04  0.00000000000E+00 0. -1.
          6    1    1    2  501    0 -0.15459534518E+03 -0.27523045712E+02 -0.73830202951E+03  0.77438758098E+03  0.17300000000E+03 0. -1.
         -6    1    1    2    0  503  0.15459534518E+03  0.27523045712E+02 -0.24815728045E+04  0.24925468546E+04  0.17300000000E+03 0. -1.
<mgrwt>
<rscale>  2 0.23363698E+03</rscale>
<asrwt>0</asrwt>
<pdfrwt beam="1">  1       21 0.36199698E-02 0.23363698E+03</pdfrwt>
<pdfrwt beam="2">  1       21 0.49898526E+00 0.23363698E+03</pdfrwt>
<totfact> 0.83878606E+02</totfact>
</mgrwt>
</event>
<event>
 4    1  0.4043938E+000  0.1869526E+03  0.7546771E-02  0.1161239E+00
         21   -1    0    0  501  502  0.00000000000E+00  0.00000000000E+00  0.13690903638E+03  0.13690903638E+03  0.00000000000E+00 0.  1.
         21   -1    0    0  502  503 -0.00000000000E+00 -0.00000000000E+00 -0.42034683116E+03  0.42034683116E+03  0.00000000000E+00 0. -1.
          6    1    1    2  501    0  0.69933136502E+02  0.11473489497E+02  0.32879262883E+02  0.18982183876E+03  0.17300000000E+03 0.  1.
         -6    1    1    2    0  503 -0.69933136502E+02 -0.11473489497E+02 -0.31631705765E+03  0.36743402878E+03  0.17300000000E+03 0. -1.
<mgrwt>
<rscale>  2 0.18695263E+03</rscale>
<asrwt>0</asrwt>
<pdfrwt beam="1">  1       21 0.21062929E-01 0.18695263E+03</pdfrwt>
<pdfrwt beam="2">  1       21 0.64668743E-01 0.18695263E+03</pdfrwt>
<totfact> 0.46298275E+04</totfact>
</mgrwt>
</event>
<event>
 4    1  0.4043938E+000  0.2514686E+03  0.7546771E-02  0.1112380E+00
         21   -1    0    0  501  502  0.00000000000E+00  0.00000000000E+00  0.57597203541E+02  0.57597203541E+02  0.00000000000E+00 0. -1.
         21   -1    0    0  502  503 -0.00000000000E+00 -0.00000000000E+00 -0.17599589173E+04  0.17599589173E+04  0.00000000000E+00 0. -1.
          6    1    1    2  501    0 -0.17572402022E+03 -0.49280001958E+02 -0.29379986450E+03  0.38672317005E+03  0.17300000000E+03 0. -1.
         -6    1    1    2    0  503  0.17572402022E+03  0.49280001958E+02 -0.14085618493E+04  0.14308329508E+04  0.17300000000E+03 0. -1.
<mgrwt>
<rscale>  2 0.25146859E+03</rscale>
<asrwt>0</asrwt>
<pdfrwt beam="1">  1       21 0.88611081E-02 0.25146859E+03</pdfrwt>
<pdfrwt beam="2">  1       21 0.27076291E+00 0.25146859E+03</pdfrwt>
<totfact> 0.47726493E+03</totfact>
</mgrwt>
</event>
<event>
 4    1  0.4043938E+000  0.2255819E+03  0.7546771E-02  0.1129789E+00
         21   -1    0    0  503  502  0.00000000000E+00  0.00000000000E+00  0.17261092493E+03  0.17261092493E+03  0.00000000000E+00 0. -1.
         21   -1    0    0  501  503 -0.00000000000E+00 -0.00000000000E+00 -0.29490876297E+03  0.29490876297E+03  0.00000000000E+00 0. -1.
          6    1    1    2  501    0  0.11263460792E+03 -0.90948470424E+02 -0.65457699831E+02  0.23488697205E+03  0.17300000000E+03 0. -1.
         -6    1    1    2    0  502 -0.11263460792E+03  0.90948470424E+02 -0.56840138210E+02  0.23263271585E+03  0.17300000000E+03 0. -1.
<mgrwt>
<rscale>  2 0.22558187E+03</rscale>
<asrwt>0</asrwt>
<pdfrwt beam="1">  1       21 0.26555527E-01 0.22558187E+03</pdfrwt>
<pdfrwt beam="2">  1       21 0.45370579E-01 0.22558187E+03</pdfrwt>
<totfact> 0.61959540E+04</totfact>
</mgrwt>
</event>
<event>
 4    1  0.4043938E+000  0.3188414E+03  0.7546771E-02  0.1076184E+00
         21   -1    0    0  503  502  0.00000000000E+00  0.00000000000E+00  0.10001450287E+03  0.10001450287E+03  0.00000000000E+00 0. -1.
         21   -1    0    0  501  503 -0.00000000000E+00 -0.00000000000E+00 -0.11147840167E+04  0.11147840167E+04  0.00000000000E+00 0.  1.
          6    1    1    2  501    0 -0.26560391113E+03 -0.34429460891E+02 -0.32698791598E+03  0.45670660448E+03  0.17300000000E+03 0. -1.
         -6    1    1    2    0  502  0.26560391113E+03  0.34429460891E+02 -0.68778159785E+03  0.75809191509E+03  0.17300000000E+03 0.  1.
<mgrwt>
<rscale>  2 0.31884138E+03</rscale>
<asrwt>0</asrwt>
<pdfrwt beam="1">  1       21 0.15386848E-01 0.31884138E+03</pdfrwt>
<pdfrwt beam="2">  1       21 0.17150522E+00 0.31884138E+03</pdfrwt>
<totfact> 0.71846891E+03</totfact>
</mgrwt>
</event>
<event>
 4    1  0.4043938E+000  0.2438095E+03  0.7546771E-02  0.1117281E+00
         21   -1    0    0  501  502  0.00000000000E+00  0.00000000000E+00  0.12400550418E+04  0.12400550418E+04  0.00000000000E+00 0.  1.
         21   -1    0    0  502  503 -0.00000000000E+00 -0.00000000000E+00 -0.16013518326E+03  0.16013518326E+03  0.00000000000E+00 0. -1.
          6    1    1    2  501    0  0.59747587411E+02 -0.16107237469E+03  0.11259750423E+04  0.11520689563E+04  0.17300000000E+03 0.  1.
         -6    1    1    2    0  503 -0.59747587411E+02  0.16107237469E+03 -0.46055183738E+02  0.24812126882E+03  0.17300000000E+03 0. -1.
<mgrwt>
<rscale>  2 0.24380952E+03</rscale>
<asrwt>0</asrwt>
<pdfrwt beam="1">  1       21 0.19077769E+00 0.24380952E+03</pdfrwt>
<pdfrwt beam="2">  1       21 0.24636183E-01 0.24380952E+03</pdfrwt>
<totfact> 0.22918039E+03</totfact>
</mgrwt>
</event>
<event>
 4    1  0.4043938E+000  0.1909494E+03  0.7546771E-02  0.1157608E+00
         21   -1    0    0  501  502  0.00000000000E+00  0.00000000000E+00  0.56753799496E+02  0.56753799496E+02  0.00000000000E+00 0.  1.
         21   -1    0    0  502  503 -0.00000000000E+00 -0.00000000000E+00 -0.92581098274E+03  0.92581098274E+03  0.00000000000E+00 0.  1.
          6    1    1    2  501    0 -0.38365554384E+02 -0.71139000911E+02 -0.16273611591E+03  0.25088785669E+03  0.17300000000E+03 0.  1.
         -6    1    1    2    0  503  0.38365554384E+02  0.71139000911E+02 -0.70632106734E+03  0.73167692555E+03  0.17300000000E+03 0.  1.
<mgrwt>
<rscale>  2 0.19094940E+03</rscale>
<asrwt>0</asrwt>
<pdfrwt beam="1">  1       21 0.87313535E-02 0.19094940E+03</pdfrwt>
<pdfrwt beam="2">  1       21 0.14243246E+00 0.19094940E+03</pdfrwt>
<totfact> 0.35287467E+04</totfact>
</mgrwt>
</event>
<event>
 4    1  0.4043938E+000  0.1779244E+03  0.7546771E-02  0.1169827E+00
         21   -1    0    0  503  502  0.00000000000E+00  0.00000000000E+00  0.10113904039E+03  0.10113904039E+03  0.00000000000E+00 0.  1.
         21   -1    0    0  501  503 -0.00000000000E+00 -0.00000000000E+00 -0.31341872127E+03  0.31341872127E+03  0.00000000000E+00 0.  1.
          6    1    1    2  501    0 -0.21523756489E+02 -0.35564552544E+02 -0.11366315735E+03  0.21113129287E+03  0.17300000000E+03 0. -1.
         -6    1    1    2    0  502  0.21523756489E+02  0.35564552544E+02 -0.98616523535E+02  0.20342646879E+03  0.17300000000E+03 0. -1.
<mgrwt>
<rscale>  2 0.17792445E+03</rscale>
<asrwt>0</asrwt>
<pdfrwt beam="1">  1       21 0.15559853E-01 0.17792445E+03</pdfrwt>
<pdfrwt beam="2">  1       21 0.48218264E-01 0.17792445E+03</pdfrwt>
<totfact> 0.15149563E+05</totfact>
</mgrwt>
</event>
<event>
 4    1  0.4043938E+000  0.1767451E+03  0.7546771E-02  0.1170991E+00
         21   -1    0    0  501  502  0.00000000000E+00  0.00000000000E+00  0.27416165770E+03  0.27416165770E+03  0.00000000000E+00 0. -1.
         21   -1    0    0  502  503 -0.00000000000E+00 -0.00000000000E+00 -0.11434976732E+03  0.11434976732E+03  0.00000000000E+00 0. -1.
          6    1    1    2  501    0  0.35609998720E+02  0.64616033338E+01  0.91490657339E+02  0.19902101574E+03  0.17300000000E+03 0. -1.
         -6    1    1    2    0  503 -0.35609998720E+02 -0.64616033338E+01  0.68321233042E+02  0.18949040928E+03  0.17300000000E+03 0. -1.
<mgrwt>
<rscale>  2 0.17674508E+03</rscale>
<asrwt>0</asrwt>
<pdfrwt beam="1">  1       21 0.42178716E-01 0.17674508E+03</pdfrwt>
<pdfrwt beam="2">  1       21 0.17592272E-01 0.17674508E+03</pdfrwt>
<totfact> 0.15923507E+05</totfact>
</mgrwt>
</event>
<event>
 4    1  0.4043938E+000  0.3158476E+03  0.7546771E-02  0.1077576E+00
         21   -1    0    0  503  502  0.00000000000E+00  0.00000000000E+00  0.23918067038E+03  0.23918067038E+03  0.00000000000E+00 0.  1.
         21   -1    0    0  501  503 -0.00000000000E+00 -0.00000000000E+00 -0.57692443448E+03  0.57692443448E+03  0.00000000000E+00 0. -1.
          6    1    1    2  501    0 -0.26060833982E+03  0.43748986968E+02 -0.38365139758E+03  0.49693870397E+03  0.17300000000E+03 0. -1.
         -6    1    1    2    0  502  0.26060833982E+03 -0.43748986968E+02  0.45907633480E+02  0.31916640089E+03  0.17300000000E+03 0.  1.
<mgrwt>
<rscale>  2 0.31584756E+03</rscale>
<asrwt>0</asrwt>
<pdfrwt beam="1">  1       21 0.36797026E-01 0.31584756E+03</pdfrwt>
<pdfrwt beam="2">  1       21 0.88757605E-01 0.31584756E+03</pdfrwt>
<totfact> 0.71903953E+03</totfact>
</mgrwt>
</event>
<event>
 4    1  0.4043938E+000  0.1734138E+03  0.7546771E-02  0.1174334E+00
         21   -1    0    0  501  502  0.00000000000E+00  0.00000000000E+00  0.56975619947E+03  0.56975619947E+03  0.00000000000E+00 0.  1.
         21   -1    0    0  502  503 -0.00000000000E+00 -0.00000000000E+00 -0.71260828338E+02  0.71260828338E+02  0.00000000000E+00 0.  1.
          6    1    1    2  501    0 -0.31122232146E+01 -0.11561521015E+02  0.41246341717E+03  0.44743538662E+03  0.17300000000E+03 0.  1.
         -6    1    1    2    0  503  0.31122232146E+01  0.11561521015E+02  0.86031953970E+02  0.19358164119E+03  0.17300000000E+03 0.  1.
<mgrwt>
<rscale>  2 0.17341383E+03</rscale>
<asrwt>0</asrwt>
<pdfrwt beam="1">  1       21 0.87654797E-01 0.17341383E+03</pdfrwt>
<pdfrwt beam="2">  1       21 0.10963205E-01 0.17341383E+03</pdfrwt>
<totfact> 0.77633530E+04</totfact>
</mgrwt>
</event>
<event>
 4    1  0.4043938E+000  0.2265395E+03  0.7546771E-02  0.1129099E+00
         21   -1    0    0  503  502  0.00000000000E+00  0.00000000000E+00  0.10758603435E+04  0.10758603435E+04  0.00000000000E+00 0. -1.
         21   -1    0    0  501  503 -0.00000000000E+00 -0.00000000000E+00 -0.80892300931E+02  0.80892300931E+02  0.00000000000E+00 0. -1.
          6    1    1    2  501    0  0.83451360588E+02 -0.12011258571E+03  0.12700321563E+03  0.25971133901E+03  0.17300000000E+03 0. -1.
         -6    1    1    2    0  502 -0.83451360588E+02  0.12011258571E+03  0.86796482694E+03  0.89704130542E+03  0.17300000000E+03 0. -1.
<mgrwt>
<rscale>  2 0.22653954E+03</rscale>
<asrwt>0</asrwt>
<pdfrwt beam="1">  1       21 0.16551697E+00 0.22653954E+03</pdfrwt>
<pdfrwt beam="2">  1       21 0.12444970E-01 0.22653954E+03</pdfrwt>
<totfact> 0.12317756E+04</totfact>
</mgrwt>
</event>
<event>
 4    1  0.4043938E+000  0.2863814E+03  0.7546771E-02  0.1092254E+00
         21   -1    0    0  501  502  0.00000000000E+00  0.00000000000E+00  0.92455062203E+02  0.92455062203E+02  0.00000000000E+00 0. -1.
         21   -1    0    0  502  503 -0.00000000000E+00 -0.00000000000E+00 -0.12442566756E+04  0.12442566756E+04  0.00000000000E+00 0.  1.
          6    1    1    2  501    0 -0.21217537484E+01 -0.22821225027E+03 -0.21780523701E+03  0.35979640671E+03  0.17300000000E+03 0. -1.
         -6    1    1    2    0  503  0.21217537484E+01  0.22821225027E+03 -0.93399637639E+03  0.97691533110E+03  0.17300000000E+03 0.  1.
<mgrwt>
<rscale>  2 0.28638145E+03</rscale>
<asrwt>0</asrwt>
<pdfrwt beam="1">  1       21 0.14223855E-01 0.28638145E+03</pdfrwt>
<pdfrwt beam="2">  1       21 0.19142411E+00 0.28638145E+03</pdfrwt>
<totfact> 0.61556703E+03</totfact>
</mgrwt>
</event>
<event>
 4    1  0.4043938E+000  0.2732482E+03  0.7546771E-02  0.1099435E+00
         21   -1    0    0  501  502  0.00000000000E+00  0.00000000000E+00  0.32151623985E+04  0.32151623985E+04  0.00000000000E+00 0.  1.
         21   -1    0    0  502  503 -0.00000000000E+00 -0.00000000000E+00 -0.23362936653E+02  0.23362936653E+02  0.00000000000E+00 0.  1.
          6    1    1    2  501    0 -0.30279466905E+02 -0.20932928257E+03  0.14704239116E+04  0.14955972300E+04  0.17300000000E+03 0.  1.
         -6    1    1    2    0  503  0.30279466905E+02  0.20932928257E+03  0.17213755502E+04  0.17429281051E+04  0.17300000000E+03 0.  1.
<mgrwt>
<rscale>  2 0.27324823E+03</rscale>
<asrwt>0</asrwt>
<pdfrwt beam="1">  1       21 0.49464002E+00 0.27324823E+03</pdfrwt>
<pdfrwt beam="2">  1       21 0.35943005E-02 0.27324823E+03</pdfrwt>
<totfact> 0.86876253E+02</totfact>
</mgrwt>
</event>
<event>
 4    1  0.4043938E+000  0.2191676E+03  0.7546771E-02  0.1134505E+00
         21   -1    0    0  503  502  0.00000000000E+00  0.00000000000E+00  0.17380727129E+04  0.17380727129E+04  0.00000000000E+00 0. -1.
         21   -1    0    0  501  503 -0.00000000000E+00 -0.00000000000E+00 -0.30507676561E+02  0.30507676561E+02  0.00000000000E+00 0. -1.
          6    1    1    2  501    0 -0.12305285154E+03  0.54437303923E+02  0.58250584184E+03  0.62237246092E+03  0.17300000000E+03 0. -1.
         -6    1    1    2    0  502  0.12305285154E+03 -0.54437303923E+02  0.11250591945E+04  0.11462079285E+04  0.17300000000E+03 0. -1.
<mgrwt>
<rscale>  2 0.21916757E+03</rscale>
<asrwt>0</asrwt>
<pdfrwt beam="1">  1       21 0.26739573E+00 0.21916757E+03</pdfrwt>
<pdfrwt beam="2">  1       21 0.46934900E-02 0.21916757E+03</pdfrwt>
<totfact> 0.15384455E+04</totfact>
</mgrwt>
</event>
<event>
 4    1  0.4043938E+000  0.2488852E+03  0.7546771E-02  0.1114011E+00
         21   -1    0    0  501  502  0.00000000000E+00  0.00000000000E+00  0.54167142674E+02  0.54167142674E+02  0.00000000000E+00 0.  1.
         21   -1    0    0  502  503 -0.00000000000E+00 -0.00000000000E+00 -0.16029740625E+04  0.16029740625E+04  0.00000000000E+00 0. -1.
          6    1    1    2  501    0  0.17498597020E+03  0.37346564572E+02 -0.33083133680E+03  0.41399665344E+03  0.17300000000E+03 0.  1.
         -6    1    1    2    0  503 -0.17498597020E+03 -0.37346564572E+02 -0.12179755830E+04  0.12431445517E+04  0.17300000000E+03 0. -1.
<mgrwt>
<rscale>  2 0.24888523E+03</rscale>
<asrwt>0</asrwt>
<pdfrwt beam="1">  1       21 0.83334079E-02 0.24888523E+03</pdfrwt>
<pdfrwt beam="2">  1       21 0.24661136E+00 0.24888523E+03</pdfrwt>
<totfact> 0.74065814E+03</totfact>
</mgrwt>
</event>
<event>
 4    1  0.4043938E+000  0.2791340E+03  0.7546771E-02  0.1096163E+00
         21   -1    0    0  501  502  0.00000000000E+00  0.00000000000E+00  0.54857276884E+03  0.54857276884E+03  0.00000000000E+00 0.  1.
         21   -1    0    0  502  503 -0.00000000000E+00 -0.00000000000E+00 -0.33605275909E+03  0.33605275909E+03  0.00000000000E+00 0. -1.
          6    1    1    2  501    0 -0.69181842597E+01  0.21894959514E+03  0.44234413454E+03  0.52305269319E+03  0.17300000000E+03 0.  1.
         -6    1    1    2    0  503  0.69181842597E+01 -0.21894959514E+03 -0.22982412479E+03  0.36157283474E+03  0.17300000000E+03 0. -1.
<mgrwt>
<rscale>  2 0.27913399E+03</rscale>
<asrwt>0</asrwt>
<pdfrwt beam="1">  1       21 0.84395810E-01 0.27913399E+03</pdfrwt>
<pdfrwt beam="2">  1       21 0.51700425E-01 0.27913399E+03</pdfrwt>
<totfact> 0.40784763E+03</totfact>
</mgrwt>
</event>
<event>
 4    1  0.4043938E+000  0.1928389E+03  0.7546771E-02  0.1155925E+00
         21   -1    0    0  501  502  0.00000000000E+00  0.00000000000E+00  0.44899597745E+03  0.44899597745E+03  0.00000000000E+00 0. -1.
         21   -1    0    0  502  503 -0.00000000000E+00 -0.00000000000E+00 -0.83228950387E+02  0.83228950387E+02  0.00000000000E+00 0. -1.
          6    1    1    2  501    0  0.73556661988E+02  0.42979843248E+02  0.20148614533E+03  0.27889696343E+03  0.17300000000E+03 0. -1.
         -6    1    1    2    0  503 -0.73556661988E+02 -0.42979843248E+02  0.16428088173E+03  0.25332796440E+03  0.17300000000E+03 0. -1.
<mgrwt>
<rscale>  2 0.19283892E+03</rscale>
<asrwt>0</asrwt>
<pdfrwt beam="1">  1       21 0.69076303E-01 0.19283892E+03</pdfrwt>
<pdfrwt beam="2">  1       21 0.12804454E-01 0.19283892E+03</pdfrwt>
<totfact> 0.99661044E+04</totfact>
</mgrwt>
</event>
<event>
 4    1  0.4043938E+000  0.1783009E+03  0.7546771E-02  0.1169458E+00
         21   -1    0    0  503  502  0.00000000000E+00  0.00000000000E+00  0.50252475323E+03  0.50252475323E+03  0.00000000000E+00 0.  1.
         21   -1    0    0  501  503 -0.00000000000E+00 -0.00000000000E+00 -0.12248122174E+03  0.12248122174E+03  0.00000000000E+00 0.  1.
          6    1    1    2  501    0 -0.39790911261E+02 -0.16699617354E+02 -0.27272024681E+02  0.18037449146E+03  0.17300000000E+03 0.  1.
         -6    1    1    2    0  502  0.39790911261E+02  0.16699617354E+02  0.40731555616E+03  0.44463148351E+03  0.17300000000E+03 0.  1.
<mgrwt>
<rscale>  2 0.17830085E+03</rscale>
<asrwt>0</asrwt>
<pdfrwt beam="1">  1       21 0.77311500E-01 0.17830085E+03</pdfrwt>
<pdfrwt beam="2">  1       21 0.18843265E-01 0.17830085E+03</pdfrwt>
<totfact> 0.38599309E+04</totfact>
</mgrwt>
</event>
<event>
 4    1  0.4043938E+000  0.1904344E+03  0.7546771E-02  0.1158070E+00
         21   -1    0    0  501  502  0.00000000000E+00  0.00000000000E+00  0.59198455304E+03  0.59198455304E+03  0.00000000000E+00 0. -1.
         21   -1    0    0  502  503 -0.00000000000E+00 -0.00000000000E+00 -0.94185053341E+02  0.94185053341E+02  0.00000000000E+00 0.  1.
          6    1    1    2  501    0  0.27730530059E+02 -0.74614099655E+02  0.45174773387E+03  0.49024612310E+03  0.17300000000E+03 0. -1.
         -6    1    1    2    0  503 -0.27730530059E+02  0.74614099655E+02  0.46051765838E+02  0.19592348328E+03  0.17300000000E+03 0.  1.
<mgrwt>
<rscale>  2 0.19043436E+03</rscale>
<asrwt>0</asrwt>
<pdfrwt beam="1">  1       21 0.91074544E-01 0.19043436E+03</pdfrwt>
<pdfrwt beam="2">  1       21 0.14490009E-01 0.19043436E+03</pdfrwt>
<totfact> 0.42746849E+04</totfact>
</mgrwt>
</event>
<event>
 4    1  0.4043938E+000  0.3504236E+03  0.7546771E-02  0.1062441E+00
         21   -1    0    0  503  502  0.00000000000E+00  0.00000000000E+00  0.55910804850E+03  0.55910804850E+03  0.00000000000E+00 0.  1.
         21   -1    0    0  501  503 -0.00000000000E+00 -0.00000000000E+00 -0.30227587163E+03  0.30227587163E+03  0.00000000000E+00 0. -1.
          6    1    1    2  501    0 -0.30443000510E+03  0.13786264197E+02 -0.96788170896E+02  0.36354454901E+03  0.17300000000E+03 0. -1.
         -6    1    1    2    0  502  0.30443000510E+03 -0.13786264197E+02  0.35362034777E+03  0.49783937113E+03  0.17300000000E+03 0.  1.
<mgrwt>
<rscale>  2 0.35042359E+03</rscale>
<asrwt>0</asrwt>
<pdfrwt beam="1">  1       21 0.86016623E-01 0.35042359E+03</pdfrwt>
<pdfrwt beam="2">  1       21 0.46503980E-01 0.35042359E+03</pdfrwt>
<totfact> 0.47072103E+03</totfact>
</mgrwt>
</event>
<event>
 4    1  0.4043938E+000  0.2649409E+03  0.7546771E-02  0.1104210E+00
         21   -1    0    0  503  502  0.00000000000E+00  0.00000000000E+00  0.10371922408E+03  0.10371922408E+03  0.00000000000E+00 0.  1.
         21   -1    0    0  501  503 -0.00000000000E+00 -0.00000000000E+00 -0.69893971810E+03  0.69893971810E+03  0.00000000000E+00 0.  1.
          6    1    1    2  501    0 -0.12290616164E+03 -0.15861511117E+03 -0.22612815150E+03  0.34832114343E+03  0.17300000000E+03 0.  1.
         -6    1    1    2    0  502  0.12290616164E+03  0.15861511117E+03 -0.36909234252E+03  0.45433779875E+03  0.17300000000E+03 0.  1.
<mgrwt>
<rscale>  2 0.26494090E+03</rscale>
<asrwt>0</asrwt>
<pdfrwt beam="1">  1       21 0.15956803E-01 0.26494090E+03</pdfrwt>
<pdfrwt beam="2">  1       21 0.10752919E+00 0.26494090E+03</pdfrwt>
<totfact> 0.23256996E+04</totfact>
</mgrwt>
</event>
<event>
 4    1  0.4043938E+000  0.1844098E+03  0.7546771E-02  0.1163602E+00
         21   -1    0    0  503  502  0.00000000000E+00  0.00000000000E+00  0.24990289306E+02  0.24990289306E+02  0.00000000000E+00 0.  1.
         21   -1    0    0  501  503 -0.00000000000E+00 -0.00000000000E+00 -0.13613656688E+04  0.13613656688E+04  0.00000000000E+00 0.  1.
          6    1    1    2  501    0 -0.45060909760E+02 -0.45249152631E+02 -0.65415093144E+03  0.67964727065E+03  0.17300000000E+03 0.  1.
         -6    1    1    2    0  502  0.45060909760E+02  0.45249152631E+02 -0.68222444810E+03  0.70670868750E+03  0.17300000000E+03 0.  1.
<mgrwt>
<rscale>  2 0.18440979E+03</rscale>
<asrwt>0</asrwt>
<pdfrwt beam="1">  1       21 0.38446591E-02 0.18440979E+03</pdfrwt>
<pdfrwt beam="2">  1       21 0.20944092E+00 0.18440979E+03</pdfrwt>
<totfact> 0.49257860E+04</totfact>
</mgrwt>
</event>
<event>
 4    1  0.4043938E+000  0.2222866E+03  0.7546771E-02  0.1132190E+00
         21   -1    0    0  501  502  0.00000000000E+00  0.00000000000E+00  0.84749389111E+03  0.84749389111E+03  0.00000000000E+00 0.  1.
         21   -1    0    0  502  503 -0.00000000000E+00 -0.00000000000E+00 -0.66926381207E+02  0.66926381207E+02  0.00000000000E+00 0. -1.
          6    1    1    2  501    0  0.13532115627E+03  0.34212589524E+02  0.55440300664E+03  0.59730562562E+03  0.17300000000E+03 0.  1.
         -6    1    1    2    0  503 -0.13532115627E+03 -0.34212589524E+02  0.22616450325E+03  0.31711464670E+03  0.17300000000E+03 0. -1.
<mgrwt>
<rscale>  2 0.22228656E+03</rscale>
<asrwt>0</asrwt>
<pdfrwt beam="1">  1       21 0.13038367E+00 0.22228656E+03</pdfrwt>
<pdfrwt beam="2">  1       21 0.10296367E-01 0.22228656E+03</pdfrwt>
<totfact> 0.32506784E+04</totfact>
</mgrwt>
</event>
<event>
 4    1  0.4043938E+000  0.1890960E+03  0.7546771E-02  0.1159279E+00
         21   -1    0    0  501  502  0.00000000000E+00  0.00000000000E+00  0.42021459242E+03  0.42021459242E+03  0.00000000000E+00 0.  1.
         21   -1    0    0  502  503 -0.00000000000E+00 -0.00000000000E+00 -0.93194034642E+02  0.93194034642E+02  0.00000000000E+00 0. -1.
          6    1    1    2  501    0  0.76303844338E+02  0.24574944122E+01  0.23919524713E+03  0.30491258123E+03  0.17300000000E+03 0.  1.
         -6    1    1    2    0  503 -0.76303844338E+02 -0.24574944122E+01  0.87825310647E+02  0.20849604584E+03  0.17300000000E+03 0. -1.
<mgrwt>
<rscale>  2 0.18909605E+03</rscale>
<asrwt>0</asrwt>
<pdfrwt beam="1">  1       21 0.64648398E-01 0.18909605E+03</pdfrwt>
<pdfrwt beam="2">  1       21 0.14337544E-01 0.18909605E+03</pdfrwt>
<totfact> 0.94047372E+04</totfact>
</mgrwt>
</event>
<event>
 4    1  0.4043938E+000  0.1749632E+03  0.7546771E-02  0.1172769E+00
         21   -1    0    0  501  502  0.00000000000E+00  0.00000000000E+00  0.20826295523E+03  0.20826295523E+03  0.00000000000E+00 0. -1.
         21   -1    0    0  502  503 -0.00000000000E+00 -0.00000000000E+00 -0.14845102184E+03  0.14845102184E+03  0.00000000000E+00 0. -1.
          6    1    1    2  501    0 -0.25111095240E+02  0.72495884563E+01  0.47613027502E+02  0.18132601585E+03  0.17300000000E+03 0. -1.
         -6    1    1    2    0  503  0.25111095240E+02 -0.72495884563E+01  0.12198905886E+02  0.17538796122E+03  0.17300000000E+03 0. -1.
<mgrwt>
<rscale>  2 0.17496321E+03</rscale>
<asrwt>0</asrwt>
<pdfrwt beam="1">  1       21 0.32040455E-01 0.17496321E+03</pdfrwt>
<pdfrwt beam="2">  1       21 0.22838619E-01 0.17496321E+03</pdfrwt>
<totfact> 0.16943463E+05</totfact>
</mgrwt>
</event>
<event>
 4    1  0.4043938E+000  0.2019368E+03  0.7546771E-02  0.1148115E+00
         21   -1    0    0  501  502  0.00000000000E+00  0.00000000000E+00  0.66790930663E+03  0.66790930663E+03  0.00000000000E+00 0.  1.
         21   -1    0    0  502  503 -0.00000000000E+00 -0.00000000000E+00 -0.93289466219E+02  0.93289466219E+02  0.00000000000E+00 0.  1.
          6    1    1    2  501    0 -0.10084762569E+03  0.26062216974E+02  0.51103737529E+03  0.54948856376E+03  0.17300000000E+03 0.  1.
         -6    1    1    2    0  503  0.10084762569E+03 -0.26062216974E+02  0.63582465119E+02  0.21171020909E+03  0.17300000000E+03 0.  1.
<mgrwt>
<rscale>  2 0.20193683E+03</rscale>
<asrwt>0</asrwt>
<pdfrwt beam="1">  1       21 0.10275527E+00 0.20193683E+03</pdfrwt>
<pdfrwt beam="2">  1       21 0.14352226E-01 0.20193683E+03</pdfrwt>
<totfact> 0.32534179E+04</totfact>
</mgrwt>
</event>
<event>
 4    1  0.4043938E+000  0.1948233E+03  0.7546771E-02  0.1154182E+00
         21   -1    0    0  503  502  0.00000000000E+00  0.00000000000E+00  0.18577330375E+03  0.18577330375E+03  0.00000000000E+00 0. -1.
         21   -1    0    0  501  503 -0.00000000000E+00 -0.00000000000E+00 -0.29743239325E+03  0.29743239325E+03  0.00000000000E+00 0. -1.
          6    1    1    2  501    0 -0.43834298560E+02 -0.78138873246E+02 -0.19101349140E+03  0.27284113168E+03  0.17300000000E+03 0. -1.
         -6    1    1    2    0  502  0.43834298560E+02  0.78138873246E+02  0.79354401897E+02  0.21036456532E+03  0.17300000000E+03 0. -1.
<mgrwt>
<rscale>  2 0.19482333E+03</rscale>
<asrwt>0</asrwt>
<pdfrwt beam="1">  1       21 0.28580508E-01 0.19482333E+03</pdfrwt>
<pdfrwt beam="2">  1       21 0.45758830E-01 0.19482333E+03</pdfrwt>
<totfact> 0.53556286E+04</totfact>
</mgrwt>
</event>
<event>
 4    1  0.4043938E+000  0.2247418E+03  0.7546771E-02  0.1130396E+00
         21   -1    0    0  503  502  0.00000000000E+00  0.00000000000E+00  0.23309414711E+03  0.23309414711E+03  0.00000000000E+00 0.  1.
         21   -1    0    0  501  503 -0.00000000000E+00 -0.00000000000E+00 -0.22067579106E+03  0.22067579106E+03  0.00000000000E+00 0. -1.
          6    1    1    2  501    0 -0.51149179154E+02 -0.13402845722E+03  0.36706161654E+02  0.22771958233E+03  0.17300000000E+03 0.  1.
         -6    1    1    2    0  502  0.51149179154E+02  0.13402845722E+03 -0.24287805606E+02  0.22605035584E+03  0.17300000000E+03 0. -1.
<mgrwt>
<rscale>  2 0.22474178E+03</rscale>
<asrwt>0</asrwt>
<pdfrwt beam="1">  1       21 0.35860638E-01 0.22474178E+03</pdfrwt>
<pdfrwt beam="2">  1       21 0.33950122E-01 0.22474178E+03</pdfrwt>
<totfact> 0.61792060E+04</totfact>
</mgrwt>
</event>
<event>
 4    1  0.4043938E+000  0.1832781E+03  0.7546771E-02  0.1164668E+00
         21   -1    0    0  501  502  0.00000000000E+00  0.00000000000E+00  0.29285908984E+03  0.29285908984E+03  0.00000000000E+00 0. -1.
         21   -1    0    0  502  503 -0.00000000000E+00 -0.00000000000E+00 -0.19213027528E+03  0.19213027528E+03  0.00000000000E+00 0. -1.
          6    1    1    2  501    0  0.57145606495E+02  0.19905680348E+02  0.20430760236E+03  0.27446758066E+03  0.17300000000E+03 0. -1.
         -6    1    1    2    0  503 -0.57145606495E+02 -0.19905680348E+02 -0.10357878779E+03  0.21052178446E+03  0.17300000000E+03 0. -1.
<mgrwt>
<rscale>  2 0.18327809E+03</rscale>
<asrwt>0</asrwt>
<pdfrwt beam="1">  1       21 0.45055245E-01 0.18327809E+03</pdfrwt>
<pdfrwt beam="2">  1       21 0.29558504E-01 0.18327809E+03</pdfrwt>
<totfact> 0.52069628E+04</totfact>
</mgrwt>
</event>
<event>
 4    1  0.4043938E+000  0.1831671E+03  0.7546771E-02  0.1164773E+00
         21   -1    0    0  503  502  0.00000000000E+00  0.00000000000E+00  0.95289186967E+02  0.95289186967E+02  0.00000000000E+00 0.  1.
         21   -1    0    0  501  503 -0.00000000000E+00 -0.00000000000E+00 -0.36444860617E+03  0.36444860617E+03  0.00000000000E+00 0. -1.
          6    1    1    2  501    0  0.36168417725E+02  0.48094140072E+02 -0.17691260633E+03  0.25465323683E+03  0.17300000000E+03 0. -1.
         -6    1    1    2    0  502 -0.36168417725E+02 -0.48094140072E+02 -0.92246812873E+02  0.20508455631E+03  0.17300000000E+03 0.  1.
<mgrwt>
<rscale>  2 0.18316714E+03</rscale>
<asrwt>0</asrwt>
<pdfrwt beam="1">  1       21 0.14659875E-01 0.18316714E+03</pdfrwt>
<pdfrwt beam="2">  1       21 0.56069017E-01 0.18316714E+03</pdfrwt>
<totfact> 0.12288553E+05</totfact>
</mgrwt>
</event>
<event>
 4    1  0.4043938E+000  0.1798618E+03  0.7546771E-02  0.1167937E+00
         21   -1    0    0  503  502  0.00000000000E+00  0.00000000000E+00  0.28529740436E+03  0.28529740436E+03  0.00000000000E+00 0.  1.
         21   -1    0    0  501  503 -0.00000000000E+00 -0.00000000000E+00 -0.12140429867E+03  0.12140429867E+03  0.00000000000E+00 0.  1.
          6    1    1    2  501    0 -0.25626645034E+02  0.42006615621E+02  0.29704170637E+02  0.18229815810E+03  0.17300000000E+03 0.  1.
         -6    1    1    2    0  502  0.25626645034E+02 -0.42006615621E+02  0.13418893505E+03  0.22440354494E+03  0.17300000000E+03 0.  1.
<mgrwt>
<rscale>  2 0.17986184E+03</rscale>
<asrwt>0</asrwt>
<pdfrwt beam="1">  1       21 0.43891908E-01 0.17986184E+03</pdfrwt>
<pdfrwt beam="2">  1       21 0.18677584E-01 0.17986184E+03</pdfrwt>
<totfact> 0.13132801E+05</totfact>
</mgrwt>
</event>
<event>
 4    1  0.4043938E+000  0.1874556E+03  0.7546771E-02  0.1160776E+00
         21   -1    0    0  501  502  0.00000000000E+00  0.00000000000E+00  0.16423969025E+03  0.16423969025E+03  0.00000000000E+00 0. -1.
         21   -1    0    0  502  503 -0.00000000000E+00 -0.00000000000E+00 -0.33944880952E+03  0.33944880952E+03  0.00000000000E+00 0. -1.
          6    1    1    2  501    0 -0.38643227280E+02  0.60969674214E+02  0.65525071202E+02  0.19857778109E+03  0.17300000000E+03 0. -1.
         -6    1    1    2    0  503  0.38643227280E+02 -0.60969674214E+02 -0.24073419047E+03  0.30511071868E+03  0.17300000000E+03 0. -1.
<mgrwt>
<rscale>  2 0.18745560E+03</rscale>
<asrwt>0</asrwt>
<pdfrwt beam="1">  1       21 0.25267645E-01 0.18745560E+03</pdfrwt>
<pdfrwt beam="2">  1       21 0.52222893E-01 0.18745560E+03</pdfrwt>
<totfact> 0.51759583E+04</totfact>
</mgrwt>
</event>
<event>
 4    1  0.4043938E+000  0.1937217E+03  0.7546771E-02  0.1155147E+00
         21   -1    0    0  501  502  0.00000000000E+00  0.00000000000E+00  0.23970163465E+03  0.23970163465E+03  0.00000000000E+00 0. -1.
         21   -1    0    0  502  503 -0.00000000000E+00 -0.00000000000E+00 -0.16073269110E+03  0.16073269110E+03  0.00000000000E+00 0. -1.
          6    1    1    2  501    0  0.24196036303E+02 -0.83747529029E+02  0.72315898159E+01  0.19385662919E+03  0.17300000000E+03 0. -1.
         -6    1    1    2    0  503 -0.24196036303E+02  0.83747529029E+02  0.71737353734E+02  0.20657769655E+03  0.17300000000E+03 0. -1.
<mgrwt>
<rscale>  2 0.19372170E+03</rscale>
<asrwt>0</asrwt>
<pdfrwt beam="1">  1       21 0.36877174E-01 0.19372170E+03</pdfrwt>
<pdfrwt beam="2">  1       21 0.24728106E-01 0.19372170E+03</pdfrwt>
<totfact> 0.10964518E+05</totfact>
</mgrwt>
</event>
<event>
 4    1  0.4043938E+000  0.1979707E+03  0.7546771E-02  0.1151463E+00
         21   -1    0    0  503  502  0.00000000000E+00  0.00000000000E+00  0.41234010251E+02  0.41234010251E+02  0.00000000000E+00 0. -1.
         21   -1    0    0  501  503 -0.00000000000E+00 -0.00000000000E+00 -0.14175513529E+04  0.14175513529E+04  0.00000000000E+00 0. -1.
          6    1    1    2  501    0 -0.78119417675E+02 -0.56220514420E+02 -0.11068368961E+04  0.11244021986E+04  0.17300000000E+03 0. -1.
         -6    1    1    2    0  502  0.78119417675E+02  0.56220514420E+02 -0.26948044655E+03  0.33438316454E+03  0.17300000000E+03 0. -1.
<mgrwt>
<rscale>  2 0.19797068E+03</rscale>
<asrwt>0</asrwt>
<pdfrwt beam="1">  1       21 0.63436951E-02 0.19797068E+03</pdfrwt>
<pdfrwt beam="2">  1       21 0.21808478E+00 0.19797068E+03</pdfrwt>
<totfact> 0.18445043E+04</totfact>
</mgrwt>
</event>
<event>
 4    1  0.4043938E+000  0.1856341E+03  0.7546771E-02  0.1162459E+00
         21   -1    0    0  503  502  0.00000000000E+00  0.00000000000E+00  0.94422616798E+02  0.94422616798E+02  0.00000000000E+00 0. -1.
         21   -1    0    0  501  503 -0.00000000000E+00 -0.00000000000E+00 -0.48950616042E+03  0.48950616042E+03  0.00000000000E+00 0. -1.
          6    1    1    2  501    0 -0.47120279884E+02  0.48069689287E+02 -0.34481523933E+03  0.39160894407E+03  0.17300000000E+03 0. -1.
         -6    1    1    2    0  502  0.47120279884E+02 -0.48069689287E+02 -0.50268304293E+02  0.19231983315E+03  0.17300000000E+03 0. -1.
<mgrwt>
<rscale>  2 0.18563409E+03</rscale>
<asrwt>0</asrwt>
<pdfrwt beam="1">  1       21 0.14526556E-01 0.18563409E+03</pdfrwt>
<pdfrwt beam="2">  1       21 0.75308640E-01 0.18563409E+03</pdfrwt>
<totfact> 0.65716125E+04</totfact>
</mgrwt>
</event>
<event>
 4    1  0.4043938E+000  0.1969217E+03  0.7546771E-02  0.1152362E+00
         21   -1    0    0  501  502  0.00000000000E+00  0.00000000000E+00  0.96201707712E+02  0.96201707712E+02  0.00000000000E+00 0.  1.
         21   -1    0    0  502  503 -0.00000000000E+00 -0.00000000000E+00 -0.44601262869E+03  0.44601262869E+03  0.00000000000E+00 0.  1.
          6    1    1    2  501    0 -0.87938539644E+02  0.33406193526E+02 -0.90804817530E+02  0.21684943027E+03  0.17300000000E+03 0.  1.
         -6    1    1    2    0  503  0.87938539644E+02 -0.33406193526E+02 -0.25900610345E+03  0.32536490614E+03  0.17300000000E+03 0.  1.
<mgrwt>
<rscale>  2 0.19692171E+03</rscale>
<asrwt>0</asrwt>
<pdfrwt beam="1">  1       21 0.14800262E-01 0.19692171E+03</pdfrwt>
<pdfrwt beam="2">  1       21 0.68617329E-01 0.19692171E+03</pdfrwt>
<totfact> 0.77679810E+04</totfact>
</mgrwt>
</event>
<event>
 4    1  0.4043938E+000  0.1938196E+03  0.7546771E-02  0.1155061E+00
         21   -1    0    0  503  502  0.00000000000E+00  0.00000000000E+00  0.38838416520E+03  0.38838416520E+03  0.00000000000E+00 0.  1.
         21   -1    0    0  501  503 -0.00000000000E+00 -0.00000000000E+00 -0.99204745534E+02  0.99204745534E+02  0.00000000000E+00 0. -1.
          6    1    1    2  501    0  0.36485005721E+02  0.79409643458E+02  0.10603709267E+03  0.22092965428E+03  0.17300000000E+03 0. -1.
         -6    1    1    2    0  502 -0.36485005721E+02 -0.79409643458E+02  0.18314232699E+03  0.26665925645E+03  0.17300000000E+03 0. -1.
<mgrwt>
<rscale>  2 0.19381963E+03</rscale>
<asrwt>0</asrwt>
<pdfrwt beam="1">  1       21 0.59751409E-01 0.19381963E+03</pdfrwt>
<pdfrwt beam="2">  1       21 0.15262269E-01 0.19381963E+03</pdfrwt>
<totfact> 0.99328892E+04</totfact>
</mgrwt>
</event>
<event>
 4    1  0.4043938E+000  0.2319113E+03  0.7546771E-02  0.1125302E+00
         21   -1    0    0  503  502  0.00000000000E+00  0.00000000000E+00  0.47120545218E+03  0.47120545218E+03  0.00000000000E+00 0.  1.
         21   -1    0    0  501  503 -0.00000000000E+00 -0.00000000000E+00 -0.15497924365E+03  0.15497924365E+03  0.00000000000E+00 0.  1.
          6    1    1    2  501    0 -0.49142594365E+02  0.14642014243E+03 -0.26108454835E+01  0.23192599941E+03  0.17300000000E+03 0.  1.
         -6    1    1    2    0  502  0.49142594365E+02 -0.14642014243E+03  0.31883705401E+03  0.39425869642E+03  0.17300000000E+03 0.  1.
<mgrwt>
<rscale>  2 0.23191130E+03</rscale>
<asrwt>0</asrwt>
<pdfrwt beam="1">  1       21 0.72493146E-01 0.23191130E+03</pdfrwt>
<pdfrwt beam="2">  1       21 0.23842961E-01 0.23191130E+03</pdfrwt>
<totfact> 0.27836852E+04</totfact>
</mgrwt>
</event>
<event>
 4    1  0.4043938E+000  0.1897456E+03  0.7546771E-02  0.1158691E+00
         21   -1    0    0  501  502  0.00000000000E+00  0.00000000000E+00  0.84312813086E+03  0.84312813086E+03  0.00000000000E+00 0.  1.
         21   -1    0    0  502  503 -0.00000000000E+00 -0.00000000000E+00 -0.84275203618E+02  0.84275203618E+02  0.00000000000E+00 0.  1.
          6    1    1    2  501    0 -0.56980739657E+02  0.53175190309E+02  0.70510908186E+03  0.73019327775E+03  0.17300000000E+03 0. -1.
         -6    1    1    2    0  503  0.56980739657E+02 -0.53175190309E+02  0.53743845381E+02  0.19721005672E+03  0.17300000000E+03 0. -1.
<mgrwt>
<rscale>  2 0.18974563E+03</rscale>
<asrwt>0</asrwt>
<pdfrwt beam="1">  1       21 0.12971201E+00 0.18974563E+03</pdfrwt>
<pdfrwt beam="2">  1       21 0.12965416E-01 0.18974563E+03</pdfrwt>
<totfact> 0.22242287E+04</totfact>
</mgrwt>
</event>
<event>
 4    1  0.4043938E+000  0.1927878E+03  0.7546771E-02  0.1155971E+00
         21   -1    0    0  501  502  0.00000000000E+00  0.00000000000E+00  0.15613619215E+03  0.15613619215E+03  0.00000000000E+00 0.  1.
         21   -1    0    0  502  503 -0.00000000000E+00 -0.00000000000E+00 -0.27133697858E+03  0.27133697858E+03  0.00000000000E+00 0.  1.
          6    1    1    2  501    0  0.77992871023E+02 -0.33988959888E+02  0.17269431390E+02  0.19355973389E+03  0.17300000000E+03 0.  1.
         -6    1    1    2    0  503 -0.77992871023E+02  0.33988959888E+02 -0.13247021782E+03  0.23391343684E+03  0.17300000000E+03 0.  1.
<mgrwt>
<rscale>  2 0.19278780E+03</rscale>
<asrwt>0</asrwt>
<pdfrwt beam="1">  1       21 0.24020953E-01 0.19278780E+03</pdfrwt>
<pdfrwt beam="2">  1       21 0.41744150E-01 0.19278780E+03</pdfrwt>
<totfact> 0.90296173E+04</totfact>
</mgrwt>
</event>
<event>
 4    1  0.4043938E+000  0.2179146E+03  0.7546771E-02  0.1135447E+00
         21   -1    0    0  503  502  0.00000000000E+00  0.00000000000E+00  0.32237279350E+03  0.32237279350E+03  0.00000000000E+00 0.  1.
         21   -1    0    0  501  503 -0.00000000000E+00 -0.00000000000E+00 -0.14731355118E+03  0.14731355118E+03  0.00000000000E+00 0.  1.
          6    1    1    2  501    0 -0.72160110710E+02  0.11113367529E+03  0.89428747825E+02  0.23555100572E+03  0.17300000000E+03 0.  1.
         -6    1    1    2    0  502  0.72160110710E+02 -0.11113367529E+03  0.85630494491E+02  0.23413533895E+03  0.17300000000E+03 0.  1.
<mgrwt>
<rscale>  2 0.21791461E+03</rscale>
<asrwt>0</asrwt>
<pdfrwt beam="1">  1       21 0.49595814E-01 0.21791461E+03</pdfrwt>
<pdfrwt beam="2">  1       21 0.22663623E-01 0.21791461E+03</pdfrwt>
<totfact> 0.69949604E+04</totfact>
</mgrwt>
</event>
<event>
 4    1  0.4043938E+000  0.1731599E+03  0.7546771E-02  0.1174592E+00
         21   -1    0    0  503  502  0.00000000000E+00  0.00000000000E+00  0.16536236830E+04  0.16536236830E+04  0.00000000000E+00 0. -1.
         21   -1    0    0  501  503 -0.00000000000E+00 -0.00000000000E+00 -0.19096396219E+02  0.19096396219E+02  0.00000000000E+00 0. -1.
          6    1    1    2  501    0 -0.73598267017E+01 -0.10932845071E+01  0.62936290082E+03  0.65274958694E+03  0.17300000000E+03 0.  1.
         -6    1    1    2    0  502  0.73598267017E+01  0.10932845071E+01  0.10051643860E+04  0.10199704923E+04  0.17300000000E+03 0.  1.
<mgrwt>
<rscale>  2 0.17315993E+03</rscale>
<asrwt>0</asrwt>
<pdfrwt beam="1">  1       21 0.25440353E+00 0.17315993E+03</pdfrwt>
<pdfrwt beam="2">  1       21 0.29379084E-02 0.17315993E+03</pdfrwt>
<totfact> 0.41707517E+04</totfact>
</mgrwt>
</event>
<event>
 4    1  0.4043938E+000  0.2898759E+03  0.7546771E-02  0.1090414E+00
         21   -1    0    0  501  502  0.00000000000E+00  0.00000000000E+00  0.20235949784E+03  0.20235949784E+03  0.00000000000E+00 0.  1.
         21   -1    0    0  502  503 -0.00000000000E+00 -0.00000000000E+00 -0.62364266002E+03  0.62364266002E+03  0.00000000000E+00 0.  1.
          6    1    1    2  501    0  0.17815381723E+03 -0.14953339872E+03  0.28103019401E+02  0.29123495605E+03  0.17300000000E+03 0.  1.
         -6    1    1    2    0  503 -0.17815381723E+03  0.14953339872E+03 -0.44938618158E+03  0.53476720180E+03  0.17300000000E+03 0.  1.
<mgrwt>
<rscale>  2 0.28987587E+03</rscale>
<asrwt>0</asrwt>
<pdfrwt beam="1">  1       21 0.31132230E-01 0.28987587E+03</pdfrwt>
<pdfrwt beam="2">  1       21 0.95945026E-01 0.28987587E+03</pdfrwt>
<totfact> 0.84617990E+03</totfact>
</mgrwt>
</event>
<event>
 4    1  0.4043938E+000  0.2528913E+03  0.7546771E-02  0.1111491E+00
         21   -1    0    0  501  502  0.00000000000E+00  0.00000000000E+00  0.45663742484E+03  0.45663742484E+03  0.00000000000E+00 0. -1.
         21   -1    0    0  502  503 -0.00000000000E+00 -0.00000000000E+00 -0.14741509864E+03  0.14741509864E+03  0.00000000000E+00 0. -1.
          6    1    1    2  501    0  0.81168931623E+02  0.16564003356E+03  0.87121478114E+02  0.26747741611E+03  0.17300000000E+03 0. -1.
         -6    1    1    2    0  503 -0.81168931623E+02 -0.16564003356E+03  0.22210084809E+03  0.33657510737E+03  0.17300000000E+03 0. -1.
<mgrwt>
<rscale>  2 0.25289131E+03</rscale>
<asrwt>0</asrwt>
<pdfrwt beam="1">  1       21 0.70251911E-01 0.25289131E+03</pdfrwt>
<pdfrwt beam="2">  1       21 0.22679246E-01 0.25289131E+03</pdfrwt>
<totfact> 0.32523541E+04</totfact>
</mgrwt>
</event>
<event>
 4    1  0.4043938E+000  0.2101393E+03  0.7546771E-02  0.1141456E+00
         21   -1    0    0  503  502  0.00000000000E+00  0.00000000000E+00  0.70453325042E+03  0.70453325042E+03  0.00000000000E+00 0.  1.
         21   -1    0    0  501  503 -0.00000000000E+00 -0.00000000000E+00 -0.94547952081E+02  0.94547952081E+02  0.00000000000E+00 0.  1.
          6    1    1    2  501    0 -0.11658182265E+03 -0.25263028116E+02  0.73024996172E+02  0.22246615928E+03  0.17300000000E+03 0.  1.
         -6    1    1    2    0  502  0.11658182265E+03  0.25263028116E+02  0.53696030217E+03  0.57661504322E+03  0.17300000000E+03 0.  1.
<mgrwt>
<rscale>  2 0.21013934E+03</rscale>
<asrwt>0</asrwt>
<pdfrwt beam="1">  1       21 0.10838973E+00 0.21013934E+03</pdfrwt>
<pdfrwt beam="2">  1       21 0.14545839E-01 0.21013934E+03</pdfrwt>
<totfact> 0.27792118E+04</totfact>
</mgrwt>
</event>
<event>
 4    1  0.4043938E+000  0.1943153E+03  0.7546771E-02  0.1154626E+00
         21   -1    0    0  503  502  0.00000000000E+00  0.00000000000E+00  0.37784533585E+02  0.37784533585E+02  0.00000000000E+00 0. -1.
         21   -1    0    0  501  503 -0.00000000000E+00 -0.00000000000E+00 -0.15303834400E+04  0.15303834400E+04  0.00000000000E+00 0. -1.
          6    1    1    2  501    0 -0.79090508189E+01  0.88129930913E+02 -0.12081909969E+04  0.12237172561E+04  0.17300000000E+03 0. -1.
         -6    1    1    2    0  502  0.79090508189E+01 -0.88129930913E+02 -0.28440790955E+03  0.34445071756E+03  0.17300000000E+03 0. -1.
<mgrwt>
<rscale>  2 0.19431531E+03</rscale>
<asrwt>0</asrwt>
<pdfrwt beam="1">  1       21 0.58130064E-02 0.19431531E+03</pdfrwt>
<pdfrwt beam="2">  1       21 0.23544356E+00 0.19431531E+03</pdfrwt>
<totfact> 0.16858574E+04</totfact>
</mgrwt>
</event>
<event>
 4    1  0.4043938E+000  0.1743213E+03  0.7546771E-02  0.1173415E+00
         21   -1    0    0  503  502  0.00000000000E+00  0.00000000000E+00  0.35449862918E+03  0.35449862918E+03  0.00000000000E+00 0.  1.
         21   -1    0    0  501  503 -0.00000000000E+00 -0.00000000000E+00 -0.89174081156E+02  0.89174081156E+02  0.00000000000E+00 0.  1.
          6    1    1    2  501    0  0.18715350923E+02  0.10423603657E+02  0.89007913169E+02  0.19573023394E+03  0.17300000000E+03 0. -1.
         -6    1    1    2    0  502 -0.18715350923E+02 -0.10423603657E+02  0.17631663486E+03  0.24794247640E+03  0.17300000000E+03 0. -1.
<mgrwt>
<rscale>  2 0.17432130E+03</rscale>
<asrwt>0</asrwt>
<pdfrwt beam="1">  1       21 0.54538250E-01 0.17432130E+03</pdfrwt>
<pdfrwt beam="2">  1       21 0.13719090E-01 0.17432130E+03</pdfrwt>
<totfact> 0.14735820E+05</totfact>
</mgrwt>
</event>
<event>
 4    1  0.4043938E+000  0.2528325E+03  0.7546771E-02  0.1111528E+00
         21   -1    0    0  501  502  0.00000000000E+00  0.00000000000E+00  0.38357561154E+02  0.38357561154E+02  0.00000000000E+00 0. -1.
         21   -1    0    0  502  503 -0.00000000000E+00 -0.00000000000E+00 -0.17310171693E+04  0.17310171693E+04  0.00000000000E+00 0.  1.
          6    1    1    2  501    0  0.55636813087E+02  0.17578349526E+03 -0.67558304855E+03  0.72134370980E+03  0.17300000000E+03 0. -1.
         -6    1    1    2    0  503 -0.55636813087E+02 -0.17578349526E+03 -0.10170765596E+04  0.10480310207E+04  0.17300000000E+03 0.  1.
<mgrwt>
<rscale>  2 0.25283254E+03</rscale>
<asrwt>0</asrwt>
<pdfrwt beam="1">  1       21 0.59011626E-02 0.25283254E+03</pdfrwt>
<pdfrwt beam="2">  1       21 0.26631036E+00 0.25283254E+03</pdfrwt>
<totfact> 0.10277054E+04</totfact>
</mgrwt>
</event>
<event>
 4    1  0.4043938E+000  0.1870514E+03  0.7546771E-02  0.1161148E+00
         21   -1    0    0  501  502  0.00000000000E+00  0.00000000000E+00  0.15152498584E+03  0.15152498584E+03  0.00000000000E+00 0.  1.
         21   -1    0    0  502  503 -0.00000000000E+00 -0.00000000000E+00 -0.24876556925E+03  0.24876556925E+03  0.00000000000E+00 0. -1.
          6    1    1    2  501    0  0.11309065205E+02 -0.70223507366E+02  0.50049232470E+01  0.18711837216E+03  0.17300000000E+03 0. -1.
         -6    1    1    2    0  503 -0.11309065205E+02  0.70223507366E+02 -0.10224550666E+03  0.21317218293E+03  0.17300000000E+03 0.  1.
<mgrwt>
<rscale>  2 0.18705143E+03</rscale>
<asrwt>0</asrwt>
<pdfrwt beam="1">  1       21 0.23311537E-01 0.18705143E+03</pdfrwt>
<pdfrwt beam="2">  1       21 0.38271625E-01 0.18705143E+03</pdfrwt>
<totfact> 0.11414083E+05</totfact>
</mgrwt>
</event>
<event>
 4    1  0.4043938E+000  0.1867851E+03  0.7546771E-02  0.1161393E+00
         21   -1    0    0  501  502  0.00000000000E+00  0.00000000000E+00  0.11968955893E+04  0.11968955893E+04  0.00000000000E+00 0. -1.
         21   -1    0    0  502  503 -0.00000000000E+00 -0.00000000000E+00 -0.81735560237E+02  0.81735560237E+02  0.00000000000E+00 0. -1.
          6    1    1    2  501    0 -0.17619043177E+02 -0.68185269290E+02  0.10703775509E+04  0.10865526968E+04  0.17300000000E+03 0. -1.
         -6    1    1    2    0  503  0.17619043177E+02  0.68185269290E+02  0.44782478186E+02  0.19207845268E+03  0.17300000000E+03 0. -1.
<mgrwt>
<rscale>  2 0.18678507E+03</rscale>
<asrwt>0</asrwt>
<pdfrwt beam="1">  1       21 0.18413777E+00 0.18678507E+03</pdfrwt>
<pdfrwt beam="2">  1       21 0.12574702E-01 0.18678507E+03</pdfrwt>
<totfact> 0.92516387E+03</totfact>
</mgrwt>
</event>
<event>
 4    1  0.4043938E+000  0.1778429E+03  0.7546771E-02  0.1169907E+00
         21   -1    0    0  501  502  0.00000000000E+00  0.00000000000E+00  0.27626129004E+03  0.27626129004E+03  0.00000000000E+00 0.  1.
         21   -1    0    0  502  503 -0.00000000000E+00 -0.00000000000E+00 -0.16010902214E+03  0.16010902214E+03  0.00000000000E+00 0.  1.
          6    1    1    2  501    0  0.29604533159E+02 -0.28682062933E+02  0.17454467900E+03  0.24918654475E+03  0.17300000000E+03 0.  1.
         -6    1    1    2    0  503 -0.29604533159E+02  0.28682062933E+02 -0.58392411095E+02  0.18718376743E+03  0.17300000000E+03 0.  1.
<mgrwt>
<rscale>  2 0.17784288E+03</rscale>
<asrwt>0</asrwt>
<pdfrwt beam="1">  1       21 0.42501737E-01 0.17784288E+03</pdfrwt>
<pdfrwt beam="2">  1       21 0.24632157E-01 0.17784288E+03</pdfrwt>
<totfact> 0.83480094E+04</totfact>
</mgrwt>
</event>
<event>
 4    1  0.4043938E+000  0.2191612E+03  0.7546771E-02  0.1134510E+00
         21   -1    0    0  503  502  0.00000000000E+00  0.00000000000E+00  0.65884696042E+03  0.65884696042E+03  0.00000000000E+00 0. -1.
         21   -1    0    0  501  503 -0.00000000000E+00 -0.00000000000E+00 -0.79588413590E+02  0.79588413590E+02  0.00000000000E+00 0.  1.
          6    1    1    2  501    0 -0.11734835661E+03  0.65818037143E+02  0.39664188953E+03  0.45316270736E+03  0.17300000000E+03 0.  1.
         -6    1    1    2    0  502  0.11734835661E+03 -0.65818037143E+02  0.18261665730E+03  0.28527266665E+03  0.17300000000E+03 0.  1.
<mgrwt>
<rscale>  2 0.21916124E+03</rscale>
<asrwt>0</asrwt>
<pdfrwt beam="1">  1       21 0.10136107E+00 0.21916124E+03</pdfrwt>
<pdfrwt beam="2">  1       21 0.12244372E-01 0.21916124E+03</pdfrwt>
<totfact> 0.44387396E+04</totfact>
</mgrwt>
</event>
<event>
 4    1  0.4043938E+000  0.2379422E+03  0.7546771E-02  0.1121171E+00
         21   -1    0    0  503  502  0.00000000000E+00  0.00000000000E+00  0.83886340334E+03  0.83886340334E+03  0.00000000000E+00 0. -1.
         21   -1    0    0  501  503 -0.00000000000E+00 -0.00000000000E+00 -0.24319782374E+03  0.24319782374E+03  0.00000000000E+00 0. -1.
          6    1    1    2  501    0 -0.44151399151E+01 -0.16330334322E+03 -0.16203735268E+03  0.28787597856E+03  0.17300000000E+03 0. -1.
         -6    1    1    2    0  502  0.44151399151E+01  0.16330334322E+03  0.75770293228E+03  0.79418524852E+03  0.17300000000E+03 0. -1.
<mgrwt>
<rscale>  2 0.23794217E+03</rscale>
<asrwt>0</asrwt>
<pdfrwt beam="1">  1       21 0.12905591E+00 0.23794217E+03</pdfrwt>
<pdfrwt beam="2">  1       21 0.37415050E-01 0.23794217E+03</pdfrwt>
<totfact> 0.29230696E+03</totfact>
</mgrwt>
</event>
<event>
 4    1  0.4043938E+000  0.2406736E+03  0.7546771E-02  0.1119345E+00
         21   -1    0    0  501  502  0.00000000000E+00  0.00000000000E+00  0.23781206839E+03  0.23781206839E+03  0.00000000000E+00 0.  1.
         21   -1    0    0  502  503 -0.00000000000E+00 -0.00000000000E+00 -0.36118700597E+03  0.36118700597E+03  0.00000000000E+00 0. -1.
          6    1    1    2  501    0  0.79935976119E+02  0.14698638709E+03  0.10922200790E+03  0.26429756956E+03  0.17300000000E+03 0.  1.
         -6    1    1    2    0  503 -0.79935976119E+02 -0.14698638709E+03 -0.23259694549E+03  0.33470150480E+03  0.17300000000E+03 0. -1.
<mgrwt>
<rscale>  2 0.24067355E+03</rscale>
<asrwt>0</asrwt>
<pdfrwt beam="1">  1       21 0.36586472E-01 0.24067355E+03</pdfrwt>
<pdfrwt beam="2">  1       21 0.55567232E-01 0.24067355E+03</pdfrwt>
<totfact> 0.21417724E+04</totfact>
</mgrwt>
</event>
<event>
 4    1  0.4043938E+000  0.2060279E+03  0.7546771E-02  0.1144751E+00
         21   -1    0    0  503  502  0.00000000000E+00  0.00000000000E+00  0.21753685267E+03  0.21753685267E+03  0.00000000000E+00 0. -1.
         21   -1    0    0  501  503 -0.00000000000E+00 -0.00000000000E+00 -0.21448032148E+03  0.21448032148E+03  0.00000000000E+00 0.  1.
          6    1    1    2  501    0  0.97461064426E+01  0.11146085295E+03 -0.63356836735E+02  0.21554952352E+03  0.17300000000E+03 0.  1.
         -6    1    1    2    0  502 -0.97461064426E+01 -0.11146085295E+03  0.66413367920E+02  0.21646765063E+03  0.17300000000E+03 0. -1.
<mgrwt>
<rscale>  2 0.20602793E+03</rscale>
<asrwt>0</asrwt>
<pdfrwt beam="1">  1       21 0.33467208E-01 0.20602793E+03</pdfrwt>
<pdfrwt beam="2">  1       21 0.32996972E-01 0.20602793E+03</pdfrwt>
<totfact> 0.75590938E+04</totfact>
</mgrwt>
</event>
<event>
 4    1  0.4043938E+000  0.2466616E+03  0.7546771E-02  0.1115433E+00
         21   -1    0    0  501  502  0.00000000000E+00  0.00000000000E+00  0.43052760603E+03  0.43052760603E+03  0.00000000000E+00 0.  1.
         21   -1    0    0  502  503 -0.00000000000E+00 -0.00000000000E+00 -0.23887287724E+03  0.23887287724E+03  0.00000000000E+00 0.  1.
          6    1    1    2  501    0 -0.16791810256E+02 -0.17501702877E+03  0.30971903248E+03  0.39593914221E+03  0.17300000000E+03 0.  1.
         -6    1    1    2    0  503  0.16791810256E+02  0.17501702877E+03 -0.11806430368E+03  0.27346134106E+03  0.17300000000E+03 0.  1.
<mgrwt>
<rscale>  2 0.24666156E+03</rscale>
<asrwt>0</asrwt>
<pdfrwt beam="1">  1       21 0.66235016E-01 0.24666156E+03</pdfrwt>
<pdfrwt beam="2">  1       21 0.36749673E-01 0.24666156E+03</pdfrwt>
<totfact> 0.14471788E+04</totfact>
</mgrwt>
</event>
<event>
 4    1  0.4043938E+000  0.1756707E+03  0.7546771E-02  0.1172060E+00
         21   -1    0    0  503  502  0.00000000000E+00  0.00000000000E+00  0.64252151403E+02  0.64252151403E+02  0.00000000000E+00 0. -1.
         21   -1    0    0  501  503 -0.00000000000E+00 -0.00000000000E+00 -0.72319361441E+03  0.72319361441E+03  0.00000000000E+00 0. -1.
          6    1    1    2  501    0 -0.52355645021E+01 -0.30062759250E+02 -0.55764842743E+03  0.58466396267E+03  0.17300000000E+03 0. -1.
         -6    1    1    2    0  502  0.52355645021E+01  0.30062759250E+02 -0.10129303558E+03  0.20278180314E+03  0.17300000000E+03 0. -1.
<mgrwt>
<rscale>  2 0.17567066E+03</rscale>
<asrwt>0</asrwt>
<pdfrwt beam="1">  1       21 0.98849466E-02 0.17567066E+03</pdfrwt>
<pdfrwt beam="2">  1       21 0.11126055E+00 0.17567066E+03</pdfrwt>
<totfact> 0.53073134E+04</totfact>
</mgrwt>
</event>
<event>
 4    1  0.4043938E+000  0.2978822E+03  0.7546771E-02  0.1086304E+00
         21   -1    0    0  501  502  0.00000000000E+00  0.00000000000E+00  0.36433698344E+03  0.36433698344E+03  0.00000000000E+00 0.  1.
         21   -1    0    0  502  503 -0.00000000000E+00 -0.00000000000E+00 -0.27600977192E+03  0.27600977192E+03  0.00000000000E+00 0. -1.
          6    1    1    2  501    0  0.23938805568E+03 -0.38706230583E+02  0.15396406208E+03  0.33531887197E+03  0.17300000000E+03 0.  1.
         -6    1    1    2    0  503 -0.23938805568E+03  0.38706230583E+02 -0.65636850564E+02  0.30502788338E+03  0.17300000000E+03 0. -1.
<mgrwt>
<rscale>  2 0.29788221E+03</rscale>
<asrwt>0</asrwt>
<pdfrwt beam="1">  1       21 0.56051843E-01 0.29788221E+03</pdfrwt>
<pdfrwt beam="2">  1       21 0.42463042E-01 0.29788221E+03</pdfrwt>
<totfact> 0.15132866E+04</totfact>
</mgrwt>
</event>
<event>
 4    1  0.4043938E+000  0.1837107E+03  0.7546771E-02  0.1164259E+00
         21   -1    0    0  501  502  0.00000000000E+00  0.00000000000E+00  0.83813741481E+02  0.83813741481E+02  0.00000000000E+00 0.  1.
         21   -1    0    0  502  503 -0.00000000000E+00 -0.00000000000E+00 -0.94436684863E+03  0.94436684863E+03  0.00000000000E+00 0.  1.
          6    1    1    2  501    0 -0.53035026458E+02 -0.31747445094E+02 -0.40921701620E+02  0.18821317692E+03  0.17300000000E+03 0.  1.
         -6    1    1    2    0  503  0.53035026458E+02  0.31747445094E+02 -0.81963140553E+03  0.83996741320E+03  0.17300000000E+03 0.  1.
<mgrwt>
<rscale>  2 0.18371068E+03</rscale>
<asrwt>0</asrwt>
<pdfrwt beam="1">  1       21 0.12894421E-01 0.18371068E+03</pdfrwt>
<pdfrwt beam="2">  1       21 0.14528722E+00 0.18371068E+03</pdfrwt>
<totfact> 0.16867015E+04</totfact>
</mgrwt>
</event>
<event>
 4    1  0.4043938E+000  0.2154039E+03  0.7546771E-02  0.1137357E+00
         21   -1    0    0  503  502  0.00000000000E+00  0.00000000000E+00  0.35185411426E+03  0.35185411426E+03  0.00000000000E+00 0.  1.
         21   -1    0    0  501  503 -0.00000000000E+00 -0.00000000000E+00 -0.14224489127E+03  0.14224489127E+03  0.00000000000E+00 0. -1.
          6    1    1    2  501    0 -0.10241089725E+03 -0.77342490306E+02  0.17152618919E+03  0.27535447383E+03  0.17300000000E+03 0. -1.
         -6    1    1    2    0  502  0.10241089725E+03  0.77342490306E+02  0.38083033801E+02  0.21874453169E+03  0.17300000000E+03 0. -1.
<mgrwt>
<rscale>  2 0.21540393E+03</rscale>
<asrwt>0</asrwt>
<pdfrwt beam="1">  1       21 0.54131402E-01 0.21540393E+03</pdfrwt>
<pdfrwt beam="2">  1       21 0.21883829E-01 0.21540393E+03</pdfrwt>
<totfact> 0.62247289E+04</totfact>
</mgrwt>
</event>
<event>
 4    1  0.4043938E+000  0.2065363E+03  0.7546771E-02  0.1144339E+00
         21   -1    0    0  501  502  0.00000000000E+00  0.00000000000E+00  0.56637768397E+03  0.56637768397E+03  0.00000000000E+00 0.  1.
         21   -1    0    0  502  503 -0.00000000000E+00 -0.00000000000E+00 -0.83511752386E+02  0.83511752386E+02  0.00000000000E+00 0.  1.
          6    1    1    2  501    0 -0.11167755460E+03  0.16011192330E+02  0.34322955811E+03  0.40057928558E+03  0.17300000000E+03 0.  1.
         -6    1    1    2    0  503  0.11167755460E+03 -0.16011192330E+02  0.13963637348E+03  0.24931015078E+03  0.17300000000E+03 0.  1.
<mgrwt>
<rscale>  2 0.20653628E+03</rscale>
<asrwt>0</asrwt>
<pdfrwt beam="1">  1       21 0.87135026E-01 0.20653628E+03</pdfrwt>
<pdfrwt beam="2">  1       21 0.12847962E-01 0.20653628E+03</pdfrwt>
<totfact> 0.58377429E+04</totfact>
</mgrwt>
</event>
<event>
 4    1  0.4043938E+000  0.2044712E+03  0.7546771E-02  0.1146021E+00
         21   -1    0    0  503  502  0.00000000000E+00  0.00000000000E+00  0.13595099853E+03  0.13595099853E+03  0.00000000000E+00 0.  1.
         21   -1    0    0  501  503 -0.00000000000E+00 -0.00000000000E+00 -0.31211146031E+03  0.31211146031E+03  0.00000000000E+00 0.  1.
          6    1    1    2  501    0  0.46561423248E+02 -0.98546941780E+02 -0.60925500915E+02  0.21335506212E+03  0.17300000000E+03 0. -1.
         -6    1    1    2    0  502 -0.46561423248E+02  0.98546941780E+02 -0.11523496086E+03  0.23470739672E+03  0.17300000000E+03 0. -1.
<mgrwt>
<rscale>  2 0.20447119E+03</rscale>
<asrwt>0</asrwt>
<pdfrwt beam="1">  1       21 0.20915538E-01 0.20447119E+03</pdfrwt>
<pdfrwt beam="2">  1       21 0.48017148E-01 0.20447119E+03</pdfrwt>
<totfact> 0.87550095E+04</totfact>
</mgrwt>
</event>
<event>
 4    1  0.4043938E+000  0.1995918E+03  0.7546771E-02  0.1150084E+00
         21   -1    0    0  501  502  0.00000000000E+00  0.00000000000E+00  0.14842795532E+03  0.14842795532E+03  0.00000000000E+00 0. -1.
         21   -1    0    0  502  503 -0.00000000000E+00 -0.00000000000E+00 -0.28956405199E+03  0.28956405199E+03  0.00000000000E+00 0. -1.
          6    1    1    2  501    0 -0.71899067395E+02  0.68836132177E+02 -0.12978477959E+03  0.23807767220E+03  0.17300000000E+03 0. -1.
         -6    1    1    2    0  503  0.71899067395E+02 -0.68836132177E+02 -0.11351317083E+02  0.19991433512E+03  0.17300000000E+03 0. -1.
<mgrwt>
<rscale>  2 0.19959181E+03</rscale>
<asrwt>0</asrwt>
<pdfrwt beam="1">  1       21 0.22835070E-01 0.19959181E+03</pdfrwt>
<pdfrwt beam="2">  1       21 0.44548315E-01 0.19959181E+03</pdfrwt>
<totfact> 0.86786807E+04</totfact>
</mgrwt>
</event>
<event>
 4    1  0.4043938E+000  0.2331830E+03  0.7546771E-02  0.1124419E+00
         21   -1    0    0  501  502  0.00000000000E+00  0.00000000000E+00  0.51881391014E+03  0.51881391014E+03  0.00000000000E+00 0.  1.
         21   -1    0    0  502  503 -0.00000000000E+00 -0.00000000000E+00 -0.21985457257E+03  0.21985457257E+03  0.00000000000E+00 0. -1.
          6    1    1    2  501    0  0.11033772635E+03 -0.11077414210E+03  0.41665367855E+03  0.47746687033E+03  0.17300000000E+03 0.  1.
         -6    1    1    2    0  503 -0.11033772635E+03  0.11077414210E+03 -0.11769434098E+03  0.26120161239E+03  0.17300000000E+03 0. -1.
<mgrwt>
<rscale>  2 0.23318303E+03</rscale>
<asrwt>0</asrwt>
<pdfrwt beam="1">  1       21 0.79817525E-01 0.23318303E+03</pdfrwt>
<pdfrwt beam="2">  1       21 0.33823780E-01 0.23318303E+03</pdfrwt>
<totfact> 0.11343857E+04</totfact>
</mgrwt>
</event>
<event>
 4    1  0.4043938E+000  0.1757365E+03  0.7546771E-02  0.1171994E+00
         21   -1    0    0  501  502  0.00000000000E+00  0.00000000000E+00  0.62997819010E+02  0.62997819010E+02  0.00000000000E+00 0. -1.
         21   -1    0    0  502  503 -0.00000000000E+00 -0.00000000000E+00 -0.73539911641E+03  0.73539911641E+03  0.00000000000E+00 0. -1.
          6    1    1    2  501    0  0.97527368510E+01  0.29312273738E+02 -0.10570563328E+03  0.20507804898E+03  0.17300000000E+03 0.  1.
         -6    1    1    2    0  503 -0.97527368510E+01 -0.29312273738E+02 -0.56669566412E+03  0.59331888644E+03  0.17300000000E+03 0.  1.
<mgrwt>
<rscale>  2 0.17573652E+03</rscale>
<asrwt>0</asrwt>
<pdfrwt beam="1">  1       21 0.96919724E-02 0.17573652E+03</pdfrwt>
<pdfrwt beam="2">  1       21 0.11313832E+00 0.17573652E+03</pdfrwt>
<totfact> 0.52763816E+04</totfact>
</mgrwt>
</event>
<event>
 4    1  0.4043938E+000  0.1822240E+03  0.7546771E-02  0.1165668E+00
         21   -1    0    0  503  502  0.00000000000E+00  0.00000000000E+00  0.28237648733E+04  0.28237648733E+04  0.00000000000E+00 0.  1.
         21   -1    0    0  501  503 -0.00000000000E+00 -0.00000000000E+00 -0.19714568443E+02  0.19714568443E+02  0.00000000000E+00 0.  1.
          6    1    1    2  501    0 -0.83628259495E+01  0.56627333148E+02  0.49888952291E+03  0.53112743083E+03  0.17300000000E+03 0.  1.
         -6    1    1    2    0  502  0.83628259495E+01 -0.56627333148E+02  0.23051607819E+04  0.23123520109E+04  0.17300000000E+03 0.  1.
<mgrwt>
<rscale>  2 0.18222402E+03</rscale>
<asrwt>0</asrwt>
<pdfrwt beam="1">  1       21 0.43442504E+00 0.18222402E+03</pdfrwt>
<pdfrwt beam="2">  1       21 0.30330128E-02 0.18222402E+03</pdfrwt>
<totfact> 0.33232310E+03</totfact>
</mgrwt>
</event>
<event>
 4    1  0.4043938E+000  0.1939240E+03  0.7546771E-02  0.1154969E+00
         21   -1    0    0  501  502  0.00000000000E+00  0.00000000000E+00  0.31675483860E+03  0.31675483860E+03  0.00000000000E+00 0.  1.
         21   -1    0    0  502  503 -0.00000000000E+00 -0.00000000000E+00 -0.66415632240E+03  0.66415632240E+03  0.00000000000E+00 0. -1.
          6    1    1    2  501    0 -0.58838355150E+02  0.64927246076E+02  0.27076146375E+03  0.33304394541E+03  0.17300000000E+03 0.  1.
         -6    1    1    2    0  503  0.58838355150E+02 -0.64927246076E+02 -0.61816294755E+03  0.64786721560E+03  0.17300000000E+03 0. -1.
<mgrwt>
<rscale>  2 0.19392395E+03</rscale>
<asrwt>0</asrwt>
<pdfrwt beam="1">  1       21 0.48731514E-01 0.19392395E+03</pdfrwt>
<pdfrwt beam="2">  1       21 0.10217790E+00 0.19392395E+03</pdfrwt>
<totfact> 0.31316599E+03</totfact>
</mgrwt>
</event>
<event>
 4    1  0.4043938E+000  0.2087854E+03  0.7546771E-02  0.1142531E+00
         21   -1    0    0  501  502  0.00000000000E+00  0.00000000000E+00  0.14226580669E+04  0.14226580669E+04  0.00000000000E+00 0.  1.
         21   -1    0    0  502  503 -0.00000000000E+00 -0.00000000000E+00 -0.91842048058E+02  0.91842048058E+02  0.00000000000E+00 0. -1.
          6    1    1    2  501    0 -0.78414997044E+02  0.86680002163E+02  0.12835650086E+04  0.13004347219E+04  0.17300000000E+03 0.  1.
         -6    1    1    2    0  503  0.78414997044E+02 -0.86680002163E+02  0.47251010199E+02  0.21406539305E+03  0.17300000000E+03 0. -1.
<mgrwt>
<rscale>  2 0.20878538E+03</rscale>
<asrwt>0</asrwt>
<pdfrwt beam="1">  1       21 0.21887046E+00 0.20878538E+03</pdfrwt>
<pdfrwt beam="2">  1       21 0.14129547E-01 0.20878538E+03</pdfrwt>
<totfact> 0.44012480E+03</totfact>
</mgrwt>
</event>
<event>
 4    1  0.4043938E+000  0.1740870E+03  0.7546771E-02  0.1173652E+00
         21   -1    0    0  503  502  0.00000000000E+00  0.00000000000E+00  0.12504275315E+04  0.12504275315E+04  0.00000000000E+00 0.  1.
         21   -1    0    0  501  503 -0.00000000000E+00 -0.00000000000E+00 -0.32572528757E+02  0.32572528757E+02  0.00000000000E+00 0.  1.
          6    1    1    2  501    0  0.17601023937E+02 -0.82143315264E+01  0.93344985717E+03  0.94954457881E+03  0.17300000000E+03 0.  1.
         -6    1    1    2    0  502 -0.17601023937E+02  0.82143315264E+01  0.28440514561E+03  0.33345548149E+03  0.17300000000E+03 0.  1.
<mgrwt>
<rscale>  2 0.17408696E+03</rscale>
<asrwt>0</asrwt>
<pdfrwt beam="1">  1       21 0.19237343E+00 0.17408696E+03</pdfrwt>
<pdfrwt beam="2">  1       21 0.50111592E-02 0.17408696E+03</pdfrwt>
<totfact> 0.40831440E+04</totfact>
</mgrwt>
</event>
<event>
 4    1  0.4043938E+000  0.2202692E+03  0.7546771E-02  0.1133683E+00
         21   -1    0    0  501  502  0.00000000000E+00  0.00000000000E+00  0.20017017962E+03  0.20017017962E+03  0.00000000000E+00 0. -1.
         21   -1    0    0  502  503 -0.00000000000E+00 -0.00000000000E+00 -0.27622471473E+03  0.27622471473E+03  0.00000000000E+00 0.  1.
          6    1    1    2  501    0 -0.13558709738E+03  0.14340863719E+02  0.45342857148E+02  0.22488774098E+03  0.17300000000E+03 0. -1.
         -6    1    1    2    0  503  0.13558709738E+03 -0.14340863719E+02 -0.12139739226E+03  0.25150715337E+03  0.17300000000E+03 0.  1.
<mgrwt>
<rscale>  2 0.22026920E+03</rscale>
<asrwt>0</asrwt>
<pdfrwt beam="1">  1       21 0.30795412E-01 0.22026920E+03</pdfrwt>
<pdfrwt beam="2">  1       21 0.42496110E-01 0.22026920E+03</pdfrwt>
<totfact> 0.53253198E+04</totfact>
</mgrwt>
</event>
<event>
 4    1  0.4043938E+000  0.1839355E+03  0.7546771E-02  0.1164048E+00
         21   -1    0    0  501  502  0.00000000000E+00  0.00000000000E+00  0.67531871691E+03  0.67531871691E+03  0.00000000000E+00 0.  1.
         21   -1    0    0  502  503 -0.00000000000E+00 -0.00000000000E+00 -0.68598591866E+02  0.68598591866E+02  0.00000000000E+00 0.  1.
          6    1    1    2  501    0  0.40276507788E+02 -0.47760648633E+02  0.49652446966E+03  0.52949865496E+03  0.17300000000E+03 0.  1.
         -6    1    1    2    0  503 -0.40276507788E+02  0.47760648633E+02  0.11019565539E+03  0.21441865381E+03  0.17300000000E+03 0.  1.
<mgrwt>
<rscale>  2 0.18393552E+03</rscale>
<asrwt>0</asrwt>
<pdfrwt beam="1">  1       21 0.10389518E+00 0.18393552E+03</pdfrwt>
<pdfrwt beam="2">  1       21 0.10553630E-01 0.18393552E+03</pdfrwt>
<totfact> 0.55513094E+04</totfact>
</mgrwt>
</event>
<event>
 4    1  0.4043938E+000  0.2741306E+03  0.7546771E-02  0.1098939E+00
         21   -1    0    0  503  502  0.00000000000E+00  0.00000000000E+00  0.39383112148E+03  0.39383112148E+03  0.00000000000E+00 0.  1.
         21   -1    0    0  501  503 -0.00000000000E+00 -0.00000000000E+00 -0.33224358532E+03  0.33224358532E+03  0.00000000000E+00 0. -1.
          6    1    1    2  501    0  0.12664972850E+03 -0.17081698660E+03 -0.20606890885E+03  0.34294604799E+03  0.17300000000E+03 0. -1.
         -6    1    1    2    0  502 -0.12664972850E+03  0.17081698660E+03  0.26765644501E+03  0.38312865880E+03  0.17300000000E+03 0.  1.
<mgrwt>
<rscale>  2 0.27413062E+03</rscale>
<asrwt>0</asrwt>
<pdfrwt beam="1">  1       21 0.60589403E-01 0.27413062E+03</pdfrwt>
<pdfrwt beam="2">  1       21 0.51114398E-01 0.27413062E+03</pdfrwt>
<totfact> 0.87885861E+03</totfact>
</mgrwt>
</event>
<event>
 4    1  0.4043938E+000  0.1877184E+03  0.7546771E-02  0.1160535E+00
         21   -1    0    0  503  502  0.00000000000E+00  0.00000000000E+00  0.54083595171E+03  0.54083595171E+03  0.00000000000E+00 0.  1.
         21   -1    0    0  501  503 -0.00000000000E+00 -0.00000000000E+00 -0.71928211305E+02  0.71928211305E+02  0.00000000000E+00 0.  1.
          6    1    1    2  501    0 -0.11013975650E+02  0.72027009969E+02  0.14043626524E+03  0.23443664905E+03  0.17300000000E+03 0. -1.
         -6    1    1    2    0  502  0.11013975650E+02 -0.72027009969E+02  0.32847147517E+03  0.37832751397E+03  0.17300000000E+03 0. -1.
<mgrwt>
<rscale>  2 0.18771840E+03</rscale>
<asrwt>0</asrwt>
<pdfrwt beam="1">  1       21 0.83205528E-01 0.18771840E+03</pdfrwt>
<pdfrwt beam="2">  1       21 0.11065879E-01 0.18771840E+03</pdfrwt>
<totfact> 0.85483795E+04</totfact>
</mgrwt>
</event>
<event>
 4    1  0.4043938E+000  0.2244771E+03  0.7546771E-02  0.1130589E+00
         21   -1    0    0  503  502  0.00000000000E+00  0.00000000000E+00  0.60855058200E+03  0.60855058200E+03  0.00000000000E+00 0. -1.
         21   -1    0    0  501  503 -0.00000000000E+00 -0.00000000000E+00 -0.16595275656E+03  0.16595275656E+03  0.00000000000E+00 0. -1.
          6    1    1    2  501    0 -0.71761435753E+01 -0.14286168035E+03 -0.52814912964E+02  0.23060653022E+03  0.17300000000E+03 0. -1.
         -6    1    1    2    0  502  0.71761435753E+01  0.14286168035E+03  0.49541273841E+03  0.54389680834E+03  0.17300000000E+03 0. -1.
<mgrwt>
<rscale>  2 0.22447707E+03</rscale>
<asrwt>0</asrwt>
<pdfrwt beam="1">  1       21 0.93623165E-01 0.22447707E+03</pdfrwt>
<pdfrwt beam="2">  1       21 0.25531194E-01 0.22447707E+03</pdfrwt>
<totfact> 0.13666936E+04</totfact>
</mgrwt>
</event>
<event>
 4    1  0.4043938E+000  0.3289832E+03  0.7546771E-02  0.1071588E+00
         21   -1    0    0  501  502  0.00000000000E+00  0.00000000000E+00  0.15458261943E+03  0.15458261943E+03  0.00000000000E+00 0.  1.
         21   -1    0    0  502  503 -0.00000000000E+00 -0.00000000000E+00 -0.73621692942E+03  0.73621692942E+03  0.00000000000E+00 0.  1.
          6    1    1    2  501    0  0.23714991004E+03  0.14852896085E+03 -0.19222460801E+03  0.38102523797E+03  0.17300000000E+03 0.  1.
         -6    1    1    2    0  503 -0.23714991004E+03 -0.14852896085E+03 -0.38940970199E+03  0.50977431089E+03  0.17300000000E+03 0.  1.
<mgrwt>
<rscale>  2 0.32898318E+03</rscale>
<asrwt>0</asrwt>
<pdfrwt beam="1">  1       21 0.23781942E-01 0.32898318E+03</pdfrwt>
<pdfrwt beam="2">  1       21 0.11326414E+00 0.32898318E+03</pdfrwt>
<totfact> 0.93894541E+03</totfact>
</mgrwt>
</event>
<event>
 4    1  0.4043938E+000  0.1754647E+03  0.7546771E-02  0.1172266E+00
         21   -1    0    0  501  502  0.00000000000E+00  0.00000000000E+00  0.25178956453E+02  0.25178956453E+02  0.00000000000E+00 0. -1.
         21   -1    0    0  502  503 -0.00000000000E+00 -0.00000000000E+00 -0.13102464516E+04  0.13102464516E+04  0.00000000000E+00 0. -1.
          6    1    1    2  501    0 -0.19570995401E+02 -0.21813665925E+02 -0.81506973383E+03  0.83374248476E+03  0.17300000000E+03 0.  1.
         -6    1    1    2    0  503  0.19570995401E+02  0.21813665925E+02 -0.46999776129E+03  0.50168292327E+03  0.17300000000E+03 0.  1.
<mgrwt>
<rscale>  2 0.17546470E+03</rscale>
<asrwt>0</asrwt>
<pdfrwt beam="1">  1       21 0.38736849E-02 0.17546470E+03</pdfrwt>
<pdfrwt beam="2">  1       21 0.20157641E+00 0.17546470E+03</pdfrwt>
<totfact> 0.54860238E+04</totfact>
</mgrwt>
</event>
<event>
 4    1  0.4043938E+000  0.1813782E+03  0.7546771E-02  0.1166476E+00
         21   -1    0    0  501  502  0.00000000000E+00  0.00000000000E+00  0.78242245878E+03  0.78242245878E+03  0.00000000000E+00 0.  1.
         21   -1    0    0  502  503 -0.00000000000E+00 -0.00000000000E+00 -0.48149947601E+02  0.48149947601E+02  0.00000000000E+00 0.  1.
          6    1    1    2  501    0 -0.54384396114E+02 -0.33767440138E+01  0.21927990717E+03  0.28457291268E+03  0.17300000000E+03 0.  1.
         -6    1    1    2    0  503  0.54384396114E+02  0.33767440138E+01  0.51499260401E+03  0.54599949370E+03  0.17300000000E+03 0.  1.
<mgrwt>
<rscale>  2 0.18137824E+03</rscale>
<asrwt>0</asrwt>
<pdfrwt beam="1">  1       21 0.12037268E+00 0.18137824E+03</pdfrwt>
<pdfrwt beam="2">  1       21 0.74076848E-02 0.18137824E+03</pdfrwt>
<totfact> 0.72260406E+04</totfact>
</mgrwt>
</event>
<event>
 4    1  0.4043938E+000  0.2113948E+03  0.7546771E-02  0.1140466E+00
         21   -1    0    0  501  502  0.00000000000E+00  0.00000000000E+00  0.72220962632E+03  0.72220962632E+03  0.00000000000E+00 0.  1.
         21   -1    0    0  502  503 -0.00000000000E+00 -0.00000000000E+00 -0.67241499366E+02  0.67241499366E+02  0.00000000000E+00 0.  1.
          6    1    1    2  501    0 -0.12148432996E+03 -0.55450447706E+00  0.43898138239E+03  0.48722931355E+03  0.17300000000E+03 0.  1.
         -6    1    1    2    0  503  0.12148432996E+03  0.55450447706E+00  0.21598674456E+03  0.30222181213E+03  0.17300000000E+03 0.  1.
<mgrwt>
<rscale>  2 0.21139477E+03</rscale>
<asrwt>0</asrwt>
<pdfrwt beam="1">  1       21 0.11110917E+00 0.21139477E+03</pdfrwt>
<pdfrwt beam="2">  1       21 0.10344847E-01 0.21139477E+03</pdfrwt>
<totfact> 0.48240686E+04</totfact>
</mgrwt>
</event>
<event>
 4    1  0.4043938E+000  0.2345870E+03  0.7546771E-02  0.1123452E+00
         21   -1    0    0  501  502  0.00000000000E+00  0.00000000000E+00  0.77878417036E+03  0.77878417036E+03  0.00000000000E+00 0.  1.
         21   -1    0    0  502  503 -0.00000000000E+00 -0.00000000000E+00 -0.71010934190E+02  0.71010934190E+02  0.00000000000E+00 0.  1.
          6    1    1    2  501    0 -0.13126168908E+03  0.88726760894E+02  0.38363721751E+03  0.44967608762E+03  0.17300000000E+03 0.  1.
         -6    1    1    2    0  503  0.13126168908E+03 -0.88726760894E+02  0.32413601866E+03  0.40011901694E+03  0.17300000000E+03 0.  1.
<mgrwt>
<rscale>  2 0.23458702E+03</rscale>
<asrwt>0</asrwt>
<pdfrwt beam="1">  1       21 0.11981294E+00 0.23458702E+03</pdfrwt>
<pdfrwt beam="2">  1       21 0.10924760E-01 0.23458702E+03</pdfrwt>
<totfact> 0.35960688E+04</totfact>
</mgrwt>
</event>
<event>
 4    1  0.4043938E+000  0.1868990E+03  0.7546771E-02  0.1161288E+00
         21   -1    0    0  501  502  0.00000000000E+00  0.00000000000E+00  0.69547851384E+02  0.69547851384E+02  0.00000000000E+00 0.  1.
         21   -1    0    0  502  503 -0.00000000000E+00 -0.00000000000E+00 -0.55849019266E+03  0.55849019266E+03  0.00000000000E+00 0.  1.
          6    1    1    2  501    0 -0.46405783832E+02  0.53373461828E+02 -0.14483286380E+03  0.23644826419E+03  0.17300000000E+03 0.  1.
         -6    1    1    2    0  503  0.46405783832E+02 -0.53373461828E+02 -0.34410947747E+03  0.39158977985E+03  0.17300000000E+03 0.  1.
<mgrwt>
<rscale>  2 0.18689897E+03</rscale>
<asrwt>0</asrwt>
<pdfrwt beam="1">  1       21 0.10699669E-01 0.18689897E+03</pdfrwt>
<pdfrwt beam="2">  1       21 0.85921571E-01 0.18689897E+03</pdfrwt>
<totfact> 0.84358271E+04</totfact>
</mgrwt>
</event>
<event>
 4    1  0.4043938E+000  0.1738586E+03  0.7546771E-02  0.1173883E+00
         21   -1    0    0  503  502  0.00000000000E+00  0.00000000000E+00  0.93562726817E+03  0.93562726817E+03  0.00000000000E+00 0.  1.
         21   -1    0    0  501  503 -0.00000000000E+00 -0.00000000000E+00 -0.58013617716E+02  0.58013617716E+02  0.00000000000E+00 0.  1.
          6    1    1    2  501    0 -0.12841364320E+02  0.11528517608E+02  0.10808603862E+03  0.20471785242E+03  0.17300000000E+03 0.  1.
         -6    1    1    2    0  502  0.12841364320E+02 -0.11528517608E+02  0.76952761183E+03  0.78892303346E+03  0.17300000000E+03 0.  1.
<mgrwt>
<rscale>  2 0.17385858E+03</rscale>
<asrwt>0</asrwt>
<pdfrwt beam="1">  1       21 0.14394265E+00 0.17385858E+03</pdfrwt>
<pdfrwt beam="2">  1       21 0.89251726E-02 0.17385858E+03</pdfrwt>
<totfact> 0.33385222E+04</totfact>
</mgrwt>
</event>
<event>
 4    1  0.4043938E+000  0.1913784E+03  0.7546771E-02  0.1157224E+00
         21   -1    0    0  503  502  0.00000000000E+00  0.00000000000E+00  0.11461645199E+03  0.11461645199E+03  0.00000000000E+00 0.  1.
         21   -1    0    0  501  503 -0.00000000000E+00 -0.00000000000E+00 -0.42378004462E+03  0.42378004462E+03  0.00000000000E+00 0.  1.
          6    1    1    2  501    0  0.52446722268E+02  0.62817512585E+02 -0.28808701248E+03  0.34586099133E+03  0.17300000000E+03 0.  1.
         -6    1    1    2    0  502 -0.52446722268E+02 -0.62817512585E+02 -0.21076580152E+02  0.19253550528E+03  0.17300000000E+03 0.  1.
<mgrwt>
<rscale>  2 0.19137842E+03</rscale>
<asrwt>0</asrwt>
<pdfrwt beam="1">  1       21 0.17633301E-01 0.19137842E+03</pdfrwt>
<pdfrwt beam="2">  1       21 0.65196929E-01 0.19137842E+03</pdfrwt>
<totfact> 0.63183238E+04</totfact>
</mgrwt>
</event>
<event>
 4    1  0.4043938E+000  0.1732293E+03  0.7546771E-02  0.1174521E+00
         21   -1    0    0  501  502  0.00000000000E+00  0.00000000000E+00  0.14989822234E+03  0.14989822234E+03  0.00000000000E+00 0.  1.
         21   -1    0    0  502  503 -0.00000000000E+00 -0.00000000000E+00 -0.23810829097E+03  0.23810829097E+03  0.00000000000E+00 0.  1.
          6    1    1    2  501    0  0.26465855383E+01  0.85075785351E+01 -0.12152202313E+03  0.21160336815E+03  0.17300000000E+03 0.  1.
         -6    1    1    2    0  503 -0.26465855383E+01 -0.85075785351E+01  0.33311954500E+02  0.17640314515E+03  0.17300000000E+03 0.  1.
<mgrwt>
<rscale>  2 0.17322928E+03</rscale>
<asrwt>0</asrwt>
<pdfrwt beam="1">  1       21 0.23061265E-01 0.17322928E+03</pdfrwt>
<pdfrwt beam="2">  1       21 0.36632045E-01 0.17322928E+03</pdfrwt>
<totfact> 0.12777572E+05</totfact>
</mgrwt>
</event>
<event>
 4    1  0.4043938E+000  0.2320930E+03  0.7546771E-02  0.1125175E+00
         21   -1    0    0  503  502  0.00000000000E+00  0.00000000000E+00  0.17961182491E+03  0.17961182491E+03  0.00000000000E+00 0.  1.
         21   -1    0    0  501  503 -0.00000000000E+00 -0.00000000000E+00 -0.93388741359E+03  0.93388741359E+03  0.00000000000E+00 0. -1.
          6    1    1    2  501    0 -0.12157842103E+03  0.95691419100E+02 -0.83586023288E+03  0.86748457569E+03  0.17300000000E+03 0. -1.
         -6    1    1    2    0  502  0.12157842103E+03 -0.95691419100E+02  0.81584644197E+02  0.24601466281E+03  0.17300000000E+03 0.  1.
<mgrwt>
<rscale>  2 0.23209300E+03</rscale>
<asrwt>0</asrwt>
<pdfrwt beam="1">  1       21 0.27632590E-01 0.23209300E+03</pdfrwt>
<pdfrwt beam="2">  1       21 0.14367498E+00 0.23209300E+03</pdfrwt>
<totfact> 0.40506979E+03</totfact>
</mgrwt>
</event>
<event>
 4    1  0.4043938E+000  0.2083347E+03  0.7546771E-02  0.1142892E+00
         21   -1    0    0  501  502  0.00000000000E+00  0.00000000000E+00  0.21795088252E+02  0.21795088252E+02  0.00000000000E+00 0. -1.
         21   -1    0    0  502  503 -0.00000000000E+00 -0.00000000000E+00 -0.20505818465E+04  0.20505818465E+04  0.00000000000E+00 0.  1.
          6    1    1    2  501    0 -0.78063478556E+02  0.85909492494E+02 -0.83840178114E+03  0.86389865968E+03  0.17300000000E+03 0. -1.
         -6    1    1    2    0  503  0.78063478556E+02 -0.85909492494E+02 -0.11903849771E+04  0.12084782750E+04  0.17300000000E+03 0.  1.
<mgrwt>
<rscale>  2 0.20833470E+03</rscale>
<asrwt>0</asrwt>
<pdfrwt beam="1">  1       21 0.33530898E-02 0.20833470E+03</pdfrwt>
<pdfrwt beam="2">  1       21 0.31547419E+00 0.20833470E+03</pdfrwt>
<totfact> 0.14387617E+04</totfact>
</mgrwt>
</event>
<event>
 4    1  0.4043938E+000  0.1798806E+03  0.7546771E-02  0.1167919E+00
         21   -1    0    0  501  502  0.00000000000E+00  0.00000000000E+00  0.53251813578E+03  0.53251813578E+03  0.00000000000E+00 0.  1.
         21   -1    0    0  502  503 -0.00000000000E+00 -0.00000000000E+00 -0.52172094061E+03  0.52172094061E+03  0.00000000000E+00 0.  1.
          6    1    1    2  501    0  0.47173479455E+02  0.14237382380E+02  0.50087268668E+03  0.53219403274E+03  0.17300000000E+03 0.  1.
         -6    1    1    2    0  503 -0.47173479455E+02 -0.14237382380E+02 -0.49007549151E+03  0.52204504365E+03  0.17300000000E+03 0.  1.
<mgrwt>
<rscale>  2 0.17988063E+03</rscale>
<asrwt>0</asrwt>
<pdfrwt beam="1">  1       21 0.81925867E-01 0.17988063E+03</pdfrwt>
<pdfrwt beam="2">  1       21 0.80264760E-01 0.17988063E+03</pdfrwt>
<totfact> 0.18006211E+03</totfact>
</mgrwt>
</event>
<event>
 4    1  0.4043938E+000  0.2300502E+03  0.7546771E-02  0.1126604E+00
         21   -1    0    0  501  502  0.00000000000E+00  0.00000000000E+00  0.20896503305E+03  0.20896503305E+03  0.00000000000E+00 0.  1.
         21   -1    0    0  502  503 -0.00000000000E+00 -0.00000000000E+00 -0.84243410047E+03  0.84243410047E+03  0.00000000000E+00 0. -1.
          6    1    1    2  501    0  0.14343547661E+02  0.15095815776E+03  0.12289856615E+03  0.26082016854E+03  0.17300000000E+03 0.  1.
         -6    1    1    2    0  503 -0.14343547661E+02 -0.15095815776E+03 -0.75636763357E+03  0.79057896498E+03  0.17300000000E+03 0. -1.
<mgrwt>
<rscale>  2 0.23005022E+03</rscale>
<asrwt>0</asrwt>
<pdfrwt beam="1">  1       21 0.32148467E-01 0.23005022E+03</pdfrwt>
<pdfrwt beam="2">  1       21 0.12960525E+00 0.23005022E+03</pdfrwt>
<totfact> 0.39347714E+03</totfact>
</mgrwt>
</event>
<event>
 4    1  0.4043938E+000  0.3690251E+03  0.7546771E-02  0.1055066E+00
         21   -1    0    0  503  502  0.00000000000E+00  0.00000000000E+00  0.29864463822E+03  0.29864463822E+03  0.00000000000E+00 0. -1.
         21   -1    0    0  501  503 -0.00000000000E+00 -0.00000000000E+00 -0.97183610656E+03  0.97183610656E+03  0.00000000000E+00 0. -1.
          6    1    1    2  501    0  0.54385898076E+02  0.32139181082E+03 -0.79940375281E+03  0.88046912608E+03  0.17300000000E+03 0. -1.
         -6    1    1    2    0  502 -0.54385898076E+02 -0.32139181082E+03  0.12621228447E+03  0.39001161871E+03  0.17300000000E+03 0. -1.
<mgrwt>
<rscale>  2 0.36902510E+03</rscale>
<asrwt>0</asrwt>
<pdfrwt beam="1">  1       21 0.45945329E-01 0.36902510E+03</pdfrwt>
<pdfrwt beam="2">  1       21 0.14951325E+00 0.36902510E+03</pdfrwt>
<totfact> 0.12045027E+03</totfact>
</mgrwt>
</event>
<event>
 4    1  0.4043938E+000  0.1915399E+03  0.7546771E-02  0.1157080E+00
         21   -1    0    0  503  502  0.00000000000E+00  0.00000000000E+00  0.15366567116E+04  0.15366567116E+04  0.00000000000E+00 0. -1.
         21   -1    0    0  501  503 -0.00000000000E+00 -0.00000000000E+00 -0.31940166208E+02  0.31940166208E+02  0.00000000000E+00 0. -1.
          6    1    1    2  501    0 -0.20794168129E+02  0.79536996551E+02  0.35824413500E+03  0.40623440464E+03  0.17300000000E+03 0. -1.
         -6    1    1    2    0  502  0.20794168129E+02 -0.79536996551E+02  0.11464724104E+04  0.11623624732E+04  0.17300000000E+03 0. -1.
<mgrwt>
<rscale>  2 0.19153989E+03</rscale>
<asrwt>0</asrwt>
<pdfrwt beam="1">  1       21 0.23640867E+00 0.19153989E+03</pdfrwt>
<pdfrwt beam="2">  1       21 0.49138729E-02 0.19153989E+03</pdfrwt>
<totfact> 0.22193177E+04</totfact>
</mgrwt>
</event>
<event>
 4    1  0.4043938E+000  0.1814514E+03  0.7546771E-02  0.1166406E+00
         21   -1    0    0  501  502  0.00000000000E+00  0.00000000000E+00  0.41946598467E+03  0.41946598467E+03  0.00000000000E+00 0. -1.
         21   -1    0    0  502  503 -0.00000000000E+00 -0.00000000000E+00 -0.15191447543E+03  0.15191447543E+03  0.00000000000E+00 0. -1.
          6    1    1    2  501    0 -0.48886389627E+02 -0.24611523968E+02  0.33239034637E+03  0.37869241947E+03  0.17300000000E+03 0. -1.
         -6    1    1    2    0  503  0.48886389627E+02  0.24611523968E+02 -0.64838837135E+02  0.19268804064E+03  0.17300000000E+03 0. -1.
<mgrwt>
<rscale>  2 0.18145139E+03</rscale>
<asrwt>0</asrwt>
<pdfrwt beam="1">  1       21 0.64533228E-01 0.18145139E+03</pdfrwt>
<pdfrwt beam="2">  1       21 0.23371458E-01 0.18145139E+03</pdfrwt>
<totfact> 0.38337443E+04</totfact>
</mgrwt>
</event>
<event>
 4    1  0.4043938E+000  0.1761573E+03  0.7546771E-02  0.1171575E+00
         21   -1    0    0  503  502  0.00000000000E+00  0.00000000000E+00  0.97648232116E+03  0.97648232116E+03  0.00000000000E+00 0.  1.
         21   -1    0    0  501  503 -0.00000000000E+00 -0.00000000000E+00 -0.41095571429E+02  0.41095571429E+02  0.00000000000E+00 0.  1.
          6    1    1    2  501    0 -0.32980230871E+00 -0.33200619831E+02  0.22543768559E+03  0.28610057674E+03  0.17300000000E+03 0.  1.
         -6    1    1    2    0  502  0.32980230871E+00  0.33200619831E+02  0.70994906414E+03  0.73147731585E+03  0.17300000000E+03 0.  1.
<mgrwt>
<rscale>  2 0.17615729E+03</rscale>
<asrwt>0</asrwt>
<pdfrwt beam="1">  1       21 0.15022803E+00 0.17615729E+03</pdfrwt>
<pdfrwt beam="2">  1       21 0.63223964E-02 0.17615729E+03</pdfrwt>
<totfact> 0.54158940E+04</totfact>
</mgrwt>
</event>
<event>
 4    1  0.4043938E+000  0.1815440E+03  0.7546771E-02  0.1166317E+00
         21   -1    0    0  501  502  0.00000000000E+00  0.00000000000E+00  0.52544765936E+03  0.52544765936E+03  0.00000000000E+00 0. -1.
         21   -1    0    0  502  503 -0.00000000000E+00 -0.00000000000E+00 -0.12880984089E+03  0.12880984089E+03  0.00000000000E+00 0. -1.
          6    1    1    2  501    0  0.97144996864E+01 -0.54174341865E+02  0.43263282319E+03  0.46917948647E+03  0.17300000000E+03 0. -1.
         -6    1    1    2    0  503 -0.97144996864E+01  0.54174341865E+02 -0.35995004718E+02  0.18507801378E+03  0.17300000000E+03 0. -1.
<mgrwt>
<rscale>  2 0.18154402E+03</rscale>
<asrwt>0</asrwt>
<pdfrwt beam="1">  1       21 0.80838100E-01 0.18154402E+03</pdfrwt>
<pdfrwt beam="2">  1       21 0.19816899E-01 0.18154402E+03</pdfrwt>
<totfact> 0.31735487E+04</totfact>
</mgrwt>
</event>
<event>
 4    1  0.4043938E+000  0.1953573E+03  0.7546771E-02  0.1153716E+00
         21   -1    0    0  503  502  0.00000000000E+00  0.00000000000E+00  0.16319045233E+03  0.16319045233E+03  0.00000000000E+00 0.  1.
         21   -1    0    0  501  503 -0.00000000000E+00 -0.00000000000E+00 -0.57114927475E+03  0.57114927475E+03  0.00000000000E+00 0.  1.
          6    1    1    2  501    0 -0.41700288167E+02  0.80601365536E+02 -0.48613614650E+03  0.52392064961E+03  0.17300000000E+03 0.  1.
         -6    1    1    2    0  502  0.41700288167E+02 -0.80601365536E+02  0.78177324083E+02  0.21041907746E+03  0.17300000000E+03 0.  1.
<mgrwt>
<rscale>  2 0.19535735E+03</rscale>
<asrwt>0</asrwt>
<pdfrwt beam="1">  1       21 0.25106224E-01 0.19535735E+03</pdfrwt>
<pdfrwt beam="2">  1       21 0.87869118E-01 0.19535735E+03</pdfrwt>
<totfact> 0.16654272E+04</totfact>
</mgrwt>
</event>
<event>
 4    1  0.4043938E+000  0.1999472E+03  0.7546771E-02  0.1149784E+00
         21   -1    0    0  503  502  0.00000000000E+00  0.00000000000E+00  0.11803353348E+04  0.11803353348E+04  0.00000000000E+00 0. -1.
         21   -1    0    0  501  503 -0.00000000000E+00 -0.00000000000E+00 -0.88069268483E+02  0.88069268483E+02  0.00000000000E+00 0. -1.
          6    1    1    2  501    0  0.82816802751E+02  0.56491295890E+02  0.48614607169E+02  0.20577237268E+03  0.17300000000E+03 0. -1.
         -6    1    1    2    0  502 -0.82816802751E+02 -0.56491295890E+02  0.10436514592E+04  0.10626322306E+04  0.17300000000E+03 0. -1.
<mgrwt>
<rscale>  2 0.19994722E+03</rscale>
<asrwt>0</asrwt>
<pdfrwt beam="1">  1       21 0.18159004E+00 0.19994722E+03</pdfrwt>
<pdfrwt beam="2">  1       21 0.13549119E-01 0.19994722E+03</pdfrwt>
<totfact> 0.83230842E+03</totfact>
</mgrwt>
</event>
<event>
 4    1  0.4043938E+000  0.1814644E+03  0.7546771E-02  0.1166393E+00
         21   -1    0    0  503  502  0.00000000000E+00  0.00000000000E+00  0.25373743232E+03  0.25373743232E+03  0.00000000000E+00 0.  1.
         21   -1    0    0  501  503 -0.00000000000E+00 -0.00000000000E+00 -0.13978294746E+03  0.13978294746E+03  0.00000000000E+00 0.  1.
          6    1    1    2  501    0  0.53811168221E+02 -0.10231396014E+02  0.43348306226E+01  0.18151615368E+03  0.17300000000E+03 0.  1.
         -6    1    1    2    0  502 -0.53811168221E+02  0.10231396014E+02  0.10961965424E+03  0.21200422610E+03  0.17300000000E+03 0.  1.
<mgrwt>
<rscale>  2 0.18146439E+03</rscale>
<asrwt>0</asrwt>
<pdfrwt beam="1">  1       21 0.39036528E-01 0.18146439E+03</pdfrwt>
<pdfrwt beam="2">  1       21 0.21505069E-01 0.18146439E+03</pdfrwt>
<totfact> 0.12796811E+05</totfact>
</mgrwt>
</event>
<event>
 4    1  0.4043938E+000  0.1734892E+03  0.7546771E-02  0.1174257E+00
         21   -1    0    0  503  502  0.00000000000E+00  0.00000000000E+00  0.65674639751E+03  0.65674639751E+03  0.00000000000E+00 0.  1.
         21   -1    0    0  501  503 -0.00000000000E+00 -0.00000000000E+00 -0.49730682616E+02  0.49730682616E+02  0.00000000000E+00 0.  1.
          6    1    1    2  501    0 -0.25578570701E+01 -0.12765855100E+02  0.40244087171E+03  0.43824327139E+03  0.17300000000E+03 0.  1.
         -6    1    1    2    0  502  0.25578570701E+01  0.12765855100E+02  0.20457484318E+03  0.26823380874E+03  0.17300000000E+03 0.  1.
<mgrwt>
<rscale>  2 0.17348922E+03</rscale>
<asrwt>0</asrwt>
<pdfrwt beam="1">  1       21 0.10103790E+00 0.17348922E+03</pdfrwt>
<pdfrwt beam="2">  1       21 0.76508747E-02 0.17348922E+03</pdfrwt>
<totfact> 0.10470236E+05</totfact>
</mgrwt>
</event>
<event>
 4    1  0.4043938E+000  0.2111097E+03  0.7546771E-02  0.1140690E+00
         21   -1    0    0  501  502  0.00000000000E+00  0.00000000000E+00  0.41317088918E+03  0.41317088918E+03  0.00000000000E+00 0.  1.
         21   -1    0    0  502  503 -0.00000000000E+00 -0.00000000000E+00 -0.24186531269E+03  0.24186531269E+03  0.00000000000E+00 0.  1.
          6    1    1    2  501    0  0.10631144591E+03  0.57759668693E+02  0.32943329081E+03  0.39127176739E+03  0.17300000000E+03 0.  1.
         -6    1    1    2    0  503 -0.10631144591E+03 -0.57759668693E+02 -0.15812771432E+03  0.26376443448E+03  0.17300000000E+03 0.  1.
<mgrwt>
<rscale>  2 0.21110969E+03</rscale>
<asrwt>0</asrwt>
<pdfrwt beam="1">  1       21 0.63564752E-01 0.21110969E+03</pdfrwt>
<pdfrwt beam="2">  1       21 0.37210048E-01 0.21110969E+03</pdfrwt>
<totfact> 0.15753441E+04</totfact>
</mgrwt>
</event>
<event>
 4    1  0.4043938E+000  0.1733117E+03  0.7546771E-02  0.1174438E+00
         21   -1    0    0  501  502  0.00000000000E+00  0.00000000000E+00  0.65299969760E+02  0.65299969760E+02  0.00000000000E+00 0. -1.
         21   -1    0    0  502  503 -0.00000000000E+00 -0.00000000000E+00 -0.48640809624E+03  0.48640809624E+03  0.00000000000E+00 0. -1.
          6    1    1    2  501    0 -0.97804253566E+01  0.35068924893E+01 -0.14625905088E+03  0.22677889006E+03  0.17300000000E+03 0.  1.
         -6    1    1    2    0  503  0.97804253566E+01 -0.35068924893E+01 -0.27484907560E+03  0.32492917594E+03  0.17300000000E+03 0.  1.
<mgrwt>
<rscale>  2 0.17331173E+03</rscale>
<asrwt>0</asrwt>
<pdfrwt beam="1">  1       21 0.10046150E-01 0.17331173E+03</pdfrwt>
<pdfrwt beam="2">  1       21 0.74832012E-01 0.17331173E+03</pdfrwt>
<totfact> 0.12951564E+05</totfact>
</mgrwt>
</event>
<event>
 4    1  0.4043938E+000  0.1892411E+03  0.7546771E-02  0.1159148E+00
         21   -1    0    0  501  502  0.00000000000E+00  0.00000000000E+00  0.66600344894E+02  0.66600344894E+02  0.00000000000E+00 0. -1.
         21   -1    0    0  502  503 -0.00000000000E+00 -0.00000000000E+00 -0.59309641405E+03  0.59309641405E+03  0.00000000000E+00 0. -1.
          6    1    1    2  501    0 -0.72713784106E+01 -0.76356648113E+02 -0.16245707361E+03  0.24940832268E+03  0.17300000000E+03 0. -1.
         -6    1    1    2    0  503  0.72713784106E+01  0.76356648113E+02 -0.36403899555E+03  0.41028843627E+03  0.17300000000E+03 0. -1.
<mgrwt>
<rscale>  2 0.18924114E+03</rscale>
<asrwt>0</asrwt>
<pdfrwt beam="1">  1       21 0.10246207E-01 0.18924114E+03</pdfrwt>
<pdfrwt beam="2">  1       21 0.91245599E-01 0.18924114E+03</pdfrwt>
<totfact> 0.79218277E+04</totfact>
</mgrwt>
</event>
<event>
 4    1  0.4043938E+000  0.2070101E+03  0.7546771E-02  0.1143956E+00
         21   -1    0    0  503  502  0.00000000000E+00  0.00000000000E+00  0.47532872071E+03  0.47532872071E+03  0.00000000000E+00 0. -1.
         21   -1    0    0  501  503 -0.00000000000E+00 -0.00000000000E+00 -0.11143747825E+03  0.11143747825E+03  0.00000000000E+00 0. -1.
          6    1    1    2  501    0  0.21930384200E+02 -0.11154926401E+03  0.53732554780E+02  0.21386997801E+03  0.17300000000E+03 0. -1.
         -6    1    1    2    0  502 -0.21930384200E+02  0.11154926401E+03  0.31015868768E+03  0.37289622094E+03  0.17300000000E+03 0. -1.
<mgrwt>
<rscale>  2 0.20701010E+03</rscale>
<asrwt>0</asrwt>
<pdfrwt beam="1">  1       21 0.73127494E-01 0.20701010E+03</pdfrwt>
<pdfrwt beam="2">  1       21 0.17144228E-01 0.20701010E+03</pdfrwt>
<totfact> 0.51302023E+04</totfact>
</mgrwt>
</event>
<event>
 4    1  0.4043938E+000  0.1807751E+03  0.7546771E-02  0.1167055E+00
         21   -1    0    0  501  502  0.00000000000E+00  0.00000000000E+00  0.24079594484E+02  0.24079594484E+02  0.00000000000E+00 0.  1.
         21   -1    0    0  502  503 -0.00000000000E+00 -0.00000000000E+00 -0.13580789804E+04  0.13580789804E+04  0.00000000000E+00 0.  1.
          6    1    1    2  501    0 -0.50294274006E+02 -0.14869773079E+02 -0.68507328283E+03  0.70852313088E+03  0.17300000000E+03 0.  1.
         -6    1    1    2    0  503  0.50294274006E+02  0.14869773079E+02 -0.64892610310E+03  0.67363544402E+03  0.17300000000E+03 0.  1.
<mgrwt>
<rscale>  2 0.18077507E+03</rscale>
<asrwt>0</asrwt>
<pdfrwt beam="1">  1       21 0.37045532E-02 0.18077507E+03</pdfrwt>
<pdfrwt beam="2">  1       21 0.20893522E+00 0.18077507E+03</pdfrwt>
<totfact> 0.52922987E+04</totfact>
</mgrwt>
</event>
<event>
 4    1  0.4043938E+000  0.1869260E+03  0.7546771E-02  0.1161263E+00
         21   -1    0    0  503  502  0.00000000000E+00  0.00000000000E+00  0.70864990855E+02  0.70864990855E+02  0.00000000000E+00 0.  1.
         21   -1    0    0  501  503 -0.00000000000E+00 -0.00000000000E+00 -0.50997275399E+03  0.50997275399E+03  0.00000000000E+00 0.  1.
          6    1    1    2  501    0 -0.69514032953E+02  0.13420518340E+02 -0.27242839569E+03  0.33039149787E+03  0.17300000000E+03 0. -1.
         -6    1    1    2    0  502  0.69514032953E+02 -0.13420518340E+02 -0.16667936745E+03  0.25044624697E+03  0.17300000000E+03 0. -1.
<mgrwt>
<rscale>  2 0.18692595E+03</rscale>
<asrwt>0</asrwt>
<pdfrwt beam="1">  1       21 0.10902307E-01 0.18692595E+03</pdfrwt>
<pdfrwt beam="2">  1       21 0.78457344E-01 0.18692595E+03</pdfrwt>
<totfact> 0.10028913E+05</totfact>
</mgrwt>
</event>
<event>
 4    1  0.4043938E+000  0.1952234E+03  0.7546771E-02  0.1153833E+00
         21   -1    0    0  501  502  0.00000000000E+00  0.00000000000E+00  0.40171261248E+02  0.40171261248E+02  0.00000000000E+00 0. -1.
         21   -1    0    0  502  503 -0.00000000000E+00 -0.00000000000E+00 -0.11710716042E+04  0.11710716042E+04  0.00000000000E+00 0. -1.
          6    1    1    2  501    0 -0.47792141586E+02  0.76805399370E+02 -0.30156908134E+03  0.35924374593E+03  0.17300000000E+03 0. -1.
         -6    1    1    2    0  503  0.47792141586E+02 -0.76805399370E+02 -0.82933126156E+03  0.85199911947E+03  0.17300000000E+03 0. -1.
<mgrwt>
<rscale>  2 0.19522335E+03</rscale>
<asrwt>0</asrwt>
<pdfrwt beam="1">  1       21 0.61801950E-02 0.19522335E+03</pdfrwt>
<pdfrwt beam="2">  1       21 0.18016484E+00 0.19522335E+03</pdfrwt>
<totfact> 0.33959876E+04</totfact>
</mgrwt>
</event>
<event>
 4    1  0.4043938E+000  0.2695211E+03  0.7546771E-02  0.1101554E+00
         21   -1    0    0  501  502  0.00000000000E+00  0.00000000000E+00  0.17837126775E+03  0.17837126775E+03  0.00000000000E+00 0. -1.
         21   -1    0    0  502  503 -0.00000000000E+00 -0.00000000000E+00 -0.41273669296E+03  0.41273669296E+03  0.00000000000E+00 0. -1.
          6    1    1    2  501    0  0.19565435206E+03  0.66573252534E+02 -0.83104852066E+02  0.28204262066E+03  0.17300000000E+03 0. -1.
         -6    1    1    2    0  503 -0.19565435206E+03 -0.66573252534E+02 -0.15126057315E+03  0.30906534005E+03  0.17300000000E+03 0. -1.
<mgrwt>
<rscale>  2 0.26952110E+03</rscale>
<asrwt>0</asrwt>
<pdfrwt beam="1">  1       21 0.27441734E-01 0.26952110E+03</pdfrwt>
<pdfrwt beam="2">  1       21 0.63497953E-01 0.26952110E+03</pdfrwt>
<totfact> 0.27970788E+04</totfact>
</mgrwt>
</event>
<event>
 4    1  0.4043938E+000  0.2422468E+03  0.7546771E-02  0.1118305E+00
         21   -1    0    0  501  502  0.00000000000E+00  0.00000000000E+00  0.92332928021E+02  0.92332928021E+02  0.00000000000E+00 0. -1.
         21   -1    0    0  502  503 -0.00000000000E+00 -0.00000000000E+00 -0.10123745203E+04  0.10123745203E+04  0.00000000000E+00 0.  1.
          6    1    1    2  501    0  0.53328019957E+02  0.16096774399E+03 -0.12303767539E+03  0.27170160449E+03  0.17300000000E+03 0. -1.
         -6    1    1    2    0  503 -0.53328019957E+02 -0.16096774399E+03 -0.79700391690E+03  0.83300584384E+03  0.17300000000E+03 0.  1.
<mgrwt>
<rscale>  2 0.24224676E+03</rscale>
<asrwt>0</asrwt>
<pdfrwt beam="1">  1       21 0.14205067E-01 0.24224676E+03</pdfrwt>
<pdfrwt beam="2">  1       21 0.15574991E+00 0.24224676E+03</pdfrwt>
<totfact> 0.11323605E+04</totfact>
</mgrwt>
</event>
<event>
 4    1  0.4043938E+000  0.2359618E+03  0.7546771E-02  0.1122513E+00
         21   -1    0    0  501  502  0.00000000000E+00  0.00000000000E+00  0.12730132673E+03  0.12730132673E+03  0.00000000000E+00 0.  1.
         21   -1    0    0  502  503 -0.00000000000E+00 -0.00000000000E+00 -0.53234911731E+03  0.53234911731E+03  0.00000000000E+00 0.  1.
          6    1    1    2  501    0  0.54618672875E+02  0.15088336436E+03 -0.63209521555E+02  0.24428146201E+03  0.17300000000E+03 0.  1.
         -6    1    1    2    0  503 -0.54618672875E+02 -0.15088336436E+03 -0.34183826902E+03  0.41536898203E+03  0.17300000000E+03 0.  1.
<mgrwt>
<rscale>  2 0.23596184E+03</rscale>
<asrwt>0</asrwt>
<pdfrwt beam="1">  1       21 0.19584820E-01 0.23596184E+03</pdfrwt>
<pdfrwt beam="2">  1       21 0.81899864E-01 0.23596184E+03</pdfrwt>
<totfact> 0.30602637E+04</totfact>
</mgrwt>
</event>
<event>
 4    1  0.4043938E+000  0.1944364E+03  0.7546771E-02  0.1154520E+00
         21   -1    0    0  503  502  0.00000000000E+00  0.00000000000E+00  0.13527862277E+03  0.13527862277E+03  0.00000000000E+00 0. -1.
         21   -1    0    0  501  503 -0.00000000000E+00 -0.00000000000E+00 -0.32655289487E+03  0.32655289487E+03  0.00000000000E+00 0.  1.
          6    1    1    2  501    0 -0.70691082601E+02  0.53658848766E+02 -0.79499400792E+01  0.19459882517E+03  0.17300000000E+03 0. -1.
         -6    1    1    2    0  502  0.70691082601E+02 -0.53658848766E+02 -0.18332433202E+03  0.26723269246E+03  0.17300000000E+03 0.  1.
<mgrwt>
<rscale>  2 0.19443637E+03</rscale>
<asrwt>0</asrwt>
<pdfrwt beam="1">  1       21 0.20812096E-01 0.19443637E+03</pdfrwt>
<pdfrwt beam="2">  1       21 0.50238906E-01 0.19443637E+03</pdfrwt>
<totfact> 0.80777676E+04</totfact>
</mgrwt>
</event>
<event>
 4    1  0.4043938E+000  0.1769946E+03  0.7546771E-02  0.1170744E+00
         21   -1    0    0  501  502  0.00000000000E+00  0.00000000000E+00  0.50488135295E+02  0.50488135295E+02  0.00000000000E+00 0. -1.
         21   -1    0    0  502  503 -0.00000000000E+00 -0.00000000000E+00 -0.62719538935E+03  0.62719538935E+03  0.00000000000E+00 0. -1.
          6    1    1    2  501    0  0.18957358001E+02  0.32229058798E+02 -0.32340403366E+03  0.36866958464E+03  0.17300000000E+03 0. -1.
         -6    1    1    2    0  503 -0.18957358001E+02 -0.32229058798E+02 -0.25330322040E+03  0.30901394000E+03  0.17300000000E+03 0. -1.
<mgrwt>
<rscale>  2 0.17699461E+03</rscale>
<asrwt>0</asrwt>
<pdfrwt beam="1">  1       21 0.77674056E-02 0.17699461E+03</pdfrwt>
<pdfrwt beam="2">  1       21 0.96491596E-01 0.17699461E+03</pdfrwt>
<totfact> 0.11351738E+05</totfact>
</mgrwt>
</event>
<event>
 4    1  0.4043938E+000  0.2032550E+03  0.7546771E-02  0.1147021E+00
         21   -1    0    0  503  502  0.00000000000E+00  0.00000000000E+00  0.10028051782E+04  0.10028051782E+04  0.00000000000E+00 0. -1.
         21   -1    0    0  501  503 -0.00000000000E+00 -0.00000000000E+00 -0.61003887920E+02  0.61003887920E+02  0.00000000000E+00 0. -1.
          6    1    1    2  501    0 -0.83675127497E+02 -0.66197304277E+02  0.16781695733E+03  0.26358137495E+03  0.17300000000E+03 0. -1.
         -6    1    1    2    0  502  0.83675127497E+02  0.66197304277E+02  0.77398433291E+03  0.80022769113E+03  0.17300000000E+03 0. -1.
<mgrwt>
<rscale>  2 0.20325504E+03</rscale>
<asrwt>0</asrwt>
<pdfrwt beam="1">  1       21 0.15427771E+00 0.20325504E+03</pdfrwt>
<pdfrwt beam="2">  1       21 0.93852143E-02 0.20325504E+03</pdfrwt>
<totfact> 0.25008518E+04</totfact>
</mgrwt>
</event>
<event>
 4    1  0.4043938E+000  0.1838899E+03  0.7546771E-02  0.1164091E+00
         21   -1    0    0  503  502  0.00000000000E+00  0.00000000000E+00  0.43183766447E+03  0.43183766447E+03  0.00000000000E+00 0. -1.
         21   -1    0    0  501  503 -0.00000000000E+00 -0.00000000000E+00 -0.87543196136E+02  0.87543196136E+02  0.00000000000E+00 0. -1.
          6    1    1    2  501    0  0.62042974092E+02 -0.60952689534E+01  0.87791486722E+02  0.20377150949E+03  0.17300000000E+03 0. -1.
         -6    1    1    2    0  502 -0.62042974092E+02  0.60952689534E+01  0.25650298162E+03  0.31560935112E+03  0.17300000000E+03 0. -1.
<mgrwt>
<rscale>  2 0.18388987E+03</rscale>
<asrwt>0</asrwt>
<pdfrwt beam="1">  1       21 0.66436563E-01 0.18388987E+03</pdfrwt>
<pdfrwt beam="2">  1       21 0.13468184E-01 0.18388987E+03</pdfrwt>
<totfact> 0.99435530E+04</totfact>
</mgrwt>
</event>
<event>
 4    1  0.4043938E+000  0.1795387E+03  0.7546771E-02  0.1168250E+00
         21   -1    0    0  501  502  0.00000000000E+00  0.00000000000E+00  0.98209249762E+03  0.98209249762E+03  0.00000000000E+00 0. -1.
         21   -1    0    0  502  503 -0.00000000000E+00 -0.00000000000E+00 -0.33960005573E+02  0.33960005573E+02  0.00000000000E+00 0. -1.
          6    1    1    2  501    0 -0.15170977676E+02  0.45552074110E+02  0.56706817277E+03  0.59481128318E+03  0.17300000000E+03 0.  1.
         -6    1    1    2    0  503  0.15170977676E+02 -0.45552074110E+02  0.38106431927E+03  0.42124122001E+03  0.17300000000E+03 0.  1.
<mgrwt>
<rscale>  2 0.17953871E+03</rscale>
<asrwt>0</asrwt>
<pdfrwt beam="1">  1       21 0.15109113E+00 0.17953871E+03</pdfrwt>
<pdfrwt beam="2">  1       21 0.52246170E-02 0.17953871E+03</pdfrwt>
<totfact> 0.73708977E+04</totfact>
</mgrwt>
</event>
<event>
 4    1  0.4043938E+000  0.2527586E+03  0.7546771E-02  0.1111574E+00
         21   -1    0    0  501  502  0.00000000000E+00  0.00000000000E+00  0.28914093681E+03  0.28914093681E+03  0.00000000000E+00 0.  1.
         21   -1    0    0  502  503 -0.00000000000E+00 -0.00000000000E+00 -0.23693545328E+03  0.23693545328E+03  0.00000000000E+00 0.  1.
          6    1    1    2  501    0  0.11580491880E+03  0.14334269838E+03  0.94416632251E+02  0.26981736201E+03  0.17300000000E+03 0.  1.
         -6    1    1    2    0  503 -0.11580491880E+03 -0.14334269838E+03 -0.42211148724E+02  0.25625902808E+03  0.17300000000E+03 0.  1.
<mgrwt>
<rscale>  2 0.25275860E+03</rscale>
<asrwt>0</asrwt>
<pdfrwt beam="1">  1       21 0.44483221E-01 0.25275860E+03</pdfrwt>
<pdfrwt beam="2">  1       21 0.36451608E-01 0.25275860E+03</pdfrwt>
<totfact> 0.34211631E+04</totfact>
</mgrwt>
</event>
<event>
 4    1  0.4043938E+000  0.4074768E+03  0.7546771E-02  0.1041221E+00
         21   -1    0    0  503  502  0.00000000000E+00  0.00000000000E+00  0.90482928551E+03  0.90482928551E+03  0.00000000000E+00 0.  1.
         21   -1    0    0  501  503 -0.00000000000E+00 -0.00000000000E+00 -0.18373246364E+03  0.18373246364E+03  0.00000000000E+00 0. -1.
          6    1    1    2  501    0  0.13596603811E+03  0.34296001397E+03  0.37985501765E+03  0.55707016536E+03  0.17300000000E+03 0. -1.
         -6    1    1    2    0  502 -0.13596603811E+03 -0.34296001397E+03  0.34124180422E+03  0.53149158380E+03  0.17300000000E+03 0. -1.
<mgrwt>
<rscale>  2 0.40747679E+03</rscale>
<asrwt>0</asrwt>
<pdfrwt beam="1">  1       21 0.13920450E+00 0.40747679E+03</pdfrwt>
<pdfrwt beam="2">  1       21 0.28266533E-01 0.40747679E+03</pdfrwt>
<totfact> 0.38337286E+03</totfact>
</mgrwt>
</event>
<event>
 4    1  0.4043938E+000  0.1843283E+03  0.7546771E-02  0.1163679E+00
         21   -1    0    0  503  502  0.00000000000E+00  0.00000000000E+00  0.45901983282E+02  0.45901983282E+02  0.00000000000E+00 0.  1.
         21   -1    0    0  501  503 -0.00000000000E+00 -0.00000000000E+00 -0.92176551476E+03  0.92176551476E+03  0.00000000000E+00 0.  1.
          6    1    1    2  501    0  0.11438020926E+02  0.62586728399E+02 -0.65266306263E+03  0.67819318797E+03  0.17300000000E+03 0.  1.
         -6    1    1    2    0  502 -0.11438020926E+02 -0.62586728399E+02 -0.22320046885E+03  0.28947431007E+03  0.17300000000E+03 0.  1.
<mgrwt>
<rscale>  2 0.18432831E+03</rscale>
<asrwt>0</asrwt>
<pdfrwt beam="1">  1       21 0.70618441E-02 0.18432831E+03</pdfrwt>
<pdfrwt beam="2">  1       21 0.14181007E+00 0.18432831E+03</pdfrwt>
<totfact> 0.51800172E+04</totfact>
</mgrwt>
</event>
<event>
 4    1  0.4043938E+000  0.2168723E+03  0.7546771E-02  0.1136237E+00
         21   -1    0    0  503  502  0.00000000000E+00  0.00000000000E+00  0.25001096836E+03  0.25001096836E+03  0.00000000000E+00 0.  1.
         21   -1    0    0  501  503 -0.00000000000E+00 -0.00000000000E+00 -0.18856825983E+03  0.18856825983E+03  0.00000000000E+00 0.  1.
          6    1    1    2  501    0  0.64791054093E+02 -0.11360765963E+03  0.41340460884E+02  0.22077729666E+03  0.17300000000E+03 0.  1.
         -6    1    1    2    0  502 -0.64791054093E+02  0.11360765963E+03  0.20102247652E+02  0.21780193153E+03  0.17300000000E+03 0.  1.
<mgrwt>
<rscale>  2 0.21687227E+03</rscale>
<asrwt>0</asrwt>
<pdfrwt beam="1">  1       21 0.38463226E-01 0.21687227E+03</pdfrwt>
<pdfrwt beam="2">  1       21 0.29010502E-01 0.21687227E+03</pdfrwt>
<totfact> 0.73372115E+04</totfact>
</mgrwt>
</event>
<event>
 4    1  0.4043938E+000  0.2513290E+03  0.7546771E-02  0.1112468E+00
         21   -1    0    0  503  502  0.00000000000E+00  0.00000000000E+00  0.64208651976E+02  0.64208651976E+02  0.00000000000E+00 0. -1.
         21   -1    0    0  501  503 -0.00000000000E+00 -0.00000000000E+00 -0.10095285368E+04  0.10095285368E+04  0.00000000000E+00 0.  1.
          6    1    1    2  501    0 -0.12270825110E+03  0.13483313109E+03 -0.38689632526E+03  0.46136217295E+03  0.17300000000E+03 0. -1.
         -6    1    1    2    0  502  0.12270825110E+03 -0.13483313109E+03 -0.55842355952E+03  0.61237501579E+03  0.17300000000E+03 0. -1.
<mgrwt>
<rscale>  2 0.25132904E+03</rscale>
<asrwt>0</asrwt>
<pdfrwt beam="1">  1       21 0.98782542E-02 0.25132904E+03</pdfrwt>
<pdfrwt beam="2">  1       21 0.15531208E+00 0.25132904E+03</pdfrwt>
<totfact> 0.21813402E+04</totfact>
</mgrwt>
</event>
<event>
 4    1  0.4043938E+000  0.8379139E+03  0.7546771E-02  0.9506704E-01
         21   -1    0    0  501  502  0.00000000000E+00  0.00000000000E+00  0.10241110778E+04  0.10241110778E+04  0.00000000000E+00 0.  1.
         21   -1    0    0  502  503 -0.00000000000E+00 -0.00000000000E+00 -0.68872052081E+03  0.68872052081E+03  0.00000000000E+00 0. -1.
          6    1    1    2  501    0  0.40153446187E+03  0.71480121074E+03  0.22561994404E+03  0.86775806196E+03  0.17300000000E+03 0.  1.
         -6    1    1    2    0  503 -0.40153446187E+03 -0.71480121074E+03  0.10977061300E+03  0.84507353669E+03  0.17300000000E+03 0. -1.
<mgrwt>
<rscale>  2 0.83791389E+03</rscale>
<asrwt>0</asrwt>
<pdfrwt beam="1">  1       21 0.15755555E+00 0.83791389E+03</pdfrwt>
<pdfrwt beam="2">  1       21 0.10595700E+00 0.83791389E+03</pdfrwt>
<totfact> 0.13135938E+02</totfact>
</mgrwt>
</event>
<event>
 4    1  0.4043938E+000  0.2102753E+03  0.7546771E-02  0.1141348E+00
         21   -1    0    0  501  502  0.00000000000E+00  0.00000000000E+00  0.27785172069E+03  0.27785172069E+03  0.00000000000E+00 0.  1.
         21   -1    0    0  502  503 -0.00000000000E+00 -0.00000000000E+00 -0.16231766961E+03  0.16231766961E+03  0.00000000000E+00 0.  1.
          6    1    1    2  501    0 -0.11659885405E+03 -0.26294803082E+02  0.88588808117E+02  0.22817468387E+03  0.17300000000E+03 0.  1.
         -6    1    1    2    0  503  0.11659885405E+03  0.26294803082E+02  0.26945242959E+02  0.21199470643E+03  0.17300000000E+03 0.  1.
<mgrwt>
<rscale>  2 0.21027532E+03</rscale>
<asrwt>0</asrwt>
<pdfrwt beam="1">  1       21 0.42746419E-01 0.21027532E+03</pdfrwt>
<pdfrwt beam="2">  1       21 0.24971949E-01 0.21027532E+03</pdfrwt>
<totfact> 0.79303226E+04</totfact>
</mgrwt>
</event>
<event>
 4    1  0.4043938E+000  0.1895394E+03  0.7546771E-02  0.1158877E+00
         21   -1    0    0  503  502  0.00000000000E+00  0.00000000000E+00  0.48750688085E+03  0.48750688085E+03  0.00000000000E+00 0. -1.
         21   -1    0    0  501  503 -0.00000000000E+00 -0.00000000000E+00 -0.10709836006E+03  0.10709836006E+03  0.00000000000E+00 0. -1.
          6    1    1    2  501    0 -0.15877725385E+02  0.75789611528E+02  0.24159783332E+02  0.19107292459E+03  0.17300000000E+03 0. -1.
         -6    1    1    2    0  502  0.15877725385E+02 -0.75789611528E+02  0.35624873746E+03  0.40353231633E+03  0.17300000000E+03 0. -1.
<mgrwt>
<rscale>  2 0.18953936E+03</rscale>
<asrwt>0</asrwt>
<pdfrwt beam="1">  1       21 0.75001058E-01 0.18953936E+03</pdfrwt>
<pdfrwt beam="2">  1       21 0.16476671E-01 0.18953936E+03</pdfrwt>
<totfact> 0.52610385E+04</totfact>
</mgrwt>
</event>
<event>
 4    1  0.4043938E+000  0.1932027E+03  0.7546771E-02  0.1155604E+00
         21   -1    0    0  503  502  0.00000000000E+00  0.00000000000E+00  0.93081086331E+03  0.93081086331E+03  0.00000000000E+00 0. -1.
         21   -1    0    0  501  503 -0.00000000000E+00 -0.00000000000E+00 -0.81450354106E+02  0.81450354106E+02  0.00000000000E+00 0. -1.
          6    1    1    2  501    0  0.57425353164E+02  0.64036058901E+02  0.78529686829E+03  0.80871407764E+03  0.17300000000E+03 0. -1.
         -6    1    1    2    0  502 -0.57425353164E+02 -0.64036058901E+02  0.64063640919E+02  0.20354713978E+03  0.17300000000E+03 0. -1.
<mgrwt>
<rscale>  2 0.19320271E+03</rscale>
<asrwt>0</asrwt>
<pdfrwt beam="1">  1       21 0.14320166E+00 0.19320271E+03</pdfrwt>
<pdfrwt beam="2">  1       21 0.12530824E-01 0.19320271E+03</pdfrwt>
<totfact> 0.18319063E+04</totfact>
</mgrwt>
</event>
<event>
 4    1  0.4043938E+000  0.1734887E+03  0.7546771E-02  0.1174258E+00
         21   -1    0    0  501  502  0.00000000000E+00  0.00000000000E+00  0.24872720896E+02  0.24872720896E+02  0.00000000000E+00 0.  1.
         21   -1    0    0  502  503 -0.00000000000E+00 -0.00000000000E+00 -0.18988578684E+04  0.18988578684E+04  0.00000000000E+00 0.  1.
          6    1    1    2  501    0 -0.89811325700E+01  0.94158135954E+01 -0.35769280301E+03  0.39754554407E+03  0.17300000000E+03 0. -1.
         -6    1    1    2    0  503  0.89811325700E+01 -0.94158135954E+01 -0.15162923445E+04  0.15261850452E+04  0.17300000000E+03 0. -1.
<mgrwt>
<rscale>  2 0.17348867E+03</rscale>
<asrwt>0</asrwt>
<pdfrwt beam="1">  1       21 0.38265704E-02 0.17348867E+03</pdfrwt>
<pdfrwt beam="2">  1       21 0.29213214E+00 0.17348867E+03</pdfrwt>
<totfact> 0.16314006E+04</totfact>
</mgrwt>
</event>
<event>
 4    1  0.4043938E+000  0.1953547E+03  0.7546771E-02  0.1153718E+00
         21   -1    0    0  501  502  0.00000000000E+00  0.00000000000E+00  0.46971470898E+02  0.46971470898E+02  0.00000000000E+00 0. -1.
         21   -1    0    0  502  503 -0.00000000000E+00 -0.00000000000E+00 -0.92514685629E+03  0.92514685629E+03  0.00000000000E+00 0.  1.
          6    1    1    2  501    0  0.80932278977E+02  0.41041815481E+02 -0.26946714961E+03  0.33283030078E+03  0.17300000000E+03 0.  1.
         -6    1    1    2    0  503 -0.80932278977E+02 -0.41041815481E+02 -0.60870823579E+03  0.63928802641E+03  0.17300000000E+03 0.  1.
<mgrwt>
<rscale>  2 0.19535471E+03</rscale>
<asrwt>0</asrwt>
<pdfrwt beam="1">  1       21 0.72263811E-02 0.19535471E+03</pdfrwt>
<pdfrwt beam="2">  1       21 0.14233027E+00 0.19535471E+03</pdfrwt>
<totfact> 0.49012191E+04</totfact>
</mgrwt>
</event>
<event>
 4    1  0.4043938E+000  0.2216432E+03  0.7546771E-02  0.1132664E+00
         21   -1    0    0  503  502  0.00000000000E+00  0.00000000000E+00  0.21474612334E+03  0.21474612334E+03  0.00000000000E+00 0. -1.
         21   -1    0    0  501  503 -0.00000000000E+00 -0.00000000000E+00 -0.43813546806E+03  0.43813546806E+03  0.00000000000E+00 0. -1.
          6    1    1    2  501    0  0.41765703466E+02  0.13210735707E+03 -0.33735809224E+03  0.40365357694E+03  0.17300000000E+03 0. -1.
         -6    1    1    2    0  502 -0.41765703466E+02 -0.13210735707E+03  0.11396874752E+03  0.24922801446E+03  0.17300000000E+03 0. -1.
<mgrwt>
<rscale>  2 0.22164324E+03</rscale>
<asrwt>0</asrwt>
<pdfrwt beam="1">  1       21 0.33037865E-01 0.22164324E+03</pdfrwt>
<pdfrwt beam="2">  1       21 0.67405457E-01 0.22164324E+03</pdfrwt>
<totfact> 0.17452186E+04</totfact>
</mgrwt>
</event>
<event>
 4    1  0.4043938E+000  0.1921556E+03  0.7546771E-02  0.1156531E+00
         21   -1    0    0  501  502  0.00000000000E+00  0.00000000000E+00  0.22341882828E+03  0.22341882828E+03  0.00000000000E+00 0.  1.
         21   -1    0    0  502  503 -0.00000000000E+00 -0.00000000000E+00 -0.28951705494E+03  0.28951705494E+03  0.00000000000E+00 0.  1.
          6    1    1    2  501    0 -0.82079985094E+02 -0.16052003793E+02  0.13496434065E+03  0.23481729925E+03  0.17300000000E+03 0.  1.
         -6    1    1    2    0  503  0.82079985094E+02  0.16052003793E+02 -0.20106256731E+03  0.27811858398E+03  0.17300000000E+03 0.  1.
<mgrwt>
<rscale>  2 0.19215564E+03</rscale>
<asrwt>0</asrwt>
<pdfrwt beam="1">  1       21 0.34372127E-01 0.19215564E+03</pdfrwt>
<pdfrwt beam="2">  1       21 0.44541085E-01 0.19215564E+03</pdfrwt>
<totfact> 0.39486691E+04</totfact>
</mgrwt>
</event>
<event>
 4    1  0.4043938E+000  0.1758778E+03  0.7546771E-02  0.1171853E+00
         21   -1    0    0  501  502  0.00000000000E+00  0.00000000000E+00  0.65211977474E+03  0.65211977474E+03  0.00000000000E+00 0.  1.
         21   -1    0    0  502  503 -0.00000000000E+00 -0.00000000000E+00 -0.91654388708E+02  0.91654388708E+02  0.00000000000E+00 0.  1.
          6    1    1    2  501    0  0.74819407139E+01 -0.30789941173E+02  0.53854381054E+03  0.56653546737E+03  0.17300000000E+03 0.  1.
         -6    1    1    2    0  503 -0.74819407139E+01  0.30789941173E+02  0.21921575485E+02  0.17723869607E+03  0.17300000000E+03 0.  1.
<mgrwt>
<rscale>  2 0.17587780E+03</rscale>
<asrwt>0</asrwt>
<pdfrwt beam="1">  1       21 0.10032612E+00 0.17587780E+03</pdfrwt>
<pdfrwt beam="2">  1       21 0.14100676E-01 0.17587780E+03</pdfrwt>
<totfact> 0.36084484E+04</totfact>
</mgrwt>
</event>
<event>
 4    1  0.4043938E+000  0.2112121E+03  0.7546771E-02  0.1140610E+00
         21   -1    0    0  503  502  0.00000000000E+00  0.00000000000E+00  0.22374884926E+03  0.22374884926E+03  0.00000000000E+00 0. -1.
         21   -1    0    0  501  503 -0.00000000000E+00 -0.00000000000E+00 -0.19956395879E+03  0.19956395879E+03  0.00000000000E+00 0. -1.
          6    1    1    2  501    0  0.64836621833E+02 -0.10236094486E+03  0.56277732746E+01  0.21128706159E+03  0.17300000000E+03 0. -1.
         -6    1    1    2    0  502 -0.64836621833E+02  0.10236094486E+03  0.18557117193E+02  0.21202574646E+03  0.17300000000E+03 0. -1.
<mgrwt>
<rscale>  2 0.21121210E+03</rscale>
<asrwt>0</asrwt>
<pdfrwt beam="1">  1       21 0.34422900E-01 0.21121210E+03</pdfrwt>
<pdfrwt beam="2">  1       21 0.30702147E-01 0.21121210E+03</pdfrwt>
<totfact> 0.82196477E+04</totfact>
</mgrwt>
</event>
<event>
 4    1  0.4043938E+000  0.2230694E+03  0.7546771E-02  0.1131615E+00
         21   -1    0    0  501  502  0.00000000000E+00  0.00000000000E+00  0.21007957338E+03  0.21007957338E+03  0.00000000000E+00 0.  1.
         21   -1    0    0  502  503 -0.00000000000E+00 -0.00000000000E+00 -0.26351446729E+03  0.26351446729E+03  0.00000000000E+00 0.  1.
          6    1    1    2  501    0 -0.13979654098E+03 -0.16966983410E+02  0.48590268532E+02  0.22830016555E+03  0.17300000000E+03 0.  1.
         -6    1    1    2    0  503  0.13979654098E+03  0.16966983410E+02 -0.10202516244E+03  0.24529387511E+03  0.17300000000E+03 0.  1.
<mgrwt>
<rscale>  2 0.22306939E+03</rscale>
<asrwt>0</asrwt>
<pdfrwt beam="1">  1       21 0.32319934E-01 0.22306939E+03</pdfrwt>
<pdfrwt beam="2">  1       21 0.40540688E-01 0.22306939E+03</pdfrwt>
<totfact> 0.53238623E+04</totfact>
</mgrwt>
</event>
<event>
 4    1  0.4043938E+000  0.2209973E+03  0.7546771E-02  0.1133142E+00
         21   -1    0    0  501  502  0.00000000000E+00  0.00000000000E+00  0.42209281157E+03  0.42209281157E+03  0.00000000000E+00 0.  1.
         21   -1    0    0  502  503 -0.00000000000E+00 -0.00000000000E+00 -0.11594909397E+03  0.11594909397E+03  0.00000000000E+00 0. -1.
          6    1    1    2  501    0  0.11792547379E+03 -0.70741782000E+02  0.16532084430E+03  0.27599057710E+03  0.17300000000E+03 0. -1.
         -6    1    1    2    0  503 -0.11792547379E+03  0.70741782000E+02  0.14082287331E+03  0.26205132844E+03  0.17300000000E+03 0.  1.
<mgrwt>
<rscale>  2 0.22099732E+03</rscale>
<asrwt>0</asrwt>
<pdfrwt beam="1">  1       21 0.64937355E-01 0.22099732E+03</pdfrwt>
<pdfrwt beam="2">  1       21 0.17838322E-01 0.22099732E+03</pdfrwt>
<totfact> 0.61553346E+04</totfact>
</mgrwt>
</event>
<event>
 4    1  0.4043938E+000  0.1837919E+03  0.7546771E-02  0.1164183E+00
         21   -1    0    0  501  502  0.00000000000E+00  0.00000000000E+00  0.22857896499E+03  0.22857896499E+03  0.00000000000E+00 0. -1.
         21   -1    0    0  502  503 -0.00000000000E+00 -0.00000000000E+00 -0.15112847609E+03  0.15112847609E+03  0.00000000000E+00 0. -1.
          6    1    1    2  501    0  0.44463979637E+02 -0.43282849070E+02  0.66984132870E+02  0.19561780227E+03  0.17300000000E+03 0. -1.
         -6    1    1    2    0  503 -0.44463979637E+02  0.43282849070E+02  0.10466356023E+02  0.18408963881E+03  0.17300000000E+03 0. -1.
<mgrwt>
<rscale>  2 0.18379187E+03</rscale>
<asrwt>0</asrwt>
<pdfrwt beam="1">  1       21 0.35165994E-01 0.18379187E+03</pdfrwt>
<pdfrwt beam="2">  1       21 0.23250535E-01 0.18379187E+03</pdfrwt>
<totfact> 0.13595382E+05</totfact>
</mgrwt>
</event>
<event>
 4    1  0.4043938E+000  0.1838309E+03  0.7546771E-02  0.1164146E+00
         21   -1    0    0  503  502  0.00000000000E+00  0.00000000000E+00  0.58475552362E+02  0.58475552362E+02  0.00000000000E+00 0.  1.
         21   -1    0    0  501  503 -0.00000000000E+00 -0.00000000000E+00 -0.69595834084E+03  0.69595834084E+03  0.00000000000E+00 0.  1.
          6    1    1    2  501    0 -0.51243739153E+02  0.35197612014E+02 -0.16338695821E+03  0.24594530044E+03  0.17300000000E+03 0.  1.
         -6    1    1    2    0  502  0.51243739153E+02 -0.35197612014E+02 -0.47409583027E+03  0.50848859276E+03  0.17300000000E+03 0.  1.
<mgrwt>
<rscale>  2 0.18383088E+03</rscale>
<asrwt>0</asrwt>
<pdfrwt beam="1">  1       21 0.89962388E-02 0.18383088E+03</pdfrwt>
<pdfrwt beam="2">  1       21 0.10707051E+00 0.18383088E+03</pdfrwt>
<totfact> 0.68423028E+04</totfact>
</mgrwt>
</event>
<event>
 4    1  0.4043938E+000  0.1992069E+03  0.7546771E-02  0.1150410E+00
         21   -1    0    0  501  502  0.00000000000E+00  0.00000000000E+00  0.59698561566E+02  0.59698561566E+02  0.00000000000E+00 0.  1.
         21   -1    0    0  502  503 -0.00000000000E+00 -0.00000000000E+00 -0.13621441050E+04  0.13621441050E+04  0.00000000000E+00 0.  1.
          6    1    1    2  501    0  0.87875539213E+02  0.45080953379E+02 -0.14253008082E+03  0.24494535449E+03  0.17300000000E+03 0.  1.
         -6    1    1    2    0  503 -0.87875539213E+02 -0.45080953379E+02 -0.11599154626E+04  0.11768973121E+04  0.17300000000E+03 0.  1.
<mgrwt>
<rscale>  2 0.19920693E+03</rscale>
<asrwt>0</asrwt>
<pdfrwt beam="1">  1       21 0.91843936E-02 0.19920693E+03</pdfrwt>
<pdfrwt beam="2">  1       21 0.20956064E+00 0.19920693E+03</pdfrwt>
<totfact> 0.10947117E+04</totfact>
</mgrwt>
</event>
<event>
 4    1  0.4043938E+000  0.2423496E+03  0.7546771E-02  0.1118237E+00
         21   -1    0    0  503  502  0.00000000000E+00  0.00000000000E+00  0.91684845184E+02  0.91684845184E+02  0.00000000000E+00 0.  1.
         21   -1    0    0  501  503 -0.00000000000E+00 -0.00000000000E+00 -0.97285361850E+03  0.97285361850E+03  0.00000000000E+00 0. -1.
          6    1    1    2  501    0 -0.70607752188E+01  0.16957139242E+03 -0.75164317340E+03  0.78974728350E+03  0.17300000000E+03 0.  1.
         -6    1    1    2    0  502  0.70607752188E+01 -0.16957139242E+03 -0.12952559992E+03  0.27479118019E+03  0.17300000000E+03 0. -1.
<mgrwt>
<rscale>  2 0.24234957E+03</rscale>
<asrwt>0</asrwt>
<pdfrwt beam="1">  1       21 0.14105361E-01 0.24234957E+03</pdfrwt>
<pdfrwt beam="2">  1       21 0.14966979E+00 0.24234957E+03</pdfrwt>
<totfact> 0.12756014E+04</totfact>
</mgrwt>
</event>
<event>
 4    1  0.4043938E+000  0.2017566E+03  0.7546771E-02  0.1148265E+00
         21   -1    0    0  503  502  0.00000000000E+00  0.00000000000E+00  0.22568487128E+03  0.22568487128E+03  0.00000000000E+00 0. -1.
         21   -1    0    0  501  503 -0.00000000000E+00 -0.00000000000E+00 -0.32375678307E+03  0.32375678307E+03  0.00000000000E+00 0. -1.
          6    1    1    2  501    0  0.37584735506E+02 -0.96768334524E+02  0.13379250486E+03  0.24208708612E+03  0.17300000000E+03 0. -1.
         -6    1    1    2    0  502 -0.37584735506E+02  0.96768334524E+02 -0.23186441665E+03  0.30735456824E+03  0.17300000000E+03 0. -1.
<mgrwt>
<rscale>  2 0.20175659E+03</rscale>
<asrwt>0</asrwt>
<pdfrwt beam="1">  1       21 0.34720749E-01 0.20175659E+03</pdfrwt>
<pdfrwt beam="2">  1       21 0.49808736E-01 0.20175659E+03</pdfrwt>
<totfact> 0.30557203E+04</totfact>
</mgrwt>
</event>
<event>
 4    1  0.4043938E+000  0.2563343E+03  0.7546771E-02  0.1109366E+00
         21   -1    0    0  503  502  0.00000000000E+00  0.00000000000E+00  0.17429357359E+03  0.17429357359E+03  0.00000000000E+00 0.  1.
         21   -1    0    0  501  503 -0.00000000000E+00 -0.00000000000E+00 -0.38356954301E+03  0.38356954301E+03  0.00000000000E+00 0. -1.
          6    1    1    2  501    0  0.13410754154E+03 -0.13339210263E+03 -0.68111581863E+02  0.26522909593E+03  0.17300000000E+03 0.  1.
         -6    1    1    2    0  502 -0.13410754154E+03  0.13339210263E+03 -0.14116438756E+03  0.29263402068E+03  0.17300000000E+03 0. -1.
<mgrwt>
<rscale>  2 0.25633432E+03</rscale>
<asrwt>0</asrwt>
<pdfrwt beam="1">  1       21 0.26814397E-01 0.25633432E+03</pdfrwt>
<pdfrwt beam="2">  1       21 0.59010698E-01 0.25633432E+03</pdfrwt>
<totfact> 0.34491589E+04</totfact>
</mgrwt>
</event>
<event>
 4    1  0.4043938E+000  0.2607642E+03  0.7546771E-02  0.1106685E+00
         21   -1    0    0  503  502  0.00000000000E+00  0.00000000000E+00  0.29279807898E+03  0.29279807898E+03  0.00000000000E+00 0.  1.
         21   -1    0    0  501  503 -0.00000000000E+00 -0.00000000000E+00 -0.30201778945E+03  0.30201778945E+03  0.00000000000E+00 0.  1.
          6    1    1    2  501    0  0.14044309259E+01  0.19510770083E+03 -0.14756842027E+03  0.29962380748E+03  0.17300000000E+03 0.  1.
         -6    1    1    2    0  502 -0.14044309259E+01 -0.19510770083E+03  0.13834870979E+03  0.29519206095E+03  0.17300000000E+03 0.  1.
<mgrwt>
<rscale>  2 0.26076424E+03</rscale>
<asrwt>0</asrwt>
<pdfrwt beam="1">  1       21 0.45045858E-01 0.26076424E+03</pdfrwt>
<pdfrwt beam="2">  1       21 0.46464275E-01 0.26076424E+03</pdfrwt>
<totfact> 0.20233244E+04</totfact>
</mgrwt>
</event>
<event>
 4    1  0.4043938E+000  0.2230286E+03  0.7546771E-02  0.1131645E+00
         21   -1    0    0  503  502  0.00000000000E+00  0.00000000000E+00  0.15666985200E+03  0.15666985200E+03  0.00000000000E+00 0. -1.
         21   -1    0    0  501  503 -0.00000000000E+00 -0.00000000000E+00 -0.41723542001E+03  0.41723542001E+03  0.00000000000E+00 0. -1.
          6    1    1    2  501    0  0.93910115852E+02 -0.10485069323E+03 -0.27058252042E+03  0.35065179036E+03  0.17300000000E+03 0. -1.
         -6    1    1    2    0  502 -0.93910115852E+02  0.10485069323E+03  0.10016952411E+02  0.22325348164E+03  0.17300000000E+03 0. -1.
<mgrwt>
<rscale>  2 0.22302865E+03</rscale>
<asrwt>0</asrwt>
<pdfrwt beam="1">  1       21 0.24103054E-01 0.22302865E+03</pdfrwt>
<pdfrwt beam="2">  1       21 0.64190064E-01 0.22302865E+03</pdfrwt>
<totfact> 0.35807590E+04</totfact>
</mgrwt>
</event>
<event>
 4    1  0.4043938E+000  0.1951855E+03  0.7546771E-02  0.1153866E+00
         21   -1    0    0  503  502  0.00000000000E+00  0.00000000000E+00  0.36256926531E+03  0.36256926531E+03  0.00000000000E+00 0. -1.
         21   -1    0    0  501  503 -0.00000000000E+00 -0.00000000000E+00 -0.14116120667E+03  0.14116120667E+03  0.00000000000E+00 0.  1.
          6    1    1    2  501    0  0.34053409337E+02  0.83718274114E+02 -0.16638718190E+02  0.19589341758E+03  0.17300000000E+03 0.  1.
         -6    1    1    2    0  502 -0.34053409337E+02 -0.83718274114E+02  0.23804677683E+03  0.30783705441E+03  0.17300000000E+03 0. -1.
<mgrwt>
<rscale>  2 0.19518551E+03</rscale>
<asrwt>0</asrwt>
<pdfrwt beam="1">  1       21 0.55779887E-01 0.19518551E+03</pdfrwt>
<pdfrwt beam="2">  1       21 0.21717109E-01 0.19518551E+03</pdfrwt>
<totfact> 0.59814723E+04</totfact>
</mgrwt>
</event>
<event>
 4    1  0.4043938E+000  0.2317451E+03  0.7546771E-02  0.1125418E+00
         21   -1    0    0  503  502  0.00000000000E+00  0.00000000000E+00  0.42627589214E+03  0.42627589214E+03  0.00000000000E+00 0.  1.
         21   -1    0    0  501  503 -0.00000000000E+00 -0.00000000000E+00 -0.22822508252E+03  0.22822508252E+03  0.00000000000E+00 0. -1.
          6    1    1    2  501    0  0.39268748808E+02 -0.14911317204E+03 -0.12000389439E+03  0.26097261806E+03  0.17300000000E+03 0. -1.
         -6    1    1    2    0  502 -0.39268748808E+02  0.14911317204E+03  0.31805470401E+03  0.39352835660E+03  0.17300000000E+03 0.  1.
<mgrwt>
<rscale>  2 0.23174506E+03</rscale>
<asrwt>0</asrwt>
<pdfrwt beam="1">  1       21 0.65580907E-01 0.23174506E+03</pdfrwt>
<pdfrwt beam="2">  1       21 0.35111551E-01 0.23174506E+03</pdfrwt>
<totfact> 0.16332395E+04</totfact>
</mgrwt>
</event>
<event>
 4    1  0.4043938E+000  0.2048708E+03  0.7546771E-02  0.1145693E+00
         21   -1    0    0  503  502  0.00000000000E+00  0.00000000000E+00  0.11005493789E+03  0.11005493789E+03  0.00000000000E+00 0.  1.
         21   -1    0    0  501  503 -0.00000000000E+00 -0.00000000000E+00 -0.47237047177E+03  0.47237047177E+03  0.00000000000E+00 0.  1.
          6    1    1    2  501    0 -0.89543856790E+02  0.63442357394E+02 -0.30897295327E+03  0.37072404947E+03  0.17300000000E+03 0.  1.
         -6    1    1    2    0  502  0.89543856790E+02 -0.63442357394E+02 -0.53342580600E+02  0.21170136019E+03  0.17300000000E+03 0.  1.
<mgrwt>
<rscale>  2 0.20487078E+03</rscale>
<asrwt>0</asrwt>
<pdfrwt beam="1">  1       21 0.16931529E-01 0.20487078E+03</pdfrwt>
<pdfrwt beam="2">  1       21 0.72672382E-01 0.20487078E+03</pdfrwt>
<totfact> 0.53285155E+04</totfact>
</mgrwt>
</event>
<event>
 4    1  0.4043938E+000  0.2231656E+03  0.7546771E-02  0.1131545E+00
         21   -1    0    0  503  502  0.00000000000E+00  0.00000000000E+00  0.68455869551E+03  0.68455869551E+03  0.00000000000E+00 0.  1.
         21   -1    0    0  501  503 -0.00000000000E+00 -0.00000000000E+00 -0.16048428216E+03  0.16048428216E+03  0.00000000000E+00 0. -1.
          6    1    1    2  501    0  0.12168555184E+02 -0.14044866320E+03 -0.50363978726E+02  0.22877812632E+03  0.17300000000E+03 0. -1.
         -6    1    1    2    0  502 -0.12168555184E+02  0.14044866320E+03  0.57443839207E+03  0.61626485136E+03  0.17300000000E+03 0.  1.
<mgrwt>
<rscale>  2 0.22316564E+03</rscale>
<asrwt>0</asrwt>
<pdfrwt beam="1">  1       21 0.10531672E+00 0.22316564E+03</pdfrwt>
<pdfrwt beam="2">  1       21 0.24689890E-01 0.22316564E+03</pdfrwt>
<totfact> 0.11023561E+04</totfact>
</mgrwt>
</event>
<event>
 4    1  0.4043938E+000  0.2097044E+03  0.7546771E-02  0.1141800E+00
         21   -1    0    0  503  502  0.00000000000E+00  0.00000000000E+00  0.30498232305E+03  0.30498232305E+03  0.00000000000E+00 0.  1.
         21   -1    0    0  501  503 -0.00000000000E+00 -0.00000000000E+00 -0.32569139100E+03  0.32569139100E+03  0.00000000000E+00 0.  1.
          6    1    1    2  501    0 -0.90951821567E+02  0.75991394003E+02 -0.24575619120E+03  0.32306660508E+03  0.17300000000E+03 0.  1.
         -6    1    1    2    0  502  0.90951821567E+02 -0.75991394003E+02  0.22504712325E+03  0.30760710897E+03  0.17300000000E+03 0.  1.
<mgrwt>
<rscale>  2 0.20970438E+03</rscale>
<asrwt>0</asrwt>
<pdfrwt beam="1">  1       21 0.46920357E-01 0.20970438E+03</pdfrwt>
<pdfrwt beam="2">  1       21 0.50106368E-01 0.20970438E+03</pdfrwt>
<totfact> 0.16320470E+04</totfact>
</mgrwt>
</event>
<event>
 4    1  0.4043938E+000  0.1804373E+03  0.7546771E-02  0.1167380E+00
         21   -1    0    0  501  502  0.00000000000E+00  0.00000000000E+00  0.96868605597E+02  0.96868605597E+02  0.00000000000E+00 0. -1.
         21   -1    0    0  502  503 -0.00000000000E+00 -0.00000000000E+00 -0.33610308706E+03  0.33610308706E+03  0.00000000000E+00 0. -1.
          6    1    1    2  501    0 -0.50924296439E+02  0.59450357591E+01 -0.12016699972E+03  0.21678961054E+03  0.17300000000E+03 0. -1.
         -6    1    1    2    0  503  0.50924296439E+02 -0.59450357591E+01 -0.11906748174E+03  0.21618208211E+03  0.17300000000E+03 0. -1.
<mgrwt>
<rscale>  2 0.18043732E+03</rscale>
<asrwt>0</asrwt>
<pdfrwt beam="1">  1       21 0.14902863E-01 0.18043732E+03</pdfrwt>
<pdfrwt beam="2">  1       21 0.51708167E-01 0.18043732E+03</pdfrwt>
<totfact> 0.14157371E+05</totfact>
</mgrwt>
</event>
<event>
 4    1  0.4043938E+000  0.4209601E+03  0.7546771E-02  0.1036754E+00
         21   -1    0    0  503  502  0.00000000000E+00  0.00000000000E+00  0.11957247361E+04  0.11957247361E+04  0.00000000000E+00 0. -1.
         21   -1    0    0  501  503 -0.00000000000E+00 -0.00000000000E+00 -0.14827772117E+03  0.14827772117E+03  0.00000000000E+00 0.  1.
          6    1    1    2  501    0 -0.30234871364E+03 -0.23635502895E+03  0.50842455671E+03  0.66007800616E+03  0.17300000000E+03 0. -1.
         -6    1    1    2    0  502  0.30234871364E+03  0.23635502895E+03  0.53902245818E+03  0.68392445107E+03  0.17300000000E+03 0.  1.
<mgrwt>
<rscale>  2 0.42096015E+03</rscale>
<asrwt>0</asrwt>
<pdfrwt beam="1">  1       21 0.18395765E+00 0.42096015E+03</pdfrwt>
<pdfrwt beam="2">  1       21 0.22811958E-01 0.42096015E+03</pdfrwt>
<totfact> 0.26650012E+03</totfact>
</mgrwt>
</event>
<event>
 4    1  0.4043938E+000  0.2252392E+03  0.7546771E-02  0.1130036E+00
         21   -1    0    0  503  502  0.00000000000E+00  0.00000000000E+00  0.15875147934E+04  0.15875147934E+04  0.00000000000E+00 0. -1.
         21   -1    0    0  501  503 -0.00000000000E+00 -0.00000000000E+00 -0.22003657278E+03  0.22003657278E+03  0.00000000000E+00 0. -1.
          6    1    1    2  501    0 -0.14413496832E+03 -0.53675748278E+01 -0.15183249802E+03  0.27163543106E+03  0.17300000000E+03 0. -1.
         -6    1    1    2    0  502  0.14413496832E+03  0.53675748278E+01  0.15193107186E+04  0.15359159351E+04  0.17300000000E+03 0. -1.
<mgrwt>
<rscale>  2 0.22523921E+03</rscale>
<asrwt>0</asrwt>
<pdfrwt beam="1">  1       21 0.24423304E+00 0.22523921E+03</pdfrwt>
<pdfrwt beam="2">  1       21 0.33851781E-01 0.22523921E+03</pdfrwt>
<totfact> 0.58118837E+02</totfact>
</mgrwt>
</event>
<event>
 4    1  0.4043938E+000  0.2019579E+03  0.7546771E-02  0.1148098E+00
         21   -1    0    0  503  502  0.00000000000E+00  0.00000000000E+00  0.83617737191E+03  0.83617737191E+03  0.00000000000E+00 0. -1.
         21   -1    0    0  501  503 -0.00000000000E+00 -0.00000000000E+00 -0.68774130254E+02  0.68774130254E+02  0.00000000000E+00 0. -1.
          6    1    1    2  501    0 -0.74586128823E+02  0.72766171655E+02  0.13972038348E+03  0.24557848421E+03  0.17300000000E+03 0. -1.
         -6    1    1    2    0  502  0.74586128823E+02 -0.72766171655E+02  0.62768285818E+03  0.65937301795E+03  0.17300000000E+03 0. -1.
<mgrwt>
<rscale>  2 0.20195793E+03</rscale>
<asrwt>0</asrwt>
<pdfrwt beam="1">  1       21 0.12864267E+00 0.20195793E+03</pdfrwt>
<pdfrwt beam="2">  1       21 0.10580636E-01 0.20195793E+03</pdfrwt>
<totfact> 0.32412499E+04</totfact>
</mgrwt>
</event>
<event>
 4    1  0.4043938E+000  0.3465419E+03  0.7546771E-02  0.1064043E+00
         21   -1    0    0  501  502  0.00000000000E+00  0.00000000000E+00  0.49611176857E+03  0.49611176857E+03  0.00000000000E+00 0. -1.
         21   -1    0    0  502  503 -0.00000000000E+00 -0.00000000000E+00 -0.26876094888E+03  0.26876094888E+03  0.00000000000E+00 0. -1.
          6    1    1    2  501    0  0.34277415645E+02 -0.29830748294E+03  0.23420641186E+03  0.41826300214E+03  0.17300000000E+03 0. -1.
         -6    1    1    2    0  503 -0.34277415645E+02  0.29830748294E+03 -0.68555921640E+01  0.34660971531E+03  0.17300000000E+03 0. -1.
<mgrwt>
<rscale>  2 0.34654191E+03</rscale>
<asrwt>0</asrwt>
<pdfrwt beam="1">  1       21 0.76324887E-01 0.34654191E+03</pdfrwt>
<pdfrwt beam="2">  1       21 0.41347838E-01 0.34654191E+03</pdfrwt>
<totfact> 0.79233057E+03</totfact>
</mgrwt>
</event>
<event>
 4    1  0.4043938E+000  0.2049659E+03  0.7546771E-02  0.1145616E+00
         21   -1    0    0  503  502  0.00000000000E+00  0.00000000000E+00  0.11110253244E+03  0.11110253244E+03  0.00000000000E+00 0.  1.
         21   -1    0    0  501  503 -0.00000000000E+00 -0.00000000000E+00 -0.48652692233E+03  0.48652692233E+03  0.00000000000E+00 0.  1.
          6    1    1    2  501    0 -0.93768352982E+02 -0.57354211909E+02 -0.32875809885E+03  0.38741824583E+03  0.17300000000E+03 0.  1.
         -6    1    1    2    0  502  0.93768352982E+02  0.57354211909E+02 -0.46666291047E+02  0.21021120894E+03  0.17300000000E+03 0.  1.
<mgrwt>
<rscale>  2 0.20496587E+03</rscale>
<asrwt>0</asrwt>
<pdfrwt beam="1">  1       21 0.17092697E-01 0.20496587E+03</pdfrwt>
<pdfrwt beam="2">  1       21 0.74850298E-01 0.20496587E+03</pdfrwt>
<totfact> 0.49024603E+04</totfact>
</mgrwt>
</event>
<event>
 4    1  0.4043938E+000  0.1730852E+03  0.7546771E-02  0.1174668E+00
         21   -1    0    0  503  502  0.00000000000E+00  0.00000000000E+00  0.18988649673E+03  0.18988649673E+03  0.00000000000E+00 0.  1.
         21   -1    0    0  501  503 -0.00000000000E+00 -0.00000000000E+00 -0.18188455149E+03  0.18188455149E+03  0.00000000000E+00 0.  1.
          6    1    1    2  501    0  0.31366375893E+00 -0.54204501586E+01 -0.63682577265E+02  0.18442871336E+03  0.17300000000E+03 0.  1.
         -6    1    1    2    0  502 -0.31366375893E+00  0.54204501586E+01  0.71684522500E+02  0.18734233486E+03  0.17300000000E+03 0.  1.
<mgrwt>
<rscale>  2 0.17308518E+03</rscale>
<asrwt>0</asrwt>
<pdfrwt beam="1">  1       21 0.29213307E-01 0.17308518E+03</pdfrwt>
<pdfrwt beam="2">  1       21 0.27982239E-01 0.17308518E+03</pdfrwt>
<totfact> 0.13779270E+05</totfact>
</mgrwt>
</event>
<event>
 4    1  0.4043938E+000  0.1894301E+03  0.7546771E-02  0.1158976E+00
         21   -1    0    0  501  502  0.00000000000E+00  0.00000000000E+00  0.32245855621E+03  0.32245855621E+03  0.00000000000E+00 0. -1.
         21   -1    0    0  502  503 -0.00000000000E+00 -0.00000000000E+00 -0.11145036416E+03  0.11145036416E+03  0.00000000000E+00 0. -1.
          6    1    1    2  501    0 -0.73910842316E+02 -0.22179701649E+02  0.11394283384E+03  0.22105818501E+03  0.17300000000E+03 0. -1.
         -6    1    1    2    0  503  0.73910842316E+02  0.22179701649E+02  0.97065358207E+02  0.21285073535E+03  0.17300000000E+03 0. -1.
<mgrwt>
<rscale>  2 0.18943007E+03</rscale>
<asrwt>0</asrwt>
<pdfrwt beam="1">  1       21 0.49609008E-01 0.18943007E+03</pdfrwt>
<pdfrwt beam="2">  1       21 0.17146210E-01 0.18943007E+03</pdfrwt>
<totfact> 0.11908364E+05</totfact>
</mgrwt>
</event>
<event>
 4    1  0.4043938E+000  0.2389479E+03  0.7546771E-02  0.1120496E+00
         21   -1    0    0  503  502  0.00000000000E+00  0.00000000000E+00  0.15063893029E+03  0.15063893029E+03  0.00000000000E+00 0.  1.
         21   -1    0    0  501  503 -0.00000000000E+00 -0.00000000000E+00 -0.64309462043E+03  0.64309462043E+03  0.00000000000E+00 0.  1.
          6    1    1    2  501    0  0.72171543280E+02  0.14818351069E+03 -0.50053912857E+03  0.55464899146E+03  0.17300000000E+03 0.  1.
         -6    1    1    2    0  502 -0.72171543280E+02 -0.14818351069E+03  0.80834384272E+01  0.23908455926E+03  0.17300000000E+03 0.  1.
<mgrwt>
<rscale>  2 0.23894787E+03</rscale>
<asrwt>0</asrwt>
<pdfrwt beam="1">  1       21 0.23175220E-01 0.23894787E+03</pdfrwt>
<pdfrwt beam="2">  1       21 0.98937634E-01 0.23894787E+03</pdfrwt>
<totfact> 0.14317602E+04</totfact>
</mgrwt>
</event>
<event>
 4    1  0.4043938E+000  0.2041445E+03  0.7546771E-02  0.1146289E+00
         21   -1    0    0  501  502  0.00000000000E+00  0.00000000000E+00  0.56726265938E+03  0.56726265938E+03  0.00000000000E+00 0. -1.
         21   -1    0    0  502  503 -0.00000000000E+00 -0.00000000000E+00 -0.88785533750E+02  0.88785533750E+02  0.00000000000E+00 0.  1.
          6    1    1    2  501    0  0.68843227400E+02 -0.83705330100E+02  0.37549156477E+03  0.42739780938E+03  0.17300000000E+03 0. -1.
         -6    1    1    2    0  503 -0.68843227400E+02  0.83705330100E+02  0.10298556086E+03  0.22865038376E+03  0.17300000000E+03 0. -1.
<mgrwt>
<rscale>  2 0.20414449E+03</rscale>
<asrwt>0</asrwt>
<pdfrwt beam="1">  1       21 0.87271176E-01 0.20414449E+03</pdfrwt>
<pdfrwt beam="2">  1       21 0.13659313E-01 0.20414449E+03</pdfrwt>
<totfact> 0.52138623E+04</totfact>
</mgrwt>
</event>
<event>
 4    1  0.4043938E+000  0.1900548E+03  0.7546771E-02  0.1158412E+00
         21   -1    0    0  503  502  0.00000000000E+00  0.00000000000E+00  0.75376950845E+02  0.75376950845E+02  0.00000000000E+00 0.  1.
         21   -1    0    0  501  503 -0.00000000000E+00 -0.00000000000E+00 -0.48228436910E+03  0.48228436910E+03  0.00000000000E+00 0.  1.
          6    1    1    2  501    0 -0.39104205658E+02  0.68283946016E+02 -0.22574236981E+03  0.29509397437E+03  0.17300000000E+03 0.  1.
         -6    1    1    2    0  502  0.39104205658E+02 -0.68283946016E+02 -0.18116504845E+03  0.26256734558E+03  0.17300000000E+03 0.  1.
<mgrwt>
<rscale>  2 0.19005482E+03</rscale>
<asrwt>0</asrwt>
<pdfrwt beam="1">  1       21 0.11596453E-01 0.19005482E+03</pdfrwt>
<pdfrwt beam="2">  1       21 0.74197600E-01 0.19005482E+03</pdfrwt>
<totfact> 0.10169357E+05</totfact>
</mgrwt>
</event>
<event>
 4    1  0.4043938E+000  0.2090852E+03  0.7546771E-02  0.1142292E+00
         21   -1    0    0  503  502  0.00000000000E+00  0.00000000000E+00  0.77507556653E+03  0.77507556653E+03  0.00000000000E+00 0.  1.
         21   -1    0    0  501  503 -0.00000000000E+00 -0.00000000000E+00 -0.58448437158E+02  0.58448437158E+02  0.00000000000E+00 0.  1.
          6    1    1    2  501    0 -0.11580061710E+03 -0.19438538549E+02  0.28035074457E+03  0.34973301200E+03  0.17300000000E+03 0.  1.
         -6    1    1    2    0  502  0.11580061710E+03  0.19438538549E+02  0.43627638480E+03  0.48379099169E+03  0.17300000000E+03 0.  1.
<mgrwt>
<rscale>  2 0.20908525E+03</rscale>
<asrwt>0</asrwt>
<pdfrwt beam="1">  1       21 0.11924239E+00 0.20908525E+03</pdfrwt>
<pdfrwt beam="2">  1       21 0.89920678E-02 0.20908525E+03</pdfrwt>
<totfact> 0.52035700E+04</totfact>
</mgrwt>
</event>
<event>
 4    1  0.4043938E+000  0.2610001E+03  0.7546771E-02  0.1106544E+00
         21   -1    0    0  503  502  0.00000000000E+00  0.00000000000E+00  0.36334975299E+03  0.36334975299E+03  0.00000000000E+00 0. -1.
         21   -1    0    0  501  503 -0.00000000000E+00 -0.00000000000E+00 -0.23591297985E+03  0.23591297985E+03  0.00000000000E+00 0.  1.
          6    1    1    2  501    0  0.55584650221E+02  0.18735633497E+03  0.19948063318E+03  0.32850201309E+03  0.17300000000E+03 0. -1.
         -6    1    1    2    0  502 -0.55584650221E+02 -0.18735633497E+03 -0.72043860037E+02  0.27076071975E+03  0.17300000000E+03 0.  1.
<mgrwt>
<rscale>  2 0.26100010E+03</rscale>
<asrwt>0</asrwt>
<pdfrwt beam="1">  1       21 0.55899962E-01 0.26100010E+03</pdfrwt>
<pdfrwt beam="2">  1       21 0.36294305E-01 0.26100010E+03</pdfrwt>
<totfact> 0.21284207E+04</totfact>
</mgrwt>
</event>
<event>
 4    1  0.4043938E+000  0.2519545E+03  0.7546771E-02  0.1112076E+00
         21   -1    0    0  503  502  0.00000000000E+00  0.00000000000E+00  0.69376530192E+03  0.69376530192E+03  0.00000000000E+00 0. -1.
         21   -1    0    0  501  503 -0.00000000000E+00 -0.00000000000E+00 -0.92367823585E+02  0.92367823585E+02  0.00000000000E+00 0. -1.
          6    1    1    2  501    0  0.12403928929E+03  0.13478255021E+03  0.33874916660E+03  0.42217541259E+03  0.17300000000E+03 0. -1.
         -6    1    1    2    0  502 -0.12403928929E+03 -0.13478255021E+03  0.26264831174E+03  0.36395771291E+03  0.17300000000E+03 0. -1.
<mgrwt>
<rscale>  2 0.25195452E+03</rscale>
<asrwt>0</asrwt>
<pdfrwt beam="1">  1       21 0.10673312E+00 0.25195452E+03</pdfrwt>
<pdfrwt beam="2">  1       21 0.14210435E-01 0.25195452E+03</pdfrwt>
<totfact> 0.29465941E+04</totfact>
</mgrwt>
</event>
<event>
 4    1  0.4043938E+000  0.3129634E+03  0.7546771E-02  0.1078934E+00
         21   -1    0    0  503  502  0.00000000000E+00  0.00000000000E+00  0.28936939958E+03  0.28936939958E+03  0.00000000000E+00 0.  1.
         21   -1    0    0  501  503 -0.00000000000E+00 -0.00000000000E+00 -0.35963184625E+03  0.35963184625E+03  0.00000000000E+00 0. -1.
          6    1    1    2  501    0  0.80724945902E+02  0.24799305976E+03  0.43564157870E+02  0.31598087035E+03  0.17300000000E+03 0. -1.
         -6    1    1    2    0  502 -0.80724945902E+02 -0.24799305976E+03 -0.11382660454E+03  0.33302037547E+03  0.17300000000E+03 0. -1.
<mgrwt>
<rscale>  2 0.31296338E+03</rscale>
<asrwt>0</asrwt>
<pdfrwt beam="1">  1       21 0.44518369E-01 0.31296338E+03</pdfrwt>
<pdfrwt beam="2">  1       21 0.55327976E-01 0.31296338E+03</pdfrwt>
<totfact> 0.14024566E+04</totfact>
</mgrwt>
</event>
<event>
 4    1  0.4043938E+000  0.2443874E+03  0.7546771E-02  0.1116904E+00
         21   -1    0    0  501  502  0.00000000000E+00  0.00000000000E+00  0.20580067763E+03  0.20580067763E+03  0.00000000000E+00 0. -1.
         21   -1    0    0  502  503 -0.00000000000E+00 -0.00000000000E+00 -0.31323569495E+03  0.31323569495E+03  0.00000000000E+00 0. -1.
          6    1    1    2  501    0  0.14900625464E+03  0.87139737397E+02  0.16646161882E+02  0.24495365370E+03  0.17300000000E+03 0. -1.
         -6    1    1    2    0  503 -0.14900625464E+03 -0.87139737397E+02 -0.12408117920E+03  0.27408271888E+03  0.17300000000E+03 0. -1.
<mgrwt>
<rscale>  2 0.24438739E+03</rscale>
<asrwt>0</asrwt>
<pdfrwt beam="1">  1       21 0.31661643E-01 0.24438739E+03</pdfrwt>
<pdfrwt beam="2">  1       21 0.48190107E-01 0.24438739E+03</pdfrwt>
<totfact> 0.38489622E+04</totfact>
</mgrwt>
</event>
<event>
 4    1  0.4043938E+000  0.1837810E+03  0.7546771E-02  0.1164193E+00
         21   -1    0    0  503  502  0.00000000000E+00  0.00000000000E+00  0.54875596552E+02  0.54875596552E+02  0.00000000000E+00 0. -1.
         21   -1    0    0  501  503 -0.00000000000E+00 -0.00000000000E+00 -0.74502283108E+03  0.74502283108E+03  0.00000000000E+00 0. -1.
          6    1    1    2  501    0  0.16142808044E+02 -0.59882114722E+02 -0.51183966382E+03  0.54383388950E+03  0.17300000000E+03 0. -1.
         -6    1    1    2    0  502 -0.16142808044E+02  0.59882114722E+02 -0.17830757071E+03  0.25606453813E+03  0.17300000000E+03 0. -1.
<mgrwt>
<rscale>  2 0.18378101E+03</rscale>
<asrwt>0</asrwt>
<pdfrwt beam="1">  1       21 0.84423996E-02 0.18378101E+03</pdfrwt>
<pdfrwt beam="2">  1       21 0.11461889E+00 0.18378101E+03</pdfrwt>
<totfact> 0.64845239E+04</totfact>
</mgrwt>
</event>
<event>
 4    1  0.4043938E+000  0.2039486E+03  0.7546771E-02  0.1146450E+00
         21   -1    0    0  501  502  0.00000000000E+00  0.00000000000E+00  0.10946073112E+03  0.10946073112E+03  0.00000000000E+00 0.  1.
         21   -1    0    0  502  503 -0.00000000000E+00 -0.00000000000E+00 -0.43607449300E+03  0.43607449300E+03  0.00000000000E+00 0. -1.
          6    1    1    2  501    0 -0.10791621883E+03 -0.44856765450E+01 -0.26111992462E+03  0.33132860820E+03  0.17300000000E+03 0.  1.
         -6    1    1    2    0  503  0.10791621883E+03  0.44856765450E+01 -0.65493837261E+02  0.21420661591E+03  0.17300000000E+03 0.  1.
<mgrwt>
<rscale>  2 0.20394860E+03</rscale>
<asrwt>0</asrwt>
<pdfrwt beam="1">  1       21 0.16840112E-01 0.20394860E+03</pdfrwt>
<pdfrwt beam="2">  1       21 0.67088384E-01 0.20394860E+03</pdfrwt>
<totfact> 0.64234447E+04</totfact>
</mgrwt>
</event>
<event>
 4    1  0.4043938E+000  0.2705489E+03  0.7546771E-02  0.1100966E+00
         21   -1    0    0  503  502  0.00000000000E+00  0.00000000000E+00  0.16608037360E+03  0.16608037360E+03  0.00000000000E+00 0. -1.
         21   -1    0    0  501  503 -0.00000000000E+00 -0.00000000000E+00 -0.44725715538E+03  0.44725715538E+03  0.00000000000E+00 0. -1.
          6    1    1    2  501    0 -0.15995442464E+03 -0.13297478412E+03 -0.17763352854E+03  0.32365163623E+03  0.17300000000E+03 0. -1.
         -6    1    1    2    0  502  0.15995442464E+03  0.13297478412E+03 -0.10354325324E+03  0.28968589276E+03  0.17300000000E+03 0. -1.
<mgrwt>
<rscale>  2 0.27054891E+03</rscale>
<asrwt>0</asrwt>
<pdfrwt beam="1">  1       21 0.25550827E-01 0.27054891E+03</pdfrwt>
<pdfrwt beam="2">  1       21 0.68808793E-01 0.27054891E+03</pdfrwt>
<totfact> 0.26899534E+04</totfact>
</mgrwt>
</event>
<event>
 4    1  0.4043938E+000  0.1901235E+03  0.7546771E-02  0.1158350E+00
         21   -1    0    0  501  502  0.00000000000E+00  0.00000000000E+00  0.10205971201E+03  0.10205971201E+03  0.00000000000E+00 0. -1.
         21   -1    0    0  502  503 -0.00000000000E+00 -0.00000000000E+00 -0.35863100612E+03  0.35863100612E+03  0.00000000000E+00 0. -1.
          6    1    1    2  501    0 -0.67430469232E+02 -0.40878728513E+02 -0.10260789347E+03  0.21604471396E+03  0.17300000000E+03 0. -1.
         -6    1    1    2    0  503  0.67430469232E+02  0.40878728513E+02 -0.15396340064E+03  0.24464600418E+03  0.17300000000E+03 0. -1.
<mgrwt>
<rscale>  2 0.19012348E+03</rscale>
<asrwt>0</asrwt>
<pdfrwt beam="1">  1       21 0.15701494E-01 0.19012348E+03</pdfrwt>
<pdfrwt beam="2">  1       21 0.55174000E-01 0.19012348E+03</pdfrwt>
<totfact> 0.11192818E+05</totfact>
</mgrwt>
</event>
<event>
 4    1  0.4043938E+000  0.2094244E+03  0.7546771E-02  0.1142023E+00
         21   -1    0    0  503  502  0.00000000000E+00  0.00000000000E+00  0.10870448908E+03  0.10870448908E+03  0.00000000000E+00 0. -1.
         21   -1    0    0  501  503 -0.00000000000E+00 -0.00000000000E+00 -0.61527589170E+03  0.61527589170E+03  0.00000000000E+00 0. -1.
          6    1    1    2  501    0  0.38540411611E+02 -0.11155364009E+03 -0.46567608679E+03  0.51060042671E+03  0.17300000000E+03 0. -1.
         -6    1    1    2    0  502 -0.38540411611E+02  0.11155364009E+03 -0.40895315834E+02  0.21337995408E+03  0.17300000000E+03 0. -1.
<mgrwt>
<rscale>  2 0.20942440E+03</rscale>
<asrwt>0</asrwt>
<pdfrwt beam="1">  1       21 0.16723768E-01 0.20942440E+03</pdfrwt>
<pdfrwt beam="2">  1       21 0.94657826E-01 0.20942440E+03</pdfrwt>
<totfact> 0.29752260E+04</totfact>
</mgrwt>
</event>
<event>
 4    1  0.4043938E+000  0.2469446E+03  0.7546771E-02  0.1115251E+00
         21   -1    0    0  503  502  0.00000000000E+00  0.00000000000E+00  0.72096399581E+03  0.72096399581E+03  0.00000000000E+00 0.  1.
         21   -1    0    0  501  503 -0.00000000000E+00 -0.00000000000E+00 -0.11164938927E+03  0.11164938927E+03  0.00000000000E+00 0. -1.
          6    1    1    2  501    0 -0.17563739366E+03 -0.14288285443E+02  0.99684393149E+02  0.26630551514E+03  0.17300000000E+03 0.  1.
         -6    1    1    2    0  502  0.17563739366E+03  0.14288285443E+02  0.50963021340E+03  0.56630786995E+03  0.17300000000E+03 0.  1.
<mgrwt>
<rscale>  2 0.24694463E+03</rscale>
<asrwt>0</asrwt>
<pdfrwt beam="1">  1       21 0.11091753E+00 0.24694463E+03</pdfrwt>
<pdfrwt beam="2">  1       21 0.17176830E-01 0.24694463E+03</pdfrwt>
<totfact> 0.18983786E+04</totfact>
</mgrwt>
</event>
<event>
 4    1  0.4043938E+000  0.2154557E+03  0.7546771E-02  0.1137317E+00
         21   -1    0    0  503  502  0.00000000000E+00  0.00000000000E+00  0.32040641099E+02  0.32040641099E+02  0.00000000000E+00 0.  1.
         21   -1    0    0  501  503 -0.00000000000E+00 -0.00000000000E+00 -0.17246681084E+04  0.17246681084E+04  0.00000000000E+00 0. -1.
          6    1    1    2  501    0 -0.10817969973E+03  0.69204781953E+02 -0.11975920385E+04  0.12168187375E+04  0.17300000000E+03 0. -1.
         -6    1    1    2    0  502  0.10817969973E+03 -0.69204781953E+02 -0.49503542883E+03  0.53989001202E+03  0.17300000000E+03 0.  1.
<mgrwt>
<rscale>  2 0.21545568E+03</rscale>
<asrwt>0</asrwt>
<pdfrwt beam="1">  1       21 0.49293290E-02 0.21545568E+03</pdfrwt>
<pdfrwt beam="2">  1       21 0.26533357E+00 0.21545568E+03</pdfrwt>
<totfact> 0.14602047E+04</totfact>
</mgrwt>
</event>
<event>
 4    1  0.4043938E+000  0.2804389E+03  0.7546771E-02  0.1095449E+00
         21   -1    0    0  503  502  0.00000000000E+00  0.00000000000E+00  0.15548276483E+04  0.15548276483E+04  0.00000000000E+00 0. -1.
         21   -1    0    0  501  503 -0.00000000000E+00 -0.00000000000E+00 -0.17278276180E+03  0.17278276180E+03  0.00000000000E+00 0. -1.
          6    1    1    2  501    0 -0.67068784324E+02  0.21028261508E+03 -0.35422828373E+02  0.28266725457E+03  0.17300000000E+03 0. -1.
         -6    1    1    2    0  502  0.67068784324E+02 -0.21028261508E+03  0.14174677149E+04  0.14449431555E+04  0.17300000000E+03 0. -1.
<mgrwt>
<rscale>  2 0.28043894E+03</rscale>
<asrwt>0</asrwt>
<pdfrwt beam="1">  1       21 0.23920424E+00 0.28043894E+03</pdfrwt>
<pdfrwt beam="2">  1       21 0.26581964E-01 0.28043894E+03</pdfrwt>
<totfact> 0.94937033E+02</totfact>
</mgrwt>
</event>
<event>
 4    1  0.4043938E+000  0.1856351E+03  0.7546771E-02  0.1162458E+00
         21   -1    0    0  501  502  0.00000000000E+00  0.00000000000E+00  0.18874045986E+03  0.18874045986E+03  0.00000000000E+00 0.  1.
         21   -1    0    0  502  503 -0.00000000000E+00 -0.00000000000E+00 -0.23632029647E+03  0.23632029647E+03  0.00000000000E+00 0.  1.
          6    1    1    2  501    0 -0.11866505017E+02 -0.66261307833E+02  0.77558622230E+02  0.20118577171E+03  0.17300000000E+03 0.  1.
         -6    1    1    2    0  503  0.11866505017E+02  0.66261307833E+02 -0.12513845884E+03  0.22387498462E+03  0.17300000000E+03 0.  1.
<mgrwt>
<rscale>  2 0.18563506E+03</rscale>
<asrwt>0</asrwt>
<pdfrwt beam="1">  1       21 0.29036994E-01 0.18563506E+03</pdfrwt>
<pdfrwt beam="2">  1       21 0.36356969E-01 0.18563506E+03</pdfrwt>
<totfact> 0.83072411E+04</totfact>
</mgrwt>
</event>
<event>
 4    1  0.4043938E+000  0.1733175E+03  0.7546771E-02  0.1174432E+00
         21   -1    0    0  501  502  0.00000000000E+00  0.00000000000E+00  0.65193000053E+02  0.65193000053E+02  0.00000000000E+00 0. -1.
         21   -1    0    0  502  503 -0.00000000000E+00 -0.00000000000E+00 -0.46100771747E+03  0.46100771747E+03  0.00000000000E+00 0. -1.
          6    1    1    2  501    0 -0.68970775429E+01  0.78980542148E+01 -0.19192718800E+03  0.25860200005E+03  0.17300000000E+03 0. -1.
         -6    1    1    2    0  503  0.68970775429E+01 -0.78980542148E+01 -0.20388752942E+03  0.26759871747E+03  0.17300000000E+03 0. -1.
<mgrwt>
<rscale>  2 0.17331748E+03</rscale>
<asrwt>0</asrwt>
<pdfrwt beam="1">  1       21 0.10029692E-01 0.17331748E+03</pdfrwt>
<pdfrwt beam="2">  1       21 0.70924266E-01 0.17331748E+03</pdfrwt>
<totfact> 0.14626974E+05</totfact>
</mgrwt>
</event>
<event>
 4    1  0.4043938E+000  0.1938595E+03  0.7546771E-02  0.1155026E+00
         21   -1    0    0  503  502  0.00000000000E+00  0.00000000000E+00  0.92388281388E+02  0.92388281388E+02  0.00000000000E+00 0. -1.
         21   -1    0    0  501  503 -0.00000000000E+00 -0.00000000000E+00 -0.11864264389E+04  0.11864264389E+04  0.00000000000E+00 0. -1.
          6    1    1    2  501    0  0.31197740228E+01 -0.87423063837E+02 -0.10653494007E+04  0.10828438810E+04  0.17300000000E+03 0. -1.
         -6    1    1    2    0  502 -0.31197740228E+01  0.87423063837E+02 -0.28688756819E+02  0.19597083928E+03  0.17300000000E+03 0. -1.
<mgrwt>
<rscale>  2 0.19385955E+03</rscale>
<asrwt>0</asrwt>
<pdfrwt beam="1">  1       21 0.14213581E-01 0.19385955E+03</pdfrwt>
<pdfrwt beam="2">  1       21 0.18252715E+00 0.19385955E+03</pdfrwt>
<totfact> 0.75599345E+03</totfact>
</mgrwt>
</event>
<event>
 4    1  0.4043938E+000  0.2938884E+03  0.7546771E-02  0.1088336E+00
         21   -1    0    0  501  502  0.00000000000E+00  0.00000000000E+00  0.90478630305E+02  0.90478630305E+02  0.00000000000E+00 0.  1.
         21   -1    0    0  502  503 -0.00000000000E+00 -0.00000000000E+00 -0.15124909612E+04  0.15124909612E+04  0.00000000000E+00 0. -1.
          6    1    1    2  501    0  0.27867671131E+02  0.23593391075E+03 -0.22423411351E+03  0.36966384053E+03  0.17300000000E+03 0.  1.
         -6    1    1    2    0  503 -0.27867671131E+02 -0.23593391075E+03 -0.11977782174E+04  0.12333057510E+04  0.17300000000E+03 0. -1.
<mgrwt>
<rscale>  2 0.29388844E+03</rscale>
<asrwt>0</asrwt>
<pdfrwt beam="1">  1       21 0.13919789E-01 0.29388844E+03</pdfrwt>
<pdfrwt beam="2">  1       21 0.23269092E+00 0.29388844E+03</pdfrwt>
<totfact> 0.34753276E+03</totfact>
</mgrwt>
</event>
<event>
 4    1  0.4043938E+000  0.2365137E+03  0.7546771E-02  0.1122137E+00
         21   -1    0    0  503  502  0.00000000000E+00  0.00000000000E+00  0.95056283026E+03  0.95056283026E+03  0.00000000000E+00 0.  1.
         21   -1    0    0  501  503 -0.00000000000E+00 -0.00000000000E+00 -0.61217409524E+02  0.61217409524E+02  0.00000000000E+00 0.  1.
          6    1    1    2  501    0 -0.11526555852E+02 -0.16086286252E+03  0.54419921029E+03  0.59337298768E+03  0.17300000000E+03 0.  1.
         -6    1    1    2    0  502  0.11526555852E+02  0.16086286252E+03  0.34514621044E+03  0.41840725210E+03  0.17300000000E+03 0.  1.
<mgrwt>
<rscale>  2 0.23651368E+03</rscale>
<asrwt>0</asrwt>
<pdfrwt beam="1">  1       21 0.14624043E+00 0.23651368E+03</pdfrwt>
<pdfrwt beam="2">  1       21 0.94180637E-02 0.23651368E+03</pdfrwt>
<totfact> 0.28078902E+04</totfact>
</mgrwt>
</event>
<event>
 4    1  0.4043938E+000  0.2274636E+03  0.7546771E-02  0.1128438E+00
         21   -1    0    0  501  502  0.00000000000E+00  0.00000000000E+00  0.13611239144E+03  0.13611239144E+03  0.00000000000E+00 0. -1.
         21   -1    0    0  502  503 -0.00000000000E+00 -0.00000000000E+00 -0.46672695792E+03  0.46672695792E+03  0.00000000000E+00 0.  1.
          6    1    1    2  501    0  0.11487998864E+03  0.92807685653E+02 -0.35468382897E+02  0.23021225964E+03  0.17300000000E+03 0. -1.
         -6    1    1    2    0  503 -0.11487998864E+03 -0.92807685653E+02 -0.29514618358E+03  0.37262708971E+03  0.17300000000E+03 0.  1.
<mgrwt>
<rscale>  2 0.22746358E+03</rscale>
<asrwt>0</asrwt>
<pdfrwt beam="1">  1       21 0.20940368E-01 0.22746358E+03</pdfrwt>
<pdfrwt beam="2">  1       21 0.71804147E-01 0.22746358E+03</pdfrwt>
<totfact> 0.36447429E+04</totfact>
</mgrwt>
</event>
<event>
 4    1  0.4043938E+000  0.2134025E+03  0.7546771E-02  0.1138900E+00
         21   -1    0    0  503  502  0.00000000000E+00  0.00000000000E+00  0.16103107280E+03  0.16103107280E+03  0.00000000000E+00 0. -1.
         21   -1    0    0  501  503 -0.00000000000E+00 -0.00000000000E+00 -0.38163044259E+03  0.38163044259E+03  0.00000000000E+00 0. -1.
          6    1    1    2  501    0 -0.12274607866E+03  0.23345548117E+02 -0.24837272212E+03  0.32745934639E+03  0.17300000000E+03 0. -1.
         -6    1    1    2    0  502  0.12274607866E+03 -0.23345548117E+02  0.27773352329E+02  0.21520216900E+03  0.17300000000E+03 0. -1.
<mgrwt>
<rscale>  2 0.21340247E+03</rscale>
<asrwt>0</asrwt>
<pdfrwt beam="1">  1       21 0.24774012E-01 0.21340247E+03</pdfrwt>
<pdfrwt beam="2">  1       21 0.58712375E-01 0.21340247E+03</pdfrwt>
<totfact> 0.41398891E+04</totfact>
</mgrwt>
</event>
<event>
 4    1  0.4043938E+000  0.1811707E+03  0.7546771E-02  0.1166675E+00
         21   -1    0    0  501  502  0.00000000000E+00  0.00000000000E+00  0.16080682408E+03  0.16080682408E+03  0.00000000000E+00 0. -1.
         21   -1    0    0  502  503 -0.00000000000E+00 -0.00000000000E+00 -0.45233054166E+03  0.45233054166E+03  0.00000000000E+00 0. -1.
          6    1    1    2  501    0  0.31141624400E+02  0.43863786767E+02  0.81337385922E+02  0.19859154793E+03  0.17300000000E+03 0. -1.
         -6    1    1    2    0  503 -0.31141624400E+02 -0.43863786767E+02 -0.37286110350E+03  0.41454581781E+03  0.17300000000E+03 0. -1.
<mgrwt>
<rscale>  2 0.18117073E+03</rscale>
<asrwt>0</asrwt>
<pdfrwt beam="1">  1       21 0.24739511E-01 0.18117073E+03</pdfrwt>
<pdfrwt beam="2">  1       21 0.69589314E-01 0.18117073E+03</pdfrwt>
<totfact> 0.29189178E+04</totfact>
</mgrwt>
</event>
<event>
 4    1  0.4043938E+000  0.2269441E+03  0.7546771E-02  0.1128809E+00
         21   -1    0    0  503  502  0.00000000000E+00  0.00000000000E+00  0.16555637452E+04  0.16555637452E+04  0.00000000000E+00 0. -1.
         21   -1    0    0  501  503 -0.00000000000E+00 -0.00000000000E+00 -0.31344037260E+02  0.31344037260E+02  0.00000000000E+00 0. -1.
          6    1    1    2  501    0 -0.12145427515E+03 -0.82604357081E+02  0.88508380196E+03  0.91371601564E+03  0.17300000000E+03 0. -1.
         -6    1    1    2    0  502  0.12145427515E+03  0.82604357081E+02  0.73913590601E+03  0.77319176685E+03  0.17300000000E+03 0. -1.
<mgrwt>
<rscale>  2 0.22694409E+03</rscale>
<asrwt>0</asrwt>
<pdfrwt beam="1">  1       21 0.25470205E+00 0.22694409E+03</pdfrwt>
<pdfrwt beam="2">  1       21 0.48221609E-02 0.22694409E+03</pdfrwt>
<totfact> 0.17333240E+04</totfact>
</mgrwt>
</event>
<event>
 4    1  0.4043938E+000  0.2015443E+03  0.7546771E-02  0.1148443E+00
         21   -1    0    0  501  502  0.00000000000E+00  0.00000000000E+00  0.74141222065E+03  0.74141222065E+03  0.00000000000E+00 0.  1.
         21   -1    0    0  502  503 -0.00000000000E+00 -0.00000000000E+00 -0.15042068105E+03  0.15042068105E+03  0.00000000000E+00 0. -1.
          6    1    1    2  501    0 -0.60151113632E+02 -0.84100908918E+02  0.65104850883E+03  0.68153083584E+03  0.17300000000E+03 0.  1.
         -6    1    1    2    0  503  0.60151113632E+02  0.84100908918E+02 -0.60056969229E+02  0.21030206586E+03  0.17300000000E+03 0. -1.
<mgrwt>
<rscale>  2 0.20154434E+03</rscale>
<asrwt>0</asrwt>
<pdfrwt beam="1">  1       21 0.11406342E+00 0.20154434E+03</pdfrwt>
<pdfrwt beam="2">  1       21 0.23141644E-01 0.20154434E+03</pdfrwt>
<totfact> 0.10425690E+04</totfact>
</mgrwt>
</event>
<event>
 4    1  0.4043938E+000  0.2113859E+03  0.7546771E-02  0.1140473E+00
         21   -1    0    0  501  502  0.00000000000E+00  0.00000000000E+00  0.23272799902E+04  0.23272799902E+04  0.00000000000E+00 0. -1.
         21   -1    0    0  502  503 -0.00000000000E+00 -0.00000000000E+00 -0.22486304202E+02  0.22486304202E+02  0.00000000000E+00 0. -1.
          6    1    1    2  501    0 -0.10564212476E+03 -0.59956132122E+02  0.16015384145E+04  0.16154285157E+04  0.17300000000E+03 0.  1.
         -6    1    1    2    0  503  0.10564212476E+03  0.59956132122E+02  0.70325527152E+03  0.73433777870E+03  0.17300000000E+03 0.  1.
<mgrwt>
<rscale>  2 0.21138589E+03</rscale>
<asrwt>0</asrwt>
<pdfrwt beam="1">  1       21 0.35804289E+00 0.21138589E+03</pdfrwt>
<pdfrwt beam="2">  1       21 0.34594333E-02 0.21138589E+03</pdfrwt>
<totfact> 0.76544069E+03</totfact>
</mgrwt>
</event>
<event>
 4    1  0.4043938E+000  0.1965014E+03  0.7546771E-02  0.1152725E+00
         21   -1    0    0  501  502  0.00000000000E+00  0.00000000000E+00  0.75909170270E+03  0.75909170270E+03  0.00000000000E+00 0.  1.
         21   -1    0    0  502  503 -0.00000000000E+00 -0.00000000000E+00 -0.54821752917E+02  0.54821752917E+02  0.00000000000E+00 0.  1.
          6    1    1    2  501    0  0.25444059854E+02  0.89645997159E+02  0.46143622596E+03  0.50153384294E+03  0.17300000000E+03 0.  1.
         -6    1    1    2    0  503 -0.25444059854E+02 -0.89645997159E+02  0.24283372382E+03  0.31237961267E+03  0.17300000000E+03 0.  1.
<mgrwt>
<rscale>  2 0.19650141E+03</rscale>
<asrwt>0</asrwt>
<pdfrwt beam="1">  1       21 0.11678333E+00 0.19650141E+03</pdfrwt>
<pdfrwt beam="2">  1       21 0.84341164E-02 0.19650141E+03</pdfrwt>
<totfact> 0.61675624E+04</totfact>
</mgrwt>
</event>
<event>
 4    1  0.4043938E+000  0.1782100E+03  0.7546771E-02  0.1169547E+00
         21   -1    0    0  503  502  0.00000000000E+00  0.00000000000E+00  0.43671049525E+03  0.43671049525E+03  0.00000000000E+00 0. -1.
         21   -1    0    0  501  503 -0.00000000000E+00 -0.00000000000E+00 -0.75985159795E+02  0.75985159795E+02  0.00000000000E+00 0.  1.
          6    1    1    2  501    0  0.38884265008E+02  0.17827757591E+02  0.12724604957E+03  0.21897573413E+03  0.17300000000E+03 0.  1.
         -6    1    1    2    0  502 -0.38884265008E+02 -0.17827757591E+02  0.23347928588E+03  0.29371992091E+03  0.17300000000E+03 0. -1.
<mgrwt>
<rscale>  2 0.17821003E+03</rscale>
<asrwt>0</asrwt>
<pdfrwt beam="1">  1       21 0.67186229E-01 0.17821003E+03</pdfrwt>
<pdfrwt beam="2">  1       21 0.11690025E-01 0.17821003E+03</pdfrwt>
<totfact> 0.12533273E+05</totfact>
</mgrwt>
</event>
<event>
 4    1  0.4043938E+000  0.1844933E+03  0.7546771E-02  0.1163524E+00
         21   -1    0    0  501  502  0.00000000000E+00  0.00000000000E+00  0.41307971589E+03  0.41307971589E+03  0.00000000000E+00 0. -1.
         21   -1    0    0  502  503 -0.00000000000E+00 -0.00000000000E+00 -0.13516768969E+03  0.13516768969E+03  0.00000000000E+00 0.  1.
          6    1    1    2  501    0  0.61934688465E+02 -0.16519216703E+02  0.31023101037E+03  0.36094469099E+03  0.17300000000E+03 0. -1.
         -6    1    1    2    0  503 -0.61934688465E+02  0.16519216703E+02 -0.32318984178E+02  0.18730271459E+03  0.17300000000E+03 0.  1.
<mgrwt>
<rscale>  2 0.18449333E+03</rscale>
<asrwt>0</asrwt>
<pdfrwt beam="1">  1       21 0.63550725E-01 0.18449333E+03</pdfrwt>
<pdfrwt beam="2">  1       21 0.20795029E-01 0.18449333E+03</pdfrwt>
<totfact> 0.49308631E+04</totfact>
</mgrwt>
</event>
<event>
 4    1  0.4043938E+000  0.2949626E+03  0.7546771E-02  0.1087786E+00
         21   -1    0    0  501  502  0.00000000000E+00  0.00000000000E+00  0.21047502786E+04  0.21047502786E+04  0.00000000000E+00 0. -1.
         21   -1    0    0  502  503 -0.00000000000E+00 -0.00000000000E+00 -0.41785041147E+02  0.41785041147E+02  0.00000000000E+00 0. -1.
          6    1    1    2  501    0  0.20758023774E+03 -0.11825562071E+03  0.92028045133E+03  0.96639487583E+03  0.17300000000E+03 0. -1.
         -6    1    1    2    0  503 -0.20758023774E+03  0.11825562071E+03  0.11426847861E+04  0.11801404439E+04  0.17300000000E+03 0. -1.
<mgrwt>
<rscale>  2 0.29496262E+03</rscale>
<asrwt>0</asrwt>
<pdfrwt beam="1">  1       21 0.32380765E+00 0.29496262E+03</pdfrwt>
<pdfrwt beam="2">  1       21 0.64284695E-02 0.29496262E+03</pdfrwt>
<totfact> 0.39368885E+03</totfact>
</mgrwt>
</event>
<event>
 4    1  0.4043938E+000  0.2066234E+03  0.7546771E-02  0.1144268E+00
         21   -1    0    0  503  502  0.00000000000E+00  0.00000000000E+00  0.24922509893E+03  0.24922509893E+03  0.00000000000E+00 0. -1.
         21   -1    0    0  501  503 -0.00000000000E+00 -0.00000000000E+00 -0.28939243587E+03  0.28939243587E+03  0.00000000000E+00 0.  1.
          6    1    1    2  501    0  0.10467937414E+03  0.42502606018E+02 -0.19211624307E+03  0.28213807566E+03  0.17300000000E+03 0.  1.
         -6    1    1    2    0  502 -0.10467937414E+03 -0.42502606018E+02  0.15194890613E+03  0.25647945914E+03  0.17300000000E+03 0. -1.
<mgrwt>
<rscale>  2 0.20662343E+03</rscale>
<asrwt>0</asrwt>
<pdfrwt beam="1">  1       21 0.38342323E-01 0.20662343E+03</pdfrwt>
<pdfrwt beam="2">  1       21 0.44521914E-01 0.20662343E+03</pdfrwt>
<totfact> 0.31532373E+04</totfact>
</mgrwt>
</event>
<event>
 4    1  0.4043938E+000  0.1837123E+03  0.7546771E-02  0.1164258E+00
         21   -1    0    0  503  502  0.00000000000E+00  0.00000000000E+00  0.84986593955E+02  0.84986593955E+02  0.00000000000E+00 0. -1.
         21   -1    0    0  501  503 -0.00000000000E+00 -0.00000000000E+00 -0.11984805247E+04  0.11984805247E+04  0.00000000000E+00 0.  1.
          6    1    1    2  501    0  0.98824954031E+01 -0.61020894826E+02 -0.10814966162E+04  0.10969891267E+04  0.17300000000E+03 0.  1.
         -6    1    1    2    0  502 -0.98824954031E+01  0.61020894826E+02 -0.31997314505E+02  0.18647799188E+03  0.17300000000E+03 0. -1.
<mgrwt>
<rscale>  2 0.18371231E+03</rscale>
<asrwt>0</asrwt>
<pdfrwt beam="1">  1       21 0.13074862E-01 0.18371231E+03</pdfrwt>
<pdfrwt beam="2">  1       21 0.18438160E+00 0.18371231E+03</pdfrwt>
<totfact> 0.86155009E+03</totfact>
</mgrwt>
</event>
<event>
 4    1  0.4043938E+000  0.2409435E+03  0.7546771E-02  0.1119166E+00
         21   -1    0    0  503  502  0.00000000000E+00  0.00000000000E+00  0.27195415570E+03  0.27195415570E+03  0.00000000000E+00 0. -1.
         21   -1    0    0  501  503 -0.00000000000E+00 -0.00000000000E+00 -0.82301934812E+03  0.82301934812E+03  0.00000000000E+00 0. -1.
          6    1    1    2  501    0 -0.13043176230E+03  0.10541500599E+03 -0.74669800822E+03  0.78460925536E+03  0.17300000000E+03 0. -1.
         -6    1    1    2    0  502  0.13043176230E+03 -0.10541500599E+03  0.19563281580E+03  0.31036424846E+03  0.17300000000E+03 0. -1.
<mgrwt>
<rscale>  2 0.24094350E+03</rscale>
<asrwt>0</asrwt>
<pdfrwt beam="1">  1       21 0.41839101E-01 0.24094350E+03</pdfrwt>
<pdfrwt beam="2">  1       21 0.12661836E+00 0.24094350E+03</pdfrwt>
<totfact> 0.24402996E+03</totfact>
</mgrwt>
</event>
<event>
 4    1  0.4043938E+000  0.2489555E+03  0.7546771E-02  0.1113967E+00
         21   -1    0    0  503  502  0.00000000000E+00  0.00000000000E+00  0.46646620958E+03  0.46646620958E+03  0.00000000000E+00 0. -1.
         21   -1    0    0  501  503 -0.00000000000E+00 -0.00000000000E+00 -0.13415144314E+03  0.13415144314E+03  0.00000000000E+00 0. -1.
          6    1    1    2  501    0  0.12315531396E+03  0.12993304492E+03  0.13679337380E+03  0.28406206124E+03  0.17300000000E+03 0. -1.
         -6    1    1    2    0  502 -0.12315531396E+03 -0.12993304492E+03  0.19552139263E+03  0.31655559148E+03  0.17300000000E+03 0. -1.
<mgrwt>
<rscale>  2 0.24895547E+03</rscale>
<asrwt>0</asrwt>
<pdfrwt beam="1">  1       21 0.71764032E-01 0.24895547E+03</pdfrwt>
<pdfrwt beam="2">  1       21 0.20638684E-01 0.24895547E+03</pdfrwt>
<totfact> 0.37143800E+04</totfact>
</mgrwt>
</event>
<event>
 4    1  0.4043938E+000  0.2022858E+03  0.7546771E-02  0.1147825E+00
         21   -1    0    0  503  502  0.00000000000E+00  0.00000000000E+00  0.59189699613E+02  0.59189699613E+02  0.00000000000E+00 0. -1.
         21   -1    0    0  501  503 -0.00000000000E+00 -0.00000000000E+00 -0.69252914815E+03  0.69252914815E+03  0.00000000000E+00 0. -1.
          6    1    1    2  501    0 -0.10265027447E+03  0.21295005201E+02 -0.30102301284E+03  0.36267672982E+03  0.17300000000E+03 0.  1.
         -6    1    1    2    0  502  0.10265027447E+03 -0.21295005201E+02 -0.33231643570E+03  0.38904211794E+03  0.17300000000E+03 0.  1.
<mgrwt>
<rscale>  2 0.20228583E+03</rscale>
<asrwt>0</asrwt>
<pdfrwt beam="1">  1       21 0.91061077E-02 0.20228583E+03</pdfrwt>
<pdfrwt beam="2">  1       21 0.10654295E+00 0.20228583E+03</pdfrwt>
<totfact> 0.67190762E+04</totfact>
</mgrwt>
</event>
<event>
 4    1  0.4043938E+000  0.1773050E+03  0.7546771E-02  0.1170437E+00
         21   -1    0    0  501  502  0.00000000000E+00  0.00000000000E+00  0.44543320399E+03  0.44543320399E+03  0.00000000000E+00 0. -1.
         21   -1    0    0  502  503 -0.00000000000E+00 -0.00000000000E+00 -0.85278380711E+02  0.85278380711E+02  0.00000000000E+00 0. -1.
          6    1    1    2  501    0 -0.25887007389E+02  0.28947044226E+02  0.29025598342E+03  0.34012586557E+03  0.17300000000E+03 0. -1.
         -6    1    1    2    0  503  0.25887007389E+02 -0.28947044226E+02  0.69898839856E+02  0.19058571912E+03  0.17300000000E+03 0. -1.
<mgrwt>
<rscale>  2 0.17730502E+03</rscale>
<asrwt>0</asrwt>
<pdfrwt beam="1">  1       21 0.68528184E-01 0.17730502E+03</pdfrwt>
<pdfrwt beam="2">  1       21 0.13119751E-01 0.17730502E+03</pdfrwt>
<totfact> 0.97663639E+04</totfact>
</mgrwt>
</event>
<event>
 4    1  0.4043938E+000  0.2093046E+03  0.7546771E-02  0.1142118E+00
         21   -1    0    0  501  502  0.00000000000E+00  0.00000000000E+00  0.29466423489E+03  0.29466423489E+03  0.00000000000E+00 0. -1.
         21   -1    0    0  502  503 -0.00000000000E+00 -0.00000000000E+00 -0.24586521573E+03  0.24586521573E+03  0.00000000000E+00 0.  1.
          6    1    1    2  501    0  0.93942439347E+02  0.71093101082E+02  0.19432483696E+03  0.28560559026E+03  0.17300000000E+03 0. -1.
         -6    1    1    2    0  503 -0.93942439347E+02 -0.71093101082E+02 -0.14552581780E+03  0.25492386035E+03  0.17300000000E+03 0.  1.
<mgrwt>
<rscale>  2 0.20930459E+03</rscale>
<asrwt>0</asrwt>
<pdfrwt beam="1">  1       21 0.45332959E-01 0.20930459E+03</pdfrwt>
<pdfrwt beam="2">  1       21 0.37825418E-01 0.20930459E+03</pdfrwt>
<totfact> 0.31178949E+04</totfact>
</mgrwt>
</event>
<event>
 4    1  0.4043938E+000  0.1919896E+03  0.7546771E-02  0.1156679E+00
         21   -1    0    0  501  502  0.00000000000E+00  0.00000000000E+00  0.57181513151E+02  0.57181513151E+02  0.00000000000E+00 0. -1.
         21   -1    0    0  502  503 -0.00000000000E+00 -0.00000000000E+00 -0.73293514104E+03  0.73293514104E+03  0.00000000000E+00 0. -1.
          6    1    1    2  501    0 -0.13354024657E+02 -0.82174583966E+02 -0.20073771667E+03  0.27776901037E+03  0.17300000000E+03 0. -1.
         -6    1    1    2    0  503  0.13354024657E+02  0.82174583966E+02 -0.47501591121E+03  0.51234764382E+03  0.17300000000E+03 0. -1.
<mgrwt>
<rscale>  2 0.19198956E+03</rscale>
<asrwt>0</asrwt>
<pdfrwt beam="1">  1       21 0.87971564E-02 0.19198956E+03</pdfrwt>
<pdfrwt beam="2">  1       21 0.11275925E+00 0.19198956E+03</pdfrwt>
<totfact> 0.62548481E+04</totfact>
</mgrwt>
</event>
<event>
 4    1  0.4043938E+000  0.1762560E+03  0.7546771E-02  0.1171476E+00
         21   -1    0    0  501  502  0.00000000000E+00  0.00000000000E+00  0.63225043381E+02  0.63225043381E+02  0.00000000000E+00 0.  1.
         21   -1    0    0  502  503 -0.00000000000E+00 -0.00000000000E+00 -0.11120977529E+04  0.11120977529E+04  0.00000000000E+00 0.  1.
          6    1    1    2  501    0  0.32765530851E+02  0.79752670458E+01 -0.85390215056E+02  0.19585115196E+03  0.17300000000E+03 0.  1.
         -6    1    1    2    0  503 -0.32765530851E+02 -0.79752670458E+01 -0.96348249451E+03  0.97947164437E+03  0.17300000000E+03 0.  1.
<mgrwt>
<rscale>  2 0.17625602E+03</rscale>
<asrwt>0</asrwt>
<pdfrwt beam="1">  1       21 0.97269308E-02 0.17625602E+03</pdfrwt>
<pdfrwt beam="2">  1       21 0.17109194E+00 0.17625602E+03</pdfrwt>
<totfact> 0.18079920E+04</totfact>
</mgrwt>
</event>
<event>
 4    1  0.4043938E+000  0.2632403E+03  0.7546771E-02  0.1105212E+00
         21   -1    0    0  503  502  0.00000000000E+00  0.00000000000E+00  0.93310816248E+03  0.93310816248E+03  0.00000000000E+00 0. -1.
         21   -1    0    0  501  503 -0.00000000000E+00 -0.00000000000E+00 -0.26847716322E+03  0.26847716322E+03  0.00000000000E+00 0. -1.
          6    1    1    2  501    0 -0.14931954207E+03  0.13065266248E+03 -0.17867326978E+03  0.31815024940E+03  0.17300000000E+03 0. -1.
         -6    1    1    2    0  502  0.14931954207E+03 -0.13065266248E+03  0.84330426904E+03  0.88343507630E+03  0.17300000000E+03 0. -1.
<mgrwt>
<rscale>  2 0.26324028E+03</rscale>
<asrwt>0</asrwt>
<pdfrwt beam="1">  1       21 0.14355510E+00 0.26324028E+03</pdfrwt>
<pdfrwt beam="2">  1       21 0.41304179E-01 0.26324028E+03</pdfrwt>
<totfact> 0.17840839E+03</totfact>
</mgrwt>
</event>
<event>
 4    1  0.4043938E+000  0.1862923E+03  0.7546771E-02  0.1161849E+00
         21   -1    0    0  503  502  0.00000000000E+00  0.00000000000E+00  0.10109569715E+03  0.10109569715E+03  0.00000000000E+00 0. -1.
         21   -1    0    0  501  503 -0.00000000000E+00 -0.00000000000E+00 -0.48960919864E+03  0.48960919864E+03  0.00000000000E+00 0. -1.
          6    1    1    2  501    0 -0.64929016289E+02 -0.23665143925E+02 -0.32794415968E+02  0.18915678659E+03  0.17300000000E+03 0. -1.
         -6    1    1    2    0  502  0.64929016289E+02  0.23665143925E+02 -0.35571908553E+03  0.40154810920E+03  0.17300000000E+03 0. -1.
<mgrwt>
<rscale>  2 0.18629229E+03</rscale>
<asrwt>0</asrwt>
<pdfrwt beam="1">  1       21 0.15553184E-01 0.18629229E+03</pdfrwt>
<pdfrwt beam="2">  1       21 0.75324491E-01 0.18629229E+03</pdfrwt>
<totfact> 0.57992965E+04</totfact>
</mgrwt>
</event>
<event>
 4    1  0.4043938E+000  0.1923075E+03  0.7546771E-02  0.1156396E+00
         21   -1    0    0  503  502  0.00000000000E+00  0.00000000000E+00  0.49300726043E+03  0.49300726043E+03  0.00000000000E+00 0. -1.
         21   -1    0    0  501  503 -0.00000000000E+00 -0.00000000000E+00 -0.14311582670E+03  0.14311582670E+03  0.00000000000E+00 0. -1.
          6    1    1    2  501    0 -0.13609315944E+02  0.82873108972E+02 -0.44460297446E+02  0.19738004894E+03  0.17300000000E+03 0. -1.
         -6    1    1    2    0  502  0.13609315944E+02 -0.82873108972E+02  0.39435173118E+03  0.43874303818E+03  0.17300000000E+03 0. -1.
<mgrwt>
<rscale>  2 0.19230748E+03</rscale>
<asrwt>0</asrwt>
<pdfrwt beam="1">  1       21 0.75847270E-01 0.19230748E+03</pdfrwt>
<pdfrwt beam="2">  1       21 0.22017820E-01 0.19230748E+03</pdfrwt>
<totfact> 0.29891186E+04</totfact>
</mgrwt>
</event>
<event>
 4    1  0.4043938E+000  0.1800844E+03  0.7546771E-02  0.1167721E+00
         21   -1    0    0  501  502  0.00000000000E+00  0.00000000000E+00  0.17622582152E+02  0.17622582152E+02  0.00000000000E+00 0. -1.
         21   -1    0    0  502  503 -0.00000000000E+00 -0.00000000000E+00 -0.22926276261E+04  0.22926276261E+04  0.00000000000E+00 0. -1.
          6    1    1    2  501    0 -0.29961659878E+02 -0.40046074751E+02 -0.16506013743E+04  0.16603961232E+04  0.17300000000E+03 0.  1.
         -6    1    1    2    0  503  0.29961659878E+02  0.40046074751E+02 -0.62440366971E+03  0.64985408509E+03  0.17300000000E+03 0.  1.
<mgrwt>
<rscale>  2 0.18008439E+03</rscale>
<asrwt>0</asrwt>
<pdfrwt beam="1">  1       21 0.27111680E-02 0.18008439E+03</pdfrwt>
<pdfrwt beam="2">  1       21 0.35271174E+00 0.18008439E+03</pdfrwt>
<totfact> 0.12798395E+04</totfact>
</mgrwt>
</event>
<event>
 4    1  0.4043938E+000  0.1843496E+03  0.7546771E-02  0.1163659E+00
         21   -1    0    0  503  502  0.00000000000E+00  0.00000000000E+00  0.51868416731E+02  0.51868416731E+02  0.00000000000E+00 0. -1.
         21   -1    0    0  501  503 -0.00000000000E+00 -0.00000000000E+00 -0.10488006774E+04  0.10488006774E+04  0.00000000000E+00 0.  1.
          6    1    1    2  501    0 -0.38222972421E+02  0.50938955962E+02 -0.83559968529E+03  0.85569364080E+03  0.17300000000E+03 0.  1.
         -6    1    1    2    0  502  0.38222972421E+02 -0.50938955962E+02 -0.16133257538E+03  0.24497545333E+03  0.17300000000E+03 0. -1.
<mgrwt>
<rscale>  2 0.18434959E+03</rscale>
<asrwt>0</asrwt>
<pdfrwt beam="1">  1       21 0.79797563E-02 0.18434959E+03</pdfrwt>
<pdfrwt beam="2">  1       21 0.16135395E+00 0.18434959E+03</pdfrwt>
<totfact> 0.29813094E+04</totfact>
</mgrwt>
</event>
<event>
 4    1  0.4043938E+000  0.1988434E+03  0.7546771E-02  0.1150719E+00
         21   -1    0    0  503  502  0.00000000000E+00  0.00000000000E+00  0.94887322967E+03  0.94887322967E+03  0.00000000000E+00 0.  1.
         21   -1    0    0  501  503 -0.00000000000E+00 -0.00000000000E+00 -0.76205695596E+02  0.76205695596E+02  0.00000000000E+00 0. -1.
          6    1    1    2  501    0 -0.61737675823E+02 -0.76145513113E+02  0.91290587681E+02  0.21879819739E+03  0.17300000000E+03 0. -1.
         -6    1    1    2    0  502  0.61737675823E+02  0.76145513113E+02  0.78137694639E+03  0.80628072787E+03  0.17300000000E+03 0.  1.
<mgrwt>
<rscale>  2 0.19884335E+03</rscale>
<asrwt>0</asrwt>
<pdfrwt beam="1">  1       21 0.14598049E+00 0.19884335E+03</pdfrwt>
<pdfrwt beam="2">  1       21 0.11723954E-01 0.19884335E+03</pdfrwt>
<totfact> 0.19553580E+04</totfact>
</mgrwt>
</event>
<event>
 4    1  0.4043938E+000  0.1915181E+03  0.7546771E-02  0.1157099E+00
         21   -1    0    0  501  502  0.00000000000E+00  0.00000000000E+00  0.24484031251E+04  0.24484031251E+04  0.00000000000E+00 0.  1.
         21   -1    0    0  502  503 -0.00000000000E+00 -0.00000000000E+00 -0.41025820645E+02  0.41025820645E+02  0.00000000000E+00 0.  1.
          6    1    1    2  501    0  0.75648727054E+01 -0.81810460435E+02  0.21954403965E+04  0.22037780544E+04  0.17300000000E+03 0.  1.
         -6    1    1    2    0  503 -0.75648727054E+01  0.81810460435E+02  0.21193690794E+03  0.28565089127E+03  0.17300000000E+03 0.  1.
<mgrwt>
<rscale>  2 0.19151809E+03</rscale>
<asrwt>0</asrwt>
<pdfrwt beam="1">  1       21 0.37667729E+00 0.19151809E+03</pdfrwt>
<pdfrwt beam="2">  1       21 0.63116666E-02 0.19151809E+03</pdfrwt>
<totfact> 0.21933825E+03</totfact>
</mgrwt>
</event>
<event>
 4    1  0.4043938E+000  0.1821303E+03  0.7546771E-02  0.1165757E+00
         21   -1    0    0  503  502  0.00000000000E+00  0.00000000000E+00  0.23099038471E+02  0.23099038471E+02  0.00000000000E+00 0.  1.
         21   -1    0    0  501  503 -0.00000000000E+00 -0.00000000000E+00 -0.21201642190E+04  0.21201642190E+04  0.00000000000E+00 0.  1.
          6    1    1    2  501    0  0.52516392288E+02  0.22010832174E+02 -0.16572616917E+04  0.16672395637E+04  0.17300000000E+03 0.  1.
         -6    1    1    2    0  502 -0.52516392288E+02 -0.22010832174E+02 -0.43980348889E+03  0.47602369377E+03  0.17300000000E+03 0.  1.
<mgrwt>
<rscale>  2 0.18213031E+03</rscale>
<asrwt>0</asrwt>
<pdfrwt beam="1">  1       21 0.35536980E-02 0.18213031E+03</pdfrwt>
<pdfrwt beam="2">  1       21 0.32617914E+00 0.18213031E+03</pdfrwt>
<totfact> 0.11650700E+04</totfact>
</mgrwt>
</event>
<event>
 4    1  0.4043938E+000  0.1825703E+03  0.7546771E-02  0.1165338E+00
         21   -1    0    0  503  502  0.00000000000E+00  0.00000000000E+00  0.12234139012E+03  0.12234139012E+03  0.00000000000E+00 0. -1.
         21   -1    0    0  501  503 -0.00000000000E+00 -0.00000000000E+00 -0.46617248491E+03  0.46617248491E+03  0.00000000000E+00 0. -1.
          6    1    1    2  501    0  0.19536741736E+02 -0.54965814337E+02 -0.36160504505E+03  0.40508040390E+03  0.17300000000E+03 0. -1.
         -6    1    1    2    0  502 -0.19536741736E+02  0.54965814337E+02  0.17773950259E+02  0.18343347113E+03  0.17300000000E+03 0. -1.
<mgrwt>
<rscale>  2 0.18257033E+03</rscale>
<asrwt>0</asrwt>
<pdfrwt beam="1">  1       21 0.18821752E-01 0.18257033E+03</pdfrwt>
<pdfrwt beam="2">  1       21 0.71718845E-01 0.18257033E+03</pdfrwt>
<totfact> 0.45617355E+04</totfact>
</mgrwt>
</event>
<event>
 4    1  0.4043938E+000  0.6269411E+03  0.7546771E-02  0.9851036E-01
         21   -1    0    0  503  502  0.00000000000E+00  0.00000000000E+00  0.26954733958E+03  0.26954733958E+03  0.00000000000E+00 0.  1.
         21   -1    0    0  501  503 -0.00000000000E+00 -0.00000000000E+00 -0.15051601608E+04  0.15051601608E+04  0.00000000000E+00 0. -1.
          6    1    1    2  501    0 -0.19162238681E+01  0.60259647752E+03 -0.77453516088E+03  0.99647373376E+03  0.17300000000E+03 0.  1.
         -6    1    1    2    0  502  0.19162238681E+01 -0.60259647752E+03 -0.46107766033E+03  0.77823376661E+03  0.17300000000E+03 0. -1.
<mgrwt>
<rscale>  2 0.62694113E+03</rscale>
<asrwt>0</asrwt>
<pdfrwt beam="1">  1       21 0.41468823E-01 0.62694113E+03</pdfrwt>
<pdfrwt beam="2">  1       21 0.23156309E+00 0.62694113E+03</pdfrwt>
<totfact> 0.35982213E+02</totfact>
</mgrwt>
</event>
<event>
 4    1  0.4043938E+000  0.1753163E+03  0.7546771E-02  0.1172415E+00
         21   -1    0    0  503  502  0.00000000000E+00  0.00000000000E+00  0.19462685170E+03  0.19462685170E+03  0.00000000000E+00 0. -1.
         21   -1    0    0  501  503 -0.00000000000E+00 -0.00000000000E+00 -0.18387328666E+03  0.18387328666E+03  0.00000000000E+00 0. -1.
          6    1    1    2  501    0  0.11629240998E+02  0.25914548560E+02 -0.65721431969E+02  0.18723009826E+03  0.17300000000E+03 0. -1.
         -6    1    1    2    0  502 -0.11629240998E+02 -0.25914548560E+02  0.76474997007E+02  0.19127004010E+03  0.17300000000E+03 0. -1.
<mgrwt>
<rscale>  2 0.17531629E+03</rscale>
<asrwt>0</asrwt>
<pdfrwt beam="1">  1       21 0.29942593E-01 0.17531629E+03</pdfrwt>
<pdfrwt beam="2">  1       21 0.28288198E-01 0.17531629E+03</pdfrwt>
<totfact> 0.12852382E+05</totfact>
</mgrwt>
</event>
<event>
 4    1  0.4043938E+000  0.2628869E+03  0.7546771E-02  0.1105421E+00
         21   -1    0    0  501  502  0.00000000000E+00  0.00000000000E+00  0.20722625369E+04  0.20722625369E+04  0.00000000000E+00 0. -1.
         21   -1    0    0  502  503 -0.00000000000E+00 -0.00000000000E+00 -0.33938644643E+02  0.33938644643E+02  0.00000000000E+00 0.  1.
          6    1    1    2  501    0  0.14731475964E+03 -0.13220774528E+03  0.11578776446E+04  0.11873458495E+04  0.17300000000E+03 0. -1.
         -6    1    1    2    0  503 -0.14731475964E+03  0.13220774528E+03  0.88044624765E+03  0.91885533209E+03  0.17300000000E+03 0.  1.
<mgrwt>
<rscale>  2 0.26288691E+03</rscale>
<asrwt>0</asrwt>
<pdfrwt beam="1">  1       21 0.31880952E+00 0.26288691E+03</pdfrwt>
<pdfrwt beam="2">  1       21 0.52213316E-02 0.26288691E+03</pdfrwt>
<totfact> 0.61912873E+03</totfact>
</mgrwt>
</event>
<event>
 4    1  0.4043938E+000  0.1848947E+03  0.7546771E-02  0.1163148E+00
         21   -1    0    0  503  502  0.00000000000E+00  0.00000000000E+00  0.64046832053E+03  0.64046832053E+03  0.00000000000E+00 0. -1.
         21   -1    0    0  501  503 -0.00000000000E+00 -0.00000000000E+00 -0.74266922008E+02  0.74266922008E+02  0.00000000000E+00 0. -1.
          6    1    1    2  501    0  0.31448795077E+02  0.57166766872E+02  0.93565737312E+02  0.20722116964E+03  0.17300000000E+03 0. -1.
         -6    1    1    2    0  502 -0.31448795077E+02 -0.57166766872E+02  0.47263566121E+03  0.50751407291E+03  0.17300000000E+03 0. -1.
<mgrwt>
<rscale>  2 0.18489474E+03</rscale>
<asrwt>0</asrwt>
<pdfrwt beam="1">  1       21 0.98533584E-01 0.18489474E+03</pdfrwt>
<pdfrwt beam="2">  1       21 0.11425681E-01 0.18489474E+03</pdfrwt>
<totfact> 0.54659613E+04</totfact>
</mgrwt>
</event>
<event>
 4    1  0.4043938E+000  0.1836962E+03  0.7546771E-02  0.1164273E+00
         21   -1    0    0  501  502  0.00000000000E+00  0.00000000000E+00  0.67629272382E+03  0.67629272382E+03  0.00000000000E+00 0. -1.
         21   -1    0    0  502  503 -0.00000000000E+00 -0.00000000000E+00 -0.18411928455E+03  0.18411928455E+03  0.00000000000E+00 0. -1.
          6    1    1    2  501    0  0.42887807983E+02 -0.44451299571E+02  0.61340353140E+03  0.64031880687E+03  0.17300000000E+03 0. -1.
         -6    1    1    2    0  503 -0.42887807983E+02  0.44451299571E+02 -0.12123009213E+03  0.22009320150E+03  0.17300000000E+03 0. -1.
<mgrwt>
<rscale>  2 0.18369617E+03</rscale>
<asrwt>0</asrwt>
<pdfrwt beam="1">  1       21 0.10404503E+00 0.18369617E+03</pdfrwt>
<pdfrwt beam="2">  1       21 0.28326044E-01 0.18369617E+03</pdfrwt>
<totfact> 0.89550817E+03</totfact>
</mgrwt>
</event>
<event>
 4    1  0.4043938E+000  0.2325400E+03  0.7546771E-02  0.1124865E+00
         21   -1    0    0  503  502  0.00000000000E+00  0.00000000000E+00  0.19186495429E+03  0.19186495429E+03  0.00000000000E+00 0. -1.
         21   -1    0    0  501  503 -0.00000000000E+00 -0.00000000000E+00 -0.47388607026E+03  0.47388607026E+03  0.00000000000E+00 0.  1.
          6    1    1    2  501    0 -0.90506421011E+02 -0.12631082880E+03  0.70898652813E+02  0.24310791161E+03  0.17300000000E+03 0. -1.
         -6    1    1    2    0  502  0.90506421011E+02  0.12631082880E+03 -0.35291976879E+03  0.42264311294E+03  0.17300000000E+03 0.  1.
<mgrwt>
<rscale>  2 0.23253997E+03</rscale>
<asrwt>0</asrwt>
<pdfrwt beam="1">  1       21 0.29517685E-01 0.23253997E+03</pdfrwt>
<pdfrwt beam="2">  1       21 0.72905550E-01 0.23253997E+03</pdfrwt>
<totfact> 0.18196027E+04</totfact>
</mgrwt>
</event>
<event>
 4    1  0.4043938E+000  0.1997942E+03  0.7546771E-02  0.1149913E+00
         21   -1    0    0  501  502  0.00000000000E+00  0.00000000000E+00  0.22479032705E+03  0.22479032705E+03  0.00000000000E+00 0.  1.
         21   -1    0    0  502  503 -0.00000000000E+00 -0.00000000000E+00 -0.30919197782E+03  0.30919197782E+03  0.00000000000E+00 0.  1.
          6    1    1    2  501    0 -0.68909988935E+02  0.72388919841E+02  0.13199362506E+03  0.23945784462E+03  0.17300000000E+03 0.  1.
         -6    1    1    2    0  503  0.68909988935E+02 -0.72388919841E+02 -0.21639527583E+03  0.29452446026E+03  0.17300000000E+03 0.  1.
<mgrwt>
<rscale>  2 0.19979425E+03</rscale>
<asrwt>0</asrwt>
<pdfrwt beam="1">  1       21 0.34583128E-01 0.19979425E+03</pdfrwt>
<pdfrwt beam="2">  1       21 0.47567996E-01 0.19979425E+03</pdfrwt>
<totfact> 0.33928217E+04</totfact>
</mgrwt>
</event>
<event>
 4    1  0.4043938E+000  0.3406996E+03  0.7546771E-02  0.1066498E+00
         21   -1    0    0  501  502  0.00000000000E+00  0.00000000000E+00  0.11848254568E+04  0.11848254568E+04  0.00000000000E+00 0. -1.
         21   -1    0    0  502  503 -0.00000000000E+00 -0.00000000000E+00 -0.10480600822E+03  0.10480600822E+03  0.00000000000E+00 0. -1.
          6    1    1    2  501    0 -0.19665191809E+03  0.21788819629E+03  0.37531734623E+03  0.50689185568E+03  0.17300000000E+03 0. -1.
         -6    1    1    2    0  503  0.19665191809E+03 -0.21788819629E+03  0.70470210236E+03  0.78273960935E+03  0.17300000000E+03 0. -1.
<mgrwt>
<rscale>  2 0.34069964E+03</rscale>
<asrwt>0</asrwt>
<pdfrwt beam="1">  1       21 0.18228083E+00 0.34069964E+03</pdfrwt>
<pdfrwt beam="2">  1       21 0.16124002E-01 0.34069964E+03</pdfrwt>
<totfact> 0.54724195E+03</totfact>
</mgrwt>
</event>
<event>
 4    1  0.4043938E+000  0.2250347E+03  0.7546771E-02  0.1130184E+00
         21   -1    0    0  501  502  0.00000000000E+00  0.00000000000E+00  0.17186297441E+03  0.17186297441E+03  0.00000000000E+00 0. -1.
         21   -1    0    0  502  503 -0.00000000000E+00 -0.00000000000E+00 -0.50851640271E+03  0.50851640271E+03  0.00000000000E+00 0.  1.
          6    1    1    2  501    0  0.10633270613E+03  0.96979343524E+02  0.52287141140E+02  0.23102939768E+03  0.17300000000E+03 0. -1.
         -6    1    1    2    0  503 -0.10633270613E+03 -0.96979343524E+02 -0.38894056944E+03  0.44934997944E+03  0.17300000000E+03 0.  1.
<mgrwt>
<rscale>  2 0.22503475E+03</rscale>
<asrwt>0</asrwt>
<pdfrwt beam="1">  1       21 0.26440458E-01 0.22503475E+03</pdfrwt>
<pdfrwt beam="2">  1       21 0.78233291E-01 0.22503475E+03</pdfrwt>
<totfact> 0.19309096E+04</totfact>
</mgrwt>
</event>
<event>
 4    1  0.4043938E+000  0.1982100E+03  0.7546771E-02  0.1151258E+00
         21   -1    0    0  501  502  0.00000000000E+00  0.00000000000E+00  0.90257282807E+03  0.90257282807E+03  0.00000000000E+00 0. -1.
         21   -1    0    0  502  503 -0.00000000000E+00 -0.00000000000E+00 -0.28821885080E+03  0.28821885080E+03  0.00000000000E+00 0. -1.
          6    1    1    2  501    0  0.84118451541E+02 -0.47773259342E+02  0.85577403106E+03  0.87842836386E+03  0.17300000000E+03 0. -1.
         -6    1    1    2    0  503 -0.84118451541E+02  0.47773259342E+02 -0.24142005379E+03  0.31236331502E+03  0.17300000000E+03 0. -1.
<mgrwt>
<rscale>  2 0.19820999E+03</rscale>
<asrwt>0</asrwt>
<pdfrwt beam="1">  1       21 0.13885736E+00 0.19820999E+03</pdfrwt>
<pdfrwt beam="2">  1       21 0.44341362E-01 0.19820999E+03</pdfrwt>
<totfact> 0.17756129E+03</totfact>
</mgrwt>
</event>
<event>
 4    1  0.4043938E+000  0.1811430E+03  0.7546771E-02  0.1166701E+00
         21   -1    0    0  501  502  0.00000000000E+00  0.00000000000E+00  0.39359170035E+03  0.39359170035E+03  0.00000000000E+00 0. -1.
         21   -1    0    0  502  503 -0.00000000000E+00 -0.00000000000E+00 -0.86535548039E+02  0.86535548039E+02  0.00000000000E+00 0. -1.
          6    1    1    2  501    0 -0.15397299244E+02 -0.51446300528E+02  0.19946030789E+03  0.26943870006E+03  0.17300000000E+03 0.  1.
         -6    1    1    2    0  503  0.15397299244E+02  0.51446300528E+02  0.10759584441E+03  0.21068854833E+03  0.17300000000E+03 0.  1.
<mgrwt>
<rscale>  2 0.18114303E+03</rscale>
<asrwt>0</asrwt>
<pdfrwt beam="1">  1       21 0.60552568E-01 0.18114303E+03</pdfrwt>
<pdfrwt beam="2">  1       21 0.13313161E-01 0.18114303E+03</pdfrwt>
<totfact> 0.12422606E+05</totfact>
</mgrwt>
</event>
<event>
 4    1  0.4043938E+000  0.2302964E+03  0.7546771E-02  0.1126431E+00
         21   -1    0    0  501  502  0.00000000000E+00  0.00000000000E+00  0.36045000457E+03  0.36045000457E+03  0.00000000000E+00 0. -1.
         21   -1    0    0  502  503 -0.00000000000E+00 -0.00000000000E+00 -0.16465195601E+03  0.16465195601E+03  0.00000000000E+00 0. -1.
          6    1    1    2  501    0  0.14068588209E+03 -0.57575243217E+02  0.18352469376E+03  0.29447875861E+03  0.17300000000E+03 0. -1.
         -6    1    1    2    0  503 -0.14068588209E+03  0.57575243217E+02  0.12273354792E+02  0.23062320197E+03  0.17300000000E+03 0. -1.
<mgrwt>
<rscale>  2 0.23029639E+03</rscale>
<asrwt>0</asrwt>
<pdfrwt beam="1">  1       21 0.55453847E-01 0.23029639E+03</pdfrwt>
<pdfrwt beam="2">  1       21 0.25331070E-01 0.23029639E+03</pdfrwt>
<totfact> 0.44469390E+04</totfact>
</mgrwt>
</event>
<event>
 4    1  0.4043938E+000  0.1738979E+03  0.7546771E-02  0.1173843E+00
         21   -1    0    0  503  502  0.00000000000E+00  0.00000000000E+00  0.30718703729E+02  0.30718703729E+02  0.00000000000E+00 0. -1.
         21   -1    0    0  501  503 -0.00000000000E+00 -0.00000000000E+00 -0.11935661194E+04  0.11935661194E+04  0.00000000000E+00 0. -1.
          6    1    1    2  501    0  0.74228131786E+01 -0.16011993423E+02 -0.83766046749E+03  0.85552062564E+03  0.17300000000E+03 0. -1.
         -6    1    1    2    0  502 -0.74228131786E+01  0.16011993423E+02 -0.32518694820E+03  0.36876419752E+03  0.17300000000E+03 0. -1.
<mgrwt>
<rscale>  2 0.17389791E+03</rscale>
<asrwt>0</asrwt>
<pdfrwt beam="1">  1       21 0.47259552E-02 0.17389791E+03</pdfrwt>
<pdfrwt beam="2">  1       21 0.18362553E+00 0.17389791E+03</pdfrwt>
<totfact> 0.51493916E+04</totfact>
</mgrwt>
</event>
<event>
 4    1  0.4043938E+000  0.2741188E+03  0.7546771E-02  0.1098945E+00
         21   -1    0    0  503  502  0.00000000000E+00  0.00000000000E+00  0.21399987671E+04  0.21399987671E+04  0.00000000000E+00 0.  1.
         21   -1    0    0  501  503 -0.00000000000E+00 -0.00000000000E+00 -0.37344254724E+02  0.37344254724E+02  0.00000000000E+00 0. -1.
          6    1    1    2  501    0  0.20756079500E+03 -0.46158510369E+02  0.78519918506E+03  0.83167232244E+03  0.17300000000E+03 0.  1.
         -6    1    1    2    0  502 -0.20756079500E+03  0.46158510369E+02  0.13174553273E+04  0.13456706994E+04  0.17300000000E+03 0. -1.
<mgrwt>
<rscale>  2 0.27411875E+03</rscale>
<asrwt>0</asrwt>
<pdfrwt beam="1">  1       21 0.32923048E+00 0.27411875E+03</pdfrwt>
<pdfrwt beam="2">  1       21 0.57452716E-02 0.27411875E+03</pdfrwt>
<totfact> 0.45160891E+03</totfact>
</mgrwt>
</event>
<event>
 4    1  0.4043938E+000  0.2147058E+03  0.7546771E-02  0.1137893E+00
         21   -1    0    0  501  502  0.00000000000E+00  0.00000000000E+00  0.69858688521E+03  0.69858688521E+03  0.00000000000E+00 0. -1.
         21   -1    0    0  502  503 -0.00000000000E+00 -0.00000000000E+00 -0.69249818662E+02  0.69249818662E+02  0.00000000000E+00 0. -1.
          6    1    1    2  501    0 -0.87004248683E+02 -0.92735297356E+02  0.39798640732E+03  0.45220764597E+03  0.17300000000E+03 0. -1.
         -6    1    1    2    0  503  0.87004248683E+02  0.92735297356E+02  0.23135065923E+03  0.31562905790E+03  0.17300000000E+03 0. -1.
<mgrwt>
<rscale>  2 0.21470579E+03</rscale>
<asrwt>0</asrwt>
<pdfrwt beam="1">  1       21 0.10747490E+00 0.21470579E+03</pdfrwt>
<pdfrwt beam="2">  1       21 0.10653819E-01 0.21470579E+03</pdfrwt>
<totfact> 0.49546889E+04</totfact>
</mgrwt>
</event>
<event>
 4    1  0.4043938E+000  0.1924942E+03  0.7546771E-02  0.1156231E+00
         21   -1    0    0  501  502  0.00000000000E+00  0.00000000000E+00  0.11220712958E+04  0.11220712958E+04  0.00000000000E+00 0.  1.
         21   -1    0    0  502  503 -0.00000000000E+00 -0.00000000000E+00 -0.46469919462E+02  0.46469919462E+02  0.00000000000E+00 0. -1.
          6    1    1    2  501    0  0.22152611304E+02 -0.81451080256E+02  0.85209863925E+03  0.87357089447E+03  0.17300000000E+03 0. -1.
         -6    1    1    2    0  503 -0.22152611304E+02  0.81451080256E+02  0.22350273711E+03  0.29497032081E+03  0.17300000000E+03 0. -1.
<mgrwt>
<rscale>  2 0.19249420E+03</rscale>
<asrwt>0</asrwt>
<pdfrwt beam="1">  1       21 0.17262633E+00 0.19249420E+03</pdfrwt>
<pdfrwt beam="2">  1       21 0.71492192E-02 0.19249420E+03</pdfrwt>
<totfact> 0.29837018E+04</totfact>
</mgrwt>
</event>
<event>
 4    1  0.4043938E+000  0.1736927E+03  0.7546771E-02  0.1174051E+00
         21   -1    0    0  501  502  0.00000000000E+00  0.00000000000E+00  0.29212758584E+03  0.29212758584E+03  0.00000000000E+00 0. -1.
         21   -1    0    0  502  503 -0.00000000000E+00 -0.00000000000E+00 -0.10329253488E+03  0.10329253488E+03  0.00000000000E+00 0. -1.
          6    1    1    2  501    0  0.10295483334E+02 -0.11583350156E+02  0.91765835188E+02  0.19644373109E+03  0.17300000000E+03 0. -1.
         -6    1    1    2    0  503 -0.10295483334E+02  0.11583350156E+02  0.97069215771E+02  0.19897638963E+03  0.17300000000E+03 0. -1.
<mgrwt>
<rscale>  2 0.17369275E+03</rscale>
<asrwt>0</asrwt>
<pdfrwt beam="1">  1       21 0.44942705E-01 0.17369275E+03</pdfrwt>
<pdfrwt beam="2">  1       21 0.15891159E-01 0.17369275E+03</pdfrwt>
<totfact> 0.16873845E+05</totfact>
</mgrwt>
</event>
<event>
 4    1  0.4043938E+000  0.2035633E+03  0.7546771E-02  0.1146767E+00
         21   -1    0    0  503  502  0.00000000000E+00  0.00000000000E+00  0.12959303647E+03  0.12959303647E+03  0.00000000000E+00 0. -1.
         21   -1    0    0  501  503 -0.00000000000E+00 -0.00000000000E+00 -0.82273830168E+03  0.82273830168E+03  0.00000000000E+00 0. -1.
          6    1    1    2  501    0  0.10562066491E+03 -0.18796207291E+02 -0.71888203395E+03  0.74714750953E+03  0.17300000000E+03 0. -1.
         -6    1    1    2    0  502 -0.10562066491E+03  0.18796207291E+02  0.25736768730E+02  0.20518382862E+03  0.17300000000E+03 0. -1.
<mgrwt>
<rscale>  2 0.20356331E+03</rscale>
<asrwt>0</asrwt>
<pdfrwt beam="1">  1       21 0.19937390E-01 0.20356331E+03</pdfrwt>
<pdfrwt beam="2">  1       21 0.12657512E+00 0.20356331E+03</pdfrwt>
<totfact> 0.10649792E+04</totfact>
</mgrwt>
</event>
<event>
 4    1  0.4043938E+000  0.1927056E+03  0.7546771E-02  0.1156043E+00
         21   -1    0    0  503  502  0.00000000000E+00  0.00000000000E+00  0.32078551451E+02  0.32078551451E+02  0.00000000000E+00 0. -1.
         21   -1    0    0  501  503 -0.00000000000E+00 -0.00000000000E+00 -0.12459459272E+04  0.12459459272E+04  0.00000000000E+00 0.  1.
          6    1    1    2  501    0  0.38963595283E+02 -0.75420800722E+02 -0.77705200780E+03  0.80059058311E+03  0.17300000000E+03 0.  1.
         -6    1    1    2    0  502 -0.38963595283E+02  0.75420800722E+02 -0.43681536799E+03  0.47743389559E+03  0.17300000000E+03 0. -1.
<mgrwt>
<rscale>  2 0.19270563E+03</rscale>
<asrwt>0</asrwt>
<pdfrwt beam="1">  1       21 0.49351614E-02 0.19270563E+03</pdfrwt>
<pdfrwt beam="2">  1       21 0.19168400E+00 0.19270563E+03</pdfrwt>
<totfact> 0.41813525E+04</totfact>
</mgrwt>
</event>
<event>
 4    1  0.4043938E+000  0.2232347E+03  0.7546771E-02  0.1131494E+00
         21   -1    0    0  501  502  0.00000000000E+00  0.00000000000E+00  0.72951126196E+03  0.72951126196E+03  0.00000000000E+00 0. -1.
         21   -1    0    0  502  503 -0.00000000000E+00 -0.00000000000E+00 -0.12478469348E+03  0.12478469348E+03  0.00000000000E+00 0. -1.
          6    1    1    2  501    0  0.11079181591E+03 -0.87349281881E+02  0.58971935221E+03  0.63055740253E+03  0.17300000000E+03 0. -1.
         -6    1    1    2    0  503 -0.11079181591E+03  0.87349281881E+02  0.15007216273E+02  0.22373855291E+03  0.17300000000E+03 0. -1.
<mgrwt>
<rscale>  2 0.22323468E+03</rscale>
<asrwt>0</asrwt>
<pdfrwt beam="1">  1       21 0.11223250E+00 0.22323468E+03</pdfrwt>
<pdfrwt beam="2">  1       21 0.19197646E-01 0.22323468E+03</pdfrwt>
<totfact> 0.15198090E+04</totfact>
</mgrwt>
</event>
<event>
 4    1  0.4043938E+000  0.2377416E+03  0.7546771E-02  0.1121307E+00
         21   -1    0    0  503  502  0.00000000000E+00  0.00000000000E+00  0.16067924376E+03  0.16067924376E+03  0.00000000000E+00 0. -1.
         21   -1    0    0  501  503 -0.00000000000E+00 -0.00000000000E+00 -0.36342828933E+03  0.36342828933E+03  0.00000000000E+00 0. -1.
          6    1    1    2  501    0  0.16307036379E+03 -0.32932582361E+00 -0.54425748338E+02  0.24389180815E+03  0.17300000000E+03 0. -1.
         -6    1    1    2    0  502 -0.16307036379E+03  0.32932582361E+00 -0.14832329723E+03  0.28021572494E+03  0.17300000000E+03 0. -1.
<mgrwt>
<rscale>  2 0.23774157E+03</rscale>
<asrwt>0</asrwt>
<pdfrwt beam="1">  1       21 0.24719884E-01 0.23774157E+03</pdfrwt>
<pdfrwt beam="2">  1       21 0.55912044E-01 0.23774157E+03</pdfrwt>
<totfact> 0.45645354E+04</totfact>
</mgrwt>
</event>
<event>
 4    1  0.4043938E+000  0.1872175E+03  0.7546771E-02  0.1160995E+00
         21   -1    0    0  503  502  0.00000000000E+00  0.00000000000E+00  0.12826104005E+02  0.12826104005E+02  0.00000000000E+00 0.  1.
         21   -1    0    0  501  503 -0.00000000000E+00 -0.00000000000E+00 -0.30817920672E+04  0.30817920672E+04  0.00000000000E+00 0.  1.
          6    1    1    2  501    0 -0.61208787130E+02 -0.37079266116E+02 -0.20552236303E+04  0.20637331606E+04  0.17300000000E+03 0.  1.
         -6    1    1    2    0  502  0.61208787130E+02  0.37079266116E+02 -0.10137423329E+04  0.10308850106E+04  0.17300000000E+03 0.  1.
<mgrwt>
<rscale>  2 0.18721749E+03</rscale>
<asrwt>0</asrwt>
<pdfrwt beam="1">  1       21 0.19732437E-02 0.18721749E+03</pdfrwt>
<pdfrwt beam="2">  1       21 0.47412259E+00 0.18721749E+03</pdfrwt>
<totfact> 0.36316210E+03</totfact>
</mgrwt>
</event>
<event>
 4    1  0.4043938E+000  0.2650582E+03  0.7546771E-02  0.1104142E+00
         21   -1    0    0  503  502  0.00000000000E+00  0.00000000000E+00  0.14653870188E+04  0.14653870188E+04  0.00000000000E+00 0.  1.
         21   -1    0    0  501  503 -0.00000000000E+00 -0.00000000000E+00 -0.85645033621E+02  0.85645033621E+02  0.00000000000E+00 0.  1.
          6    1    1    2  501    0  0.99407755697E+01 -0.20056932007E+03  0.17533134474E+03  0.31780017561E+03  0.17300000000E+03 0.  1.
         -6    1    1    2    0  502 -0.99407755697E+01  0.20056932007E+03  0.12044106405E+04  0.12332318768E+04  0.17300000000E+03 0.  1.
<mgrwt>
<rscale>  2 0.26505824E+03</rscale>
<asrwt>0</asrwt>
<pdfrwt beam="1">  1       21 0.22544414E+00 0.26505824E+03</pdfrwt>
<pdfrwt beam="2">  1       21 0.13176160E-01 0.26505824E+03</pdfrwt>
<totfact> 0.43442590E+03</totfact>
</mgrwt>
</event>
<event>
 4    1  0.4043938E+000  0.1863212E+03  0.7546771E-02  0.1161822E+00
         21   -1    0    0  501  502  0.00000000000E+00  0.00000000000E+00  0.97950021093E+02  0.97950021093E+02  0.00000000000E+00 0.  1.
         21   -1    0    0  502  503 -0.00000000000E+00 -0.00000000000E+00 -0.39321174599E+03  0.39321174599E+03  0.00000000000E+00 0.  1.
          6    1    1    2  501    0  0.54727322314E+02 -0.42326221311E+02 -0.70497396784E+02  0.19921212757E+03  0.17300000000E+03 0.  1.
         -6    1    1    2    0  503 -0.54727322314E+02  0.42326221311E+02 -0.22476432811E+03  0.29194963951E+03  0.17300000000E+03 0.  1.
<mgrwt>
<rscale>  2 0.18632120E+03</rscale>
<asrwt>0</asrwt>
<pdfrwt beam="1">  1       21 0.15069234E-01 0.18632120E+03</pdfrwt>
<pdfrwt beam="2">  1       21 0.60494114E-01 0.18632120E+03</pdfrwt>
<totfact> 0.99278872E+04</totfact>
</mgrwt>
</event>
<event>
 4    1  0.4043938E+000  0.2402404E+03  0.7546771E-02  0.1119633E+00
         21   -1    0    0  501  502  0.00000000000E+00  0.00000000000E+00  0.22740213539E+04  0.22740213539E+04  0.00000000000E+00 0.  1.
         21   -1    0    0  502  503 -0.00000000000E+00 -0.00000000000E+00 -0.26788462465E+02  0.26788462465E+02  0.00000000000E+00 0. -1.
          6    1    1    2  501    0  0.84357867333E+02  0.14377141955E+03  0.85986513746E+03  0.89279534356E+03  0.17300000000E+03 0. -1.
         -6    1    1    2    0  503 -0.84357867333E+02 -0.14377141955E+03  0.13873677540E+04  0.14080144728E+04  0.17300000000E+03 0. -1.
<mgrwt>
<rscale>  2 0.24024044E+03</rscale>
<asrwt>0</asrwt>
<pdfrwt beam="1">  1       21 0.34984929E+00 0.24024044E+03</pdfrwt>
<pdfrwt beam="2">  1       21 0.41213037E-02 0.24024044E+03</pdfrwt>
<totfact> 0.61904412E+03</totfact>
</mgrwt>
</event>
<event>
 4    1  0.4043938E+000  0.1998539E+03  0.7546771E-02  0.1149862E+00
         21   -1    0    0  501  502  0.00000000000E+00  0.00000000000E+00  0.13837078708E+04  0.13837078708E+04  0.00000000000E+00 0. -1.
         21   -1    0    0  502  503 -0.00000000000E+00 -0.00000000000E+00 -0.29523296731E+02  0.29523296731E+02  0.00000000000E+00 0. -1.
          6    1    1    2  501    0 -0.36490952466E+02 -0.93171794032E+02  0.57162687059E+03  0.60555664639E+03  0.17300000000E+03 0. -1.
         -6    1    1    2    0  503  0.36490952466E+02  0.93171794032E+02  0.78255770347E+03  0.80767452112E+03  0.17300000000E+03 0. -1.
<mgrwt>
<rscale>  2 0.19985388E+03</rscale>
<asrwt>0</asrwt>
<pdfrwt beam="1">  1       21 0.21287808E+00 0.19985388E+03</pdfrwt>
<pdfrwt beam="2">  1       21 0.45420467E-02 0.19985388E+03</pdfrwt>
<totfact> 0.35047775E+04</totfact>
</mgrwt>
</event>
<event>
 4    1  0.4043938E+000  0.1826794E+03  0.7546771E-02  0.1165235E+00
         21   -1    0    0  501  502  0.00000000000E+00  0.00000000000E+00  0.37606851117E+03  0.37606851117E+03  0.00000000000E+00 0. -1.
         21   -1    0    0  502  503 -0.00000000000E+00 -0.00000000000E+00 -0.57409017123E+03  0.57409017123E+03  0.00000000000E+00 0. -1.
          6    1    1    2  501    0 -0.55148439208E+02 -0.20035212977E+02  0.33781101521E+03  0.38404171922E+03  0.17300000000E+03 0. -1.
         -6    1    1    2    0  503  0.55148439208E+02  0.20035212977E+02 -0.53583267527E+03  0.56611696317E+03  0.17300000000E+03 0. -1.
<mgrwt>
<rscale>  2 0.18267939E+03</rscale>
<asrwt>0</asrwt>
<pdfrwt beam="1">  1       21 0.57856694E-01 0.18267939E+03</pdfrwt>
<pdfrwt beam="2">  1       21 0.88321565E-01 0.18267939E+03</pdfrwt>
<totfact> 0.31000566E+03</totfact>
</mgrwt>
</event>
<event>
 4    1  0.4043938E+000  0.2865894E+03  0.7546771E-02  0.1092143E+00
         21   -1    0    0  501  502  0.00000000000E+00  0.00000000000E+00  0.28418761423E+03  0.28418761423E+03  0.00000000000E+00 0.  1.
         21   -1    0    0  502  503 -0.00000000000E+00 -0.00000000000E+00 -0.32562857982E+03  0.32562857982E+03  0.00000000000E+00 0.  1.
          6    1    1    2  501    0 -0.22825513480E+03 -0.10202343634E+02  0.81526248766E+02  0.29795976845E+03  0.17300000000E+03 0.  1.
         -6    1    1    2    0  503  0.22825513480E+03  0.10202343634E+02 -0.12296721436E+03  0.31185642560E+03  0.17300000000E+03 0.  1.
<mgrwt>
<rscale>  2 0.28658942E+03</rscale>
<asrwt>0</asrwt>
<pdfrwt beam="1">  1       21 0.43721171E-01 0.28658942E+03</pdfrwt>
<pdfrwt beam="2">  1       21 0.50096705E-01 0.28658942E+03</pdfrwt>
<totfact> 0.18176541E+04</totfact>
</mgrwt>
</event>
<event>
 4    1  0.4043938E+000  0.2813295E+03  0.7546771E-02  0.1094965E+00
         21   -1    0    0  501  502  0.00000000000E+00  0.00000000000E+00  0.28537896859E+03  0.28537896859E+03  0.00000000000E+00 0.  1.
         21   -1    0    0  502  503 -0.00000000000E+00 -0.00000000000E+00 -0.29468540102E+03  0.29468540102E+03  0.00000000000E+00 0.  1.
          6    1    1    2  501    0 -0.21431694438E+03  0.57319349977E+02  0.65717444860E+02  0.28890317251E+03  0.17300000000E+03 0.  1.
         -6    1    1    2    0  503  0.21431694438E+03 -0.57319349977E+02 -0.75023877287E+02  0.29116119709E+03  0.17300000000E+03 0.  1.
<mgrwt>
<rscale>  2 0.28132945E+03</rscale>
<asrwt>0</asrwt>
<pdfrwt beam="1">  1       21 0.43904457E-01 0.28132945E+03</pdfrwt>
<pdfrwt beam="2">  1       21 0.45336216E-01 0.28132945E+03</pdfrwt>
<totfact> 0.22251443E+04</totfact>
</mgrwt>
</event>
<event>
 4    1  0.4043938E+000  0.1821117E+03  0.7546771E-02  0.1165775E+00
         21   -1    0    0  503  502  0.00000000000E+00  0.00000000000E+00  0.15308165600E+02  0.15308165600E+02  0.00000000000E+00 0. -1.
         21   -1    0    0  501  503 -0.00000000000E+00 -0.00000000000E+00 -0.21938051464E+04  0.21938051464E+04  0.00000000000E+00 0. -1.
          6    1    1    2  501    0  0.33837240217E+02 -0.45724289673E+02 -0.12125464584E+04  0.12261458246E+04  0.17300000000E+03 0. -1.
         -6    1    1    2    0  502 -0.33837240217E+02  0.45724289673E+02 -0.96595052237E+03  0.98296748733E+03  0.17300000000E+03 0. -1.
<mgrwt>
<rscale>  2 0.18211170E+03</rscale>
<asrwt>0</asrwt>
<pdfrwt beam="1">  1       21 0.23551045E-02 0.18211170E+03</pdfrwt>
<pdfrwt beam="2">  1       21 0.33750818E+00 0.18211170E+03</pdfrwt>
<totfact> 0.19747331E+04</totfact>
</mgrwt>
</event>
<event>
 4    1  0.4043938E+000  0.1790937E+03  0.7546771E-02  0.1168683E+00
         21   -1    0    0  503  502  0.00000000000E+00  0.00000000000E+00  0.87594311505E+03  0.87594311505E+03  0.00000000000E+00 0.  1.
         21   -1    0    0  501  503 -0.00000000000E+00 -0.00000000000E+00 -0.46095123558E+02  0.46095123558E+02  0.00000000000E+00 0. -1.
          6    1    1    2  501    0 -0.45898543612E+02  0.62349069890E+01  0.20587459279E+03  0.27287157846E+03  0.17300000000E+03 0. -1.
         -6    1    1    2    0  502  0.45898543612E+02 -0.62349069890E+01  0.62397339870E+03  0.64916666015E+03  0.17300000000E+03 0.  1.
<mgrwt>
<rscale>  2 0.17909369E+03</rscale>
<asrwt>0</asrwt>
<pdfrwt beam="1">  1       21 0.13476047E+00 0.17909369E+03</pdfrwt>
<pdfrwt beam="2">  1       21 0.70915581E-02 0.17909369E+03</pdfrwt>
<totfact> 0.58779179E+04</totfact>
</mgrwt>
</event>
<event>
 4    1  0.4043938E+000  0.3464642E+03  0.7546771E-02  0.1064076E+00
         21   -1    0    0  503  502  0.00000000000E+00  0.00000000000E+00  0.53877477613E+03  0.53877477613E+03  0.00000000000E+00 0.  1.
         21   -1    0    0  501  503 -0.00000000000E+00 -0.00000000000E+00 -0.22317102853E+03  0.22317102853E+03  0.00000000000E+00 0. -1.
          6    1    1    2  501    0 -0.14596678052E+03  0.26230159271E+03  0.17339750732E+03  0.38743273235E+03  0.17300000000E+03 0. -1.
         -6    1    1    2    0  502  0.14596678052E+03 -0.26230159271E+03  0.14220624028E+03  0.37451307231E+03  0.17300000000E+03 0.  1.
<mgrwt>
<rscale>  2 0.34646418E+03</rscale>
<asrwt>0</asrwt>
<pdfrwt beam="1">  1       21 0.82888427E-01 0.34646418E+03</pdfrwt>
<pdfrwt beam="2">  1       21 0.34334005E-01 0.34646418E+03</pdfrwt>
<totfact> 0.95675577E+03</totfact>
</mgrwt>
</event>
<event>
 4    1  0.4043938E+000  0.1989453E+03  0.7546771E-02  0.1150632E+00
         21   -1    0    0  503  502  0.00000000000E+00  0.00000000000E+00  0.27033724712E+03  0.27033724712E+03  0.00000000000E+00 0.  1.
         21   -1    0    0  501  503 -0.00000000000E+00 -0.00000000000E+00 -0.16336140063E+03  0.16336140063E+03  0.00000000000E+00 0.  1.
          6    1    1    2  501    0  0.89903236977E+02  0.39593583153E+02  0.12334744160E+03  0.23408083047E+03  0.17300000000E+03 0.  1.
         -6    1    1    2    0  502 -0.89903236977E+02 -0.39593583153E+02 -0.16371595107E+02  0.19961781727E+03  0.17300000000E+03 0.  1.
<mgrwt>
<rscale>  2 0.19894533E+03</rscale>
<asrwt>0</asrwt>
<pdfrwt beam="1">  1       21 0.41590346E-01 0.19894533E+03</pdfrwt>
<pdfrwt beam="2">  1       21 0.25132523E-01 0.19894533E+03</pdfrwt>
<totfact> 0.83237826E+04</totfact>
</mgrwt>
</event>
<event>
 4    1  0.4043938E+000  0.1783689E+03  0.7546771E-02  0.1169391E+00
         21   -1    0    0  503  502  0.00000000000E+00  0.00000000000E+00  0.10496397052E+03  0.10496397052E+03  0.00000000000E+00 0. -1.
         21   -1    0    0  501  503 -0.00000000000E+00 -0.00000000000E+00 -0.33857923218E+03  0.33857923218E+03  0.00000000000E+00 0. -1.
          6    1    1    2  501    0  0.40678022632E+02  0.15224049053E+02 -0.45026423036E+02  0.18396426818E+03  0.17300000000E+03 0. -1.
         -6    1    1    2    0  502 -0.40678022632E+02 -0.15224049053E+02 -0.18858883862E+03  0.25957893452E+03  0.17300000000E+03 0. -1.
<mgrwt>
<rscale>  2 0.17836892E+03</rscale>
<asrwt>0</asrwt>
<pdfrwt beam="1">  1       21 0.16148303E-01 0.17836892E+03</pdfrwt>
<pdfrwt beam="2">  1       21 0.52089113E-01 0.17836892E+03</pdfrwt>
<totfact> 0.12052939E+05</totfact>
</mgrwt>
</event>
<event>
 4    1  0.4043938E+000  0.1770227E+03  0.7546771E-02  0.1170716E+00
         21   -1    0    0  501  502  0.00000000000E+00  0.00000000000E+00  0.16306047758E+03  0.16306047758E+03  0.00000000000E+00 0. -1.
         21   -1    0    0  502  503 -0.00000000000E+00 -0.00000000000E+00 -0.56564219599E+03  0.56564219599E+03  0.00000000000E+00 0. -1.
          6    1    1    2  501    0 -0.18826045455E+01  0.37476500380E+02  0.94764237597E+02  0.20079166568E+03  0.17300000000E+03 0. -1.
         -6    1    1    2    0  503  0.18826045455E+01 -0.37476500380E+02 -0.49734595601E+03  0.52791100788E+03  0.17300000000E+03 0. -1.
<mgrwt>
<rscale>  2 0.17702269E+03</rscale>
<asrwt>0</asrwt>
<pdfrwt beam="1">  1       21 0.25086227E-01 0.17702269E+03</pdfrwt>
<pdfrwt beam="2">  1       21 0.87021876E-01 0.17702269E+03</pdfrwt>
<totfact> 0.17254508E+04</totfact>
</mgrwt>
</event>
<event>
 4    1  0.4043938E+000  0.2313716E+03  0.7546771E-02  0.1125678E+00
         21   -1    0    0  501  502  0.00000000000E+00  0.00000000000E+00  0.23714336119E+03  0.23714336119E+03  0.00000000000E+00 0. -1.
         21   -1    0    0  502  503 -0.00000000000E+00 -0.00000000000E+00 -0.61095946799E+03  0.61095946799E+03  0.00000000000E+00 0. -1.
          6    1    1    2  501    0  0.15024741934E+03  0.32086446605E+02  0.14980986566E+03  0.27563712182E+03  0.17300000000E+03 0. -1.
         -6    1    1    2    0  503 -0.15024741934E+03 -0.32086446605E+02 -0.52362597246E+03  0.57246570736E+03  0.17300000000E+03 0. -1.
<mgrwt>
<rscale>  2 0.23137162E+03</rscale>
<asrwt>0</asrwt>
<pdfrwt beam="1">  1       21 0.36483594E-01 0.23137162E+03</pdfrwt>
<pdfrwt beam="2">  1       21 0.93993764E-01 0.23137162E+03</pdfrwt>
<totfact> 0.66947381E+03</totfact>
</mgrwt>
</event>
<event>
 4    1  0.4043938E+000  0.1790529E+03  0.7546771E-02  0.1168723E+00
         21   -1    0    0  503  502  0.00000000000E+00  0.00000000000E+00  0.11840798589E+03  0.11840798589E+03  0.00000000000E+00 0. -1.
         21   -1    0    0  501  503 -0.00000000000E+00 -0.00000000000E+00 -0.47707855915E+03  0.47707855915E+03  0.00000000000E+00 0. -1.
          6    1    1    2  501    0  0.18079713723E+02 -0.42474374892E+02 -0.37513764265E+03  0.41567799978E+03  0.17300000000E+03 0. -1.
         -6    1    1    2    0  502 -0.18079713723E+02  0.42474374892E+02  0.16467069393E+02  0.17980854525E+03  0.17300000000E+03 0. -1.
<mgrwt>
<rscale>  2 0.17905292E+03</rscale>
<asrwt>0</asrwt>
<pdfrwt beam="1">  1       21 0.18216613E-01 0.17905292E+03</pdfrwt>
<pdfrwt beam="2">  1       21 0.73396703E-01 0.17905292E+03</pdfrwt>
<totfact> 0.46122490E+04</totfact>
</mgrwt>
</event>
<event>
 4    1  0.4043938E+000  0.1859660E+03  0.7546771E-02  0.1162151E+00
         21   -1    0    0  501  502  0.00000000000E+00  0.00000000000E+00  0.16193171078E+03  0.16193171078E+03  0.00000000000E+00 0.  1.
         21   -1    0    0  502  503 -0.00000000000E+00 -0.00000000000E+00 -0.34275222992E+03  0.34275222992E+03  0.00000000000E+00 0.  1.
          6    1    1    2  501    0 -0.61693704184E+02  0.29124693994E+02  0.64508791913E+02  0.19683684912E+03  0.17300000000E+03 0.  1.
         -6    1    1    2    0  503  0.61693704184E+02 -0.29124693994E+02 -0.24532931105E+03  0.30784709159E+03  0.17300000000E+03 0.  1.
<mgrwt>
<rscale>  2 0.18596602E+03</rscale>
<asrwt>0</asrwt>
<pdfrwt beam="1">  1       21 0.24912571E-01 0.18596602E+03</pdfrwt>
<pdfrwt beam="2">  1       21 0.52731113E-01 0.18596602E+03</pdfrwt>
<totfact> 0.52142375E+04</totfact>
</mgrwt>
</event>
<event>
 4    1  0.4043938E+000  0.1926358E+03  0.7546771E-02  0.1156105E+00
         21   -1    0    0  503  502  0.00000000000E+00  0.00000000000E+00  0.85558604084E+03  0.85558604084E+03  0.00000000000E+00 0.  1.
         21   -1    0    0  501  503 -0.00000000000E+00 -0.00000000000E+00 -0.88245643878E+02  0.88245643878E+02  0.00000000000E+00 0.  1.
          6    1    1    2  501    0 -0.52676410603E+02 -0.66368306624E+02  0.47148445263E+02  0.19832178965E+03  0.17300000000E+03 0.  1.
         -6    1    1    2    0  502  0.52676410603E+02  0.66368306624E+02  0.72019195169E+03  0.74550989507E+03  0.17300000000E+03 0.  1.
<mgrwt>
<rscale>  2 0.19263581E+03</rscale>
<asrwt>0</asrwt>
<pdfrwt beam="1">  1       21 0.13162862E+00 0.19263581E+03</pdfrwt>
<pdfrwt beam="2">  1       21 0.13576254E-01 0.19263581E+03</pdfrwt>
<totfact> 0.19690540E+04</totfact>
</mgrwt>
</event>
<event>
 4    1  0.4043938E+000  0.2304997E+03  0.7546771E-02  0.1126289E+00
         21   -1    0    0  503  502  0.00000000000E+00  0.00000000000E+00  0.12795029786E+03  0.12795029786E+03  0.00000000000E+00 0. -1.
         21   -1    0    0  501  503 -0.00000000000E+00 -0.00000000000E+00 -0.14474077519E+04  0.14474077519E+04  0.00000000000E+00 0.  1.
          6    1    1    2  501    0  0.12230907474E+03  0.90783338291E+02 -0.13248929881E+04  0.13447942423E+04  0.17300000000E+03 0.  1.
         -6    1    1    2    0  502 -0.12230907474E+03 -0.90783338291E+02  0.54355340357E+01  0.23056380745E+03  0.17300000000E+03 0. -1.
<mgrwt>
<rscale>  2 0.23049973E+03</rscale>
<asrwt>0</asrwt>
<pdfrwt beam="1">  1       21 0.19684661E-01 0.23049973E+03</pdfrwt>
<pdfrwt beam="2">  1       21 0.22267812E+00 0.23049973E+03</pdfrwt>
<totfact> 0.22177129E+03</totfact>
</mgrwt>
</event>
<event>
 4    1  0.4043938E+000  0.1978904E+03  0.7546771E-02  0.1151531E+00
         21   -1    0    0  501  502  0.00000000000E+00  0.00000000000E+00  0.38010498247E+02  0.38010498247E+02  0.00000000000E+00 0. -1.
         21   -1    0    0  502  503 -0.00000000000E+00 -0.00000000000E+00 -0.17105024430E+04  0.17105024430E+04  0.00000000000E+00 0. -1.
          6    1    1    2  501    0  0.33375601786E+02 -0.90098157380E+02 -0.28491854168E+03  0.34689938621E+03  0.17300000000E+03 0. -1.
         -6    1    1    2    0  503 -0.33375601786E+02  0.90098157380E+02 -0.13875734031E+04  0.14016135550E+04  0.17300000000E+03 0. -1.
<mgrwt>
<rscale>  2 0.19789040E+03</rscale>
<asrwt>0</asrwt>
<pdfrwt beam="1">  1       21 0.58477697E-02 0.19789040E+03</pdfrwt>
<pdfrwt beam="2">  1       21 0.26315419E+00 0.19789040E+03</pdfrwt>
<totfact> 0.11419255E+04</totfact>
</mgrwt>
</event>
<event>
 4    1  0.4043938E+000  0.3702545E+03  0.7546771E-02  0.1054596E+00
         21   -1    0    0  501  502  0.00000000000E+00  0.00000000000E+00  0.38434387866E+03  0.38434387866E+03  0.00000000000E+00 0.  1.
         21   -1    0    0  502  503 -0.00000000000E+00 -0.00000000000E+00 -0.45269394026E+03  0.45269394026E+03  0.00000000000E+00 0. -1.
          6    1    1    2  501    0 -0.30102146573E+03 -0.12862921204E+03  0.15856691034E+03  0.40278016594E+03  0.17300000000E+03 0.  1.
         -6    1    1    2    0  503  0.30102146573E+03  0.12862921204E+03 -0.22691697193E+03  0.43425765298E+03  0.17300000000E+03 0.  1.
<mgrwt>
<rscale>  2 0.37025450E+03</rscale>
<asrwt>0</asrwt>
<pdfrwt beam="1">  1       21 0.59129828E-01 0.37025450E+03</pdfrwt>
<pdfrwt beam="2">  1       21 0.69645221E-01 0.37025450E+03</pdfrwt>
<totfact> 0.45292775E+03</totfact>
</mgrwt>
</event>
<event>
 4    1  0.4043938E+000  0.1733010E+03  0.7546771E-02  0.1174449E+00
         21   -1    0    0  503  502  0.00000000000E+00  0.00000000000E+00  0.42830137139E+02  0.42830137139E+02  0.00000000000E+00 0. -1.
         21   -1    0    0  501  503 -0.00000000000E+00 -0.00000000000E+00 -0.23921984201E+04  0.23921984201E+04  0.00000000000E+00 0. -1.
          6    1    1    2  501    0  0.66498698764E+01 -0.77463882802E+01 -0.21983185135E+04  0.22051388877E+04  0.17300000000E+03 0. -1.
         -6    1    1    2    0  502 -0.66498698764E+01  0.77463882802E+01 -0.15104976946E+03  0.22988966952E+03  0.17300000000E+03 0. -1.
<mgrwt>
<rscale>  2 0.17330097E+03</rscale>
<asrwt>0</asrwt>
<pdfrwt beam="1">  1       21 0.65892499E-02 0.17330097E+03</pdfrwt>
<pdfrwt beam="2">  1       21 0.36803064E+00 0.17330097E+03</pdfrwt>
<totfact> 0.23596182E+03</totfact>
</mgrwt>
</event>
<event>
 4    1  0.4043938E+000  0.1981639E+03  0.7546771E-02  0.1151297E+00
         21   -1    0    0  503  502  0.00000000000E+00  0.00000000000E+00  0.12162593947E+03  0.12162593947E+03  0.00000000000E+00 0.  1.
         21   -1    0    0  501  503 -0.00000000000E+00 -0.00000000000E+00 -0.32710953150E+03  0.32710953150E+03  0.00000000000E+00 0.  1.
          6    1    1    2  501    0  0.17902874549E+02 -0.94970653492E+02 -0.12829547190E+03  0.23606919759E+03  0.17300000000E+03 0.  1.
         -6    1    1    2    0  502 -0.17902874549E+02  0.94970653492E+02 -0.77188120139E+02  0.21266627338E+03  0.17300000000E+03 0.  1.
<mgrwt>
<rscale>  2 0.19816392E+03</rscale>
<asrwt>0</asrwt>
<pdfrwt beam="1">  1       21 0.18711683E-01 0.19816392E+03</pdfrwt>
<pdfrwt beam="2">  1       21 0.50324542E-01 0.19816392E+03</pdfrwt>
<totfact> 0.98012706E+04</totfact>
</mgrwt>
</event>
<event>
 4    1  0.4043938E+000  0.1766740E+03  0.7546771E-02  0.1171061E+00
         21   -1    0    0  503  502  0.00000000000E+00  0.00000000000E+00  0.89167671991E+02  0.89167671991E+02  0.00000000000E+00 0.  1.
         21   -1    0    0  501  503 -0.00000000000E+00 -0.00000000000E+00 -0.47841639262E+03  0.47841639262E+03  0.00000000000E+00 0.  1.
          6    1    1    2  501    0 -0.28910280565E+02 -0.21187337678E+02 -0.34162260203E+03  0.38460331488E+03  0.17300000000E+03 0. -1.
         -6    1    1    2    0  502  0.28910280565E+02  0.21187337678E+02 -0.47626118604E+02  0.18298074973E+03  0.17300000000E+03 0. -1.
<mgrwt>
<rscale>  2 0.17667402E+03</rscale>
<asrwt>0</asrwt>
<pdfrwt beam="1">  1       21 0.13718103E-01 0.17667402E+03</pdfrwt>
<pdfrwt beam="2">  1       21 0.73602523E-01 0.17667402E+03</pdfrwt>
<totfact> 0.77008410E+04</totfact>
</mgrwt>
</event>
<event>
 4    1  0.4043938E+000  0.2239329E+03  0.7546771E-02  0.1130984E+00
         21   -1    0    0  503  502  0.00000000000E+00  0.00000000000E+00  0.70884812054E+03  0.70884812054E+03  0.00000000000E+00 0.  1.
         21   -1    0    0  501  503 -0.00000000000E+00 -0.00000000000E+00 -0.86154373586E+02  0.86154373586E+02  0.00000000000E+00 0. -1.
          6    1    1    2  501    0 -0.52838545953E+02 -0.13200385684E+03  0.14322557332E+03  0.26581853775E+03  0.17300000000E+03 0. -1.
         -6    1    1    2    0  502  0.52838545953E+02  0.13200385684E+03  0.47946817363E+03  0.52918395638E+03  0.17300000000E+03 0.  1.
<mgrwt>
<rscale>  2 0.22393287E+03</rscale>
<asrwt>0</asrwt>
<pdfrwt beam="1">  1       21 0.10905355E+00 0.22393287E+03</pdfrwt>
<pdfrwt beam="2">  1       21 0.13254520E-01 0.22393287E+03</pdfrwt>
<totfact> 0.32175589E+04</totfact>
</mgrwt>
</event>
<event>
 4    1  0.4043938E+000  0.2973820E+03  0.7546771E-02  0.1086557E+00
         21   -1    0    0  501  502  0.00000000000E+00  0.00000000000E+00  0.87173489985E+02  0.87173489985E+02  0.00000000000E+00 0. -1.
         21   -1    0    0  502  503 -0.00000000000E+00 -0.00000000000E+00 -0.11241016807E+04  0.11241016807E+04  0.00000000000E+00 0. -1.
          6    1    1    2  501    0  0.23713696113E+03  0.47677488328E+02 -0.70758999096E+03  0.76754131911E+03  0.17300000000E+03 0. -1.
         -6    1    1    2    0  503 -0.23713696113E+03 -0.47677488328E+02 -0.32933819978E+03  0.44373385160E+03  0.17300000000E+03 0. -1.
<mgrwt>
<rscale>  2 0.29738205E+03</rscale>
<asrwt>0</asrwt>
<pdfrwt beam="1">  1       21 0.13411306E-01 0.29738205E+03</pdfrwt>
<pdfrwt beam="2">  1       21 0.17293872E+00 0.29738205E+03</pdfrwt>
<totfact> 0.91305184E+03</totfact>
</mgrwt>
</event>
<event>
 4    1  0.4043938E+000  0.2467690E+03  0.7546771E-02  0.1115364E+00
         21   -1    0    0  501  502  0.00000000000E+00  0.00000000000E+00  0.28672420462E+03  0.28672420462E+03  0.00000000000E+00 0. -1.
         21   -1    0    0  502  503 -0.00000000000E+00 -0.00000000000E+00 -0.35459865215E+03  0.35459865215E+03  0.00000000000E+00 0. -1.
          6    1    1    2  501    0 -0.13522992193E+03 -0.11260013103E+03  0.16913669370E+03  0.29916908672E+03  0.17300000000E+03 0. -1.
         -6    1    1    2    0  503  0.13522992193E+03  0.11260013103E+03 -0.23701114123E+03  0.34215377005E+03  0.17300000000E+03 0. -1.
<mgrwt>
<rscale>  2 0.24676896E+03</rscale>
<asrwt>0</asrwt>
<pdfrwt beam="1">  1       21 0.44111416E-01 0.24676896E+03</pdfrwt>
<pdfrwt beam="2">  1       21 0.54553639E-01 0.24676896E+03</pdfrwt>
<totfact> 0.15181383E+04</totfact>
</mgrwt>
</event>
<event>
 4    1  0.4043938E+000  0.2163943E+03  0.7546771E-02  0.1136600E+00
         21   -1    0    0  501  502  0.00000000000E+00  0.00000000000E+00  0.12876732588E+03  0.12876732588E+03  0.00000000000E+00 0.  1.
         21   -1    0    0  502  503 -0.00000000000E+00 -0.00000000000E+00 -0.36486557318E+03  0.36486557318E+03  0.00000000000E+00 0. -1.
          6    1    1    2  501    0 -0.11930023719E+03 -0.51623072510E+02 -0.10381433908E+03  0.24000813571E+03  0.17300000000E+03 0. -1.
         -6    1    1    2    0  503  0.11930023719E+03  0.51623072510E+02 -0.13228390823E+03  0.25362476335E+03  0.17300000000E+03 0. -1.
<mgrwt>
<rscale>  2 0.21639429E+03</rscale>
<asrwt>0</asrwt>
<pdfrwt beam="1">  1       21 0.19810358E-01 0.21639429E+03</pdfrwt>
<pdfrwt beam="2">  1       21 0.56133165E-01 0.21639429E+03</pdfrwt>
<totfact> 0.69461340E+04</totfact>
</mgrwt>
</event>
<event>
 4    1  0.4043938E+000  0.2259653E+03  0.7546771E-02  0.1129512E+00
         21   -1    0    0  501  502  0.00000000000E+00  0.00000000000E+00  0.12334759491E+04  0.12334759491E+04  0.00000000000E+00 0.  1.
         21   -1    0    0  502  503 -0.00000000000E+00 -0.00000000000E+00 -0.46692181162E+02  0.46692181162E+02  0.00000000000E+00 0. -1.
          6    1    1    2  501    0 -0.13123591225E+03 -0.62517462189E+02  0.80897696743E+03  0.83994287399E+03  0.17300000000E+03 0.  1.
         -6    1    1    2    0  503  0.13123591225E+03  0.62517462189E+02  0.37780680049E+03  0.44022525625E+03  0.17300000000E+03 0. -1.
<mgrwt>
<rscale>  2 0.22596526E+03</rscale>
<asrwt>0</asrwt>
<pdfrwt beam="1">  1       21 0.18976551E+00 0.22596526E+03</pdfrwt>
<pdfrwt beam="2">  1       21 0.71834134E-02 0.22596526E+03</pdfrwt>
<totfact> 0.22123080E+04</totfact>
</mgrwt>
</event>
<event>
 4    1  0.4043938E+000  0.2138793E+03  0.7546771E-02  0.1138530E+00
         21   -1    0    0  503  502  0.00000000000E+00  0.00000000000E+00  0.17677340568E+03  0.17677340568E+03  0.00000000000E+00 0.  1.
         21   -1    0    0  501  503 -0.00000000000E+00 -0.00000000000E+00 -0.68635427162E+03  0.68635427162E+03  0.00000000000E+00 0. -1.
          6    1    1    2  501    0 -0.12358571743E+03 -0.23279296722E+02 -0.59541794606E+03  0.63266648852E+03  0.17300000000E+03 0. -1.
         -6    1    1    2    0  502  0.12358571743E+03  0.23279296722E+02  0.85837080121E+02  0.23046118878E+03  0.17300000000E+03 0.  1.
<mgrwt>
<rscale>  2 0.21387930E+03</rscale>
<asrwt>0</asrwt>
<pdfrwt beam="1">  1       21 0.27195909E-01 0.21387930E+03</pdfrwt>
<pdfrwt beam="2">  1       21 0.10559296E+00 0.21387930E+03</pdfrwt>
<totfact> 0.91519374E+03</totfact>
</mgrwt>
</event>
<event>
 4    1  0.4043938E+000  0.3033739E+03  0.7546771E-02  0.1083566E+00
         21   -1    0    0  503  502  0.00000000000E+00  0.00000000000E+00  0.42363654935E+03  0.42363654935E+03  0.00000000000E+00 0. -1.
         21   -1    0    0  501  503 -0.00000000000E+00 -0.00000000000E+00 -0.23825985589E+03  0.23825985589E+03  0.00000000000E+00 0.  1.
          6    1    1    2  501    0 -0.14298843045E+03 -0.20411037843E+03  0.19096019155E+03  0.35847110425E+03  0.17300000000E+03 0. -1.
         -6    1    1    2    0  502  0.14298843045E+03  0.20411037843E+03 -0.55834980896E+01  0.30342530099E+03  0.17300000000E+03 0. -1.
<mgrwt>
<rscale>  2 0.30337392E+03</rscale>
<asrwt>0</asrwt>
<pdfrwt beam="1">  1       21 0.65174854E-01 0.30337392E+03</pdfrwt>
<pdfrwt beam="2">  1       21 0.36655362E-01 0.30337392E+03</pdfrwt>
<totfact> 0.14679768E+04</totfact>
</mgrwt>
</event>
<event>
 4    1  0.4043938E+000  0.4939441E+03  0.7546771E-02  0.1015372E+00
         21   -1    0    0  503  502  0.00000000000E+00  0.00000000000E+00  0.44945259698E+03  0.44945259698E+03  0.00000000000E+00 0.  1.
         21   -1    0    0  501  503 -0.00000000000E+00 -0.00000000000E+00 -0.55654774387E+03  0.55654774387E+03  0.00000000000E+00 0. -1.
          6    1    1    2  501    0 -0.15414776892E+03 -0.43622266794E+03 -0.13248870190E+03  0.51140395659E+03  0.17300000000E+03 0. -1.
         -6    1    1    2    0  502  0.15414776892E+03  0.43622266794E+03  0.25393555006E+02  0.49459638426E+03  0.17300000000E+03 0.  1.
<mgrwt>
<rscale>  2 0.49394408E+03</rscale>
<asrwt>0</asrwt>
<pdfrwt beam="1">  1       21 0.69146554E-01 0.49394408E+03</pdfrwt>
<pdfrwt beam="2">  1       21 0.85622729E-01 0.49394408E+03</pdfrwt>
<totfact> 0.19048278E+03</totfact>
</mgrwt>
</event>
<event>
 4    1  0.4043938E+000  0.4698240E+03  0.7546771E-02  0.1021970E+00
         21   -1    0    0  501  502  0.00000000000E+00  0.00000000000E+00  0.26730507420E+03  0.26730507420E+03  0.00000000000E+00 0. -1.
         21   -1    0    0  502  503 -0.00000000000E+00 -0.00000000000E+00 -0.94461455904E+03  0.94461455904E+03  0.00000000000E+00 0.  1.
          6    1    1    2  501    0 -0.89401032706E+02 -0.42756639574E+03 -0.12372718471E+03  0.48584255027E+03  0.17300000000E+03 0.  1.
         -6    1    1    2    0  503  0.89401032706E+02  0.42756639574E+03 -0.55358230012E+03  0.72607708297E+03  0.17300000000E+03 0. -1.
<mgrwt>
<rscale>  2 0.46982397E+03</rscale>
<asrwt>0</asrwt>
<pdfrwt beam="1">  1       21 0.41123857E-01 0.46982397E+03</pdfrwt>
<pdfrwt beam="2">  1       21 0.14532532E+00 0.46982397E+03</pdfrwt>
<totfact> 0.15652950E+03</totfact>
</mgrwt>
</event>
<event>
 4    1  0.4043938E+000  0.1935844E+03  0.7546771E-02  0.1155268E+00
         21   -1    0    0  501  502  0.00000000000E+00  0.00000000000E+00  0.41498062779E+03  0.41498062779E+03  0.00000000000E+00 0. -1.
         21   -1    0    0  502  503 -0.00000000000E+00 -0.00000000000E+00 -0.37921113303E+03  0.37921113303E+03  0.00000000000E+00 0.  1.
          6    1    1    2  501    0  0.52985862575E+02 -0.68836141127E+02  0.36448833929E+03  0.41270651247E+03  0.17300000000E+03 0. -1.
         -6    1    1    2    0  503 -0.52985862575E+02  0.68836141127E+02 -0.32871884453E+03  0.38148524835E+03  0.17300000000E+03 0.  1.
<mgrwt>
<rscale>  2 0.19358439E+03</rscale>
<asrwt>0</asrwt>
<pdfrwt beam="1">  1       21 0.63843174E-01 0.19358439E+03</pdfrwt>
<pdfrwt beam="2">  1       21 0.58340174E-01 0.19358439E+03</pdfrwt>
<totfact> 0.62320031E+03</totfact>
</mgrwt>
</event>
<event>
 4    1  0.4043938E+000  0.2082238E+03  0.7546771E-02  0.1142980E+00
         21   -1    0    0  501  502  0.00000000000E+00  0.00000000000E+00  0.23143403727E+03  0.23143403727E+03  0.00000000000E+00 0. -1.
         21   -1    0    0  502  503 -0.00000000000E+00 -0.00000000000E+00 -0.27755250092E+03  0.27755250092E+03  0.00000000000E+00 0. -1.
          6    1    1    2  501    0 -0.99222517735E+02  0.59858519935E+02  0.12202960236E+03  0.24134699975E+03  0.17300000000E+03 0. -1.
         -6    1    1    2    0  503  0.99222517735E+02 -0.59858519935E+02 -0.16814806601E+03  0.26763953844E+03  0.17300000000E+03 0. -1.
<mgrwt>
<rscale>  2 0.20822380E+03</rscale>
<asrwt>0</asrwt>
<pdfrwt beam="1">  1       21 0.35605237E-01 0.20822380E+03</pdfrwt>
<pdfrwt beam="2">  1       21 0.42700385E-01 0.20822380E+03</pdfrwt>
<totfact> 0.39806285E+04</totfact>
</mgrwt>
</event>
<event>
 4    1  0.4043938E+000  0.1979043E+03  0.7546771E-02  0.1151519E+00
         21   -1    0    0  503  502  0.00000000000E+00  0.00000000000E+00  0.18855377296E+03  0.18855377296E+03  0.00000000000E+00 0. -1.
         21   -1    0    0  501  503 -0.00000000000E+00 -0.00000000000E+00 -0.29402243759E+03  0.29402243759E+03  0.00000000000E+00 0. -1.
          6    1    1    2  501    0 -0.52694268552E+02 -0.80376653057E+02  0.77991427967E+02  0.21271754777E+03  0.17300000000E+03 0. -1.
         -6    1    1    2    0  502  0.52694268552E+02  0.80376653057E+02 -0.18346009260E+03  0.26985866277E+03  0.17300000000E+03 0. -1.
<mgrwt>
<rscale>  2 0.19790425E+03</rscale>
<asrwt>0</asrwt>
<pdfrwt beam="1">  1       21 0.29008273E-01 0.19790425E+03</pdfrwt>
<pdfrwt beam="2">  1       21 0.45234221E-01 0.19790425E+03</pdfrwt>
<totfact> 0.53202762E+04</totfact>
</mgrwt>
</event>
<event>
 4    1  0.4043938E+000  0.2291914E+03  0.7546771E-02  0.1127210E+00
         21   -1    0    0  501  502  0.00000000000E+00  0.00000000000E+00  0.40301515677E+03  0.40301515677E+03  0.00000000000E+00 0.  1.
         21   -1    0    0  502  503 -0.00000000000E+00 -0.00000000000E+00 -0.18922651505E+03  0.18922651505E+03  0.00000000000E+00 0. -1.
          6    1    1    2  501    0  0.81182813306E+02  0.12652695935E+03  0.27208609335E+03  0.35575210865E+03  0.17300000000E+03 0.  1.
         -6    1    1    2    0  503 -0.81182813306E+02 -0.12652695935E+03 -0.58297451625E+02  0.23648956316E+03  0.17300000000E+03 0. -1.
<mgrwt>
<rscale>  2 0.22919145E+03</rscale>
<asrwt>0</asrwt>
<pdfrwt beam="1">  1       21 0.62002332E-01 0.22919145E+03</pdfrwt>
<pdfrwt beam="2">  1       21 0.29111772E-01 0.22919145E+03</pdfrwt>
<totfact> 0.26744827E+04</totfact>
</mgrwt>
</event>
<event>
 4    1  0.4043938E+000  0.2296999E+03  0.7546771E-02  0.1126851E+00
         21   -1    0    0  501  502  0.00000000000E+00  0.00000000000E+00  0.69476443083E+03  0.69476443083E+03  0.00000000000E+00 0. -1.
         21   -1    0    0  502  503 -0.00000000000E+00 -0.00000000000E+00 -0.10876234386E+03  0.10876234386E+03  0.00000000000E+00 0.  1.
          6    1    1    2  501    0  0.15096356955E+03  0.65621097642E+01  0.72302146146E+02  0.24081042534E+03  0.17300000000E+03 0.  1.
         -6    1    1    2    0  503 -0.15096356955E+03 -0.65621097642E+01  0.51369994082E+03  0.56271634934E+03  0.17300000000E+03 0. -1.
<mgrwt>
<rscale>  2 0.22969994E+03</rscale>
<asrwt>0</asrwt>
<pdfrwt beam="1">  1       21 0.10688683E+00 0.22969994E+03</pdfrwt>
<pdfrwt beam="2">  1       21 0.16732669E-01 0.22969994E+03</pdfrwt>
<totfact> 0.22000933E+04</totfact>
</mgrwt>
</event>
<event>
 4    1  0.4043938E+000  0.2730934E+03  0.7546771E-02  0.1099522E+00
         21   -1    0    0  501  502  0.00000000000E+00  0.00000000000E+00  0.31005966892E+03  0.31005966892E+03  0.00000000000E+00 0.  1.
         21   -1    0    0  502  503 -0.00000000000E+00 -0.00000000000E+00 -0.65103690810E+03  0.65103690810E+03  0.00000000000E+00 0.  1.
          6    1    1    2  501    0 -0.20220760162E+03  0.61343926540E+02  0.21109715845E+03  0.34516952615E+03  0.17300000000E+03 0.  1.
         -6    1    1    2    0  503  0.20220760162E+03 -0.61343926540E+02 -0.55207439763E+03  0.61592705087E+03  0.17300000000E+03 0.  1.
<mgrwt>
<rscale>  2 0.27309338E+03</rscale>
<asrwt>0</asrwt>
<pdfrwt beam="1">  1       21 0.47701488E-01 0.27309338E+03</pdfrwt>
<pdfrwt beam="2">  1       21 0.10015952E+00 0.27309338E+03</pdfrwt>
<totfact> 0.32418934E+03</totfact>
</mgrwt>
</event>
<event>
 4    1  0.4043938E+000  0.2072922E+03  0.7546771E-02  0.1143728E+00
         21   -1    0    0  501  502  0.00000000000E+00  0.00000000000E+00  0.20826927420E+03  0.20826927420E+03  0.00000000000E+00 0. -1.
         21   -1    0    0  502  503 -0.00000000000E+00 -0.00000000000E+00 -0.20634492566E+03  0.20634492566E+03  0.00000000000E+00 0. -1.
          6    1    1    2  501    0 -0.72833788728E+02 -0.87956255617E+02 -0.13278764498E+01  0.20729647112E+03  0.17300000000E+03 0. -1.
         -6    1    1    2    0  503  0.72833788728E+02  0.87956255617E+02  0.32522249918E+01  0.20731772874E+03  0.17300000000E+03 0. -1.
<mgrwt>
<rscale>  2 0.20729222E+03</rscale>
<asrwt>0</asrwt>
<pdfrwt beam="1">  1       21 0.32041427E-01 0.20729222E+03</pdfrwt>
<pdfrwt beam="2">  1       21 0.31745373E-01 0.20729222E+03</pdfrwt>
<totfact> 0.88840164E+04</totfact>
</mgrwt>
</event>
<event>
 4    1  0.4043938E+000  0.1935924E+03  0.7546771E-02  0.1155261E+00
         21   -1    0    0  501  502  0.00000000000E+00  0.00000000000E+00  0.33543022030E+03  0.33543022030E+03  0.00000000000E+00 0.  1.
         21   -1    0    0  502  503 -0.00000000000E+00 -0.00000000000E+00 -0.12477414611E+03  0.12477414611E+03  0.00000000000E+00 0. -1.
          6    1    1    2  501    0 -0.44264637476E+02 -0.74764041966E+02  0.17972347973E+03  0.26415629704E+03  0.17300000000E+03 0.  1.
         -6    1    1    2    0  503  0.44264637476E+02  0.74764041966E+02  0.30932594462E+02  0.19604806937E+03  0.17300000000E+03 0. -1.
<mgrwt>
<rscale>  2 0.19359241E+03</rscale>
<asrwt>0</asrwt>
<pdfrwt beam="1">  1       21 0.51604649E-01 0.19359241E+03</pdfrwt>
<pdfrwt beam="2">  1       21 0.19196023E-01 0.19359241E+03</pdfrwt>
<totfact> 0.88853393E+04</totfact>
</mgrwt>
</event>
<event>
 4    1  0.4043938E+000  0.2119036E+03  0.7546771E-02  0.1140067E+00
         21   -1    0    0  501  502  0.00000000000E+00  0.00000000000E+00  0.17423680004E+04  0.17423680004E+04  0.00000000000E+00 0.  1.
         21   -1    0    0  502  503 -0.00000000000E+00 -0.00000000000E+00 -0.80763794871E+02  0.80763794871E+02  0.00000000000E+00 0.  1.
          6    1    1    2  501    0 -0.10563163264E+03 -0.61774383294E+02  0.15829986914E+04  0.15971186472E+04  0.17300000000E+03 0.  1.
         -6    1    1    2    0  503  0.10563163264E+03  0.61774383294E+02  0.78605514109E+02  0.22601314805E+03  0.17300000000E+03 0.  1.
<mgrwt>
<rscale>  2 0.21190355E+03</rscale>
<asrwt>0</asrwt>
<pdfrwt beam="1">  1       21 0.26805659E+00 0.21190355E+03</pdfrwt>
<pdfrwt beam="2">  1       21 0.12425201E-01 0.21190355E+03</pdfrwt>
<totfact> 0.28156433E+03</totfact>
</mgrwt>
</event>
<event>
 4    1  0.4043938E+000  0.1903947E+03  0.7546771E-02  0.1158106E+00
         21   -1    0    0  503  502  0.00000000000E+00  0.00000000000E+00  0.11243589204E+03  0.11243589204E+03  0.00000000000E+00 0. -1.
         21   -1    0    0  501  503 -0.00000000000E+00 -0.00000000000E+00 -0.34245653909E+03  0.34245653909E+03  0.00000000000E+00 0.  1.
          6    1    1    2  501    0 -0.76493814639E+02 -0.21676159547E+02 -0.17004345653E+03  0.25527423818E+03  0.17300000000E+03 0. -1.
         -6    1    1    2    0  502  0.76493814639E+02  0.21676159547E+02 -0.59977190521E+02  0.19961819294E+03  0.17300000000E+03 0. -1.
<mgrwt>
<rscale>  2 0.19039475E+03</rscale>
<asrwt>0</asrwt>
<pdfrwt beam="1">  1       21 0.17297830E-01 0.19039475E+03</pdfrwt>
<pdfrwt beam="2">  1       21 0.52685621E-01 0.19039475E+03</pdfrwt>
<totfact> 0.10327975E+05</totfact>
</mgrwt>
</event>
<event>
 4    1  0.4043938E+000  0.2413742E+03  0.7546771E-02  0.1118881E+00
         21   -1    0    0  503  502  0.00000000000E+00  0.00000000000E+00  0.34828658782E+03  0.34828658782E+03  0.00000000000E+00 0. -1.
         21   -1    0    0  501  503 -0.00000000000E+00 -0.00000000000E+00 -0.29140318180E+03  0.29140318180E+03  0.00000000000E+00 0.  1.
          6    1    1    2  501    0 -0.14234155352E+03 -0.89840793740E+02 -0.18030430742E+03  0.30128247435E+03  0.17300000000E+03 0.  1.
         -6    1    1    2    0  502  0.14234155352E+03  0.89840793740E+02  0.23718771344E+03  0.33840729526E+03  0.17300000000E+03 0. -1.
<mgrwt>
<rscale>  2 0.24137416E+03</rscale>
<asrwt>0</asrwt>
<pdfrwt beam="1">  1       21 0.53582552E-01 0.24137416E+03</pdfrwt>
<pdfrwt beam="2">  1       21 0.44831259E-01 0.24137416E+03</pdfrwt>
<totfact> 0.15296184E+04</totfact>
</mgrwt>
</event>
<event>
 4    1  0.4043938E+000  0.2300189E+03  0.7546771E-02  0.1126626E+00
         21   -1    0    0  501  502  0.00000000000E+00  0.00000000000E+00  0.40710650978E+03  0.40710650978E+03  0.00000000000E+00 0.  1.
         21   -1    0    0  502  503 -0.00000000000E+00 -0.00000000000E+00 -0.45369122918E+03  0.45369122918E+03  0.00000000000E+00 0.  1.
          6    1    1    2  501    0 -0.10011023038E+03  0.11383162223E+03  0.34027204728E+03  0.41072346245E+03  0.17300000000E+03 0.  1.
         -6    1    1    2    0  503  0.10011023038E+03 -0.11383162223E+03 -0.38685676668E+03  0.45007427651E+03  0.17300000000E+03 0.  1.
<mgrwt>
<rscale>  2 0.23001890E+03</rscale>
<asrwt>0</asrwt>
<pdfrwt beam="1">  1       21 0.62631771E-01 0.23001890E+03</pdfrwt>
<pdfrwt beam="2">  1       21 0.69798650E-01 0.23001890E+03</pdfrwt>
<totfact> 0.42823455E+03</totfact>
</mgrwt>
</event>
<event>
 4    1  0.4043938E+000  0.3044950E+03  0.7546771E-02  0.1083015E+00
         21   -1    0    0  503  502  0.00000000000E+00  0.00000000000E+00  0.11157059739E+04  0.11157059739E+04  0.00000000000E+00 0.  1.
         21   -1    0    0  501  503 -0.00000000000E+00 -0.00000000000E+00 -0.10079375578E+03  0.10079375578E+03  0.00000000000E+00 0.  1.
          6    1    1    2  501    0 -0.21806289452E+03  0.12343745187E+03  0.25262495801E+03  0.39564706482E+03  0.17300000000E+03 0.  1.
         -6    1    1    2    0  502  0.21806289452E+03 -0.12343745187E+03  0.76228726012E+03  0.82085266487E+03  0.17300000000E+03 0.  1.
<mgrwt>
<rscale>  2 0.30449504E+03</rscale>
<asrwt>0</asrwt>
<pdfrwt beam="1">  1       21 0.17164706E+00 0.30449504E+03</pdfrwt>
<pdfrwt beam="2">  1       21 0.15506732E-01 0.30449504E+03</pdfrwt>
<totfact> 0.71189682E+03</totfact>
</mgrwt>
</event>
<event>
 4    1  0.4043938E+000  0.1799493E+03  0.7546771E-02  0.1167852E+00
         21   -1    0    0  503  502  0.00000000000E+00  0.00000000000E+00  0.29381622268E+03  0.29381622268E+03  0.00000000000E+00 0. -1.
         21   -1    0    0  501  503 -0.00000000000E+00 -0.00000000000E+00 -0.11735917319E+03  0.11735917319E+03  0.00000000000E+00 0. -1.
          6    1    1    2  501    0  0.35394597987E+02  0.34640757257E+02  0.13896709358E+03  0.22736229399E+03  0.17300000000E+03 0. -1.
         -6    1    1    2    0  502 -0.35394597987E+02 -0.34640757257E+02  0.37489955915E+02  0.18381310188E+03  0.17300000000E+03 0. -1.
<mgrwt>
<rscale>  2 0.17994933E+03</rscale>
<asrwt>0</asrwt>
<pdfrwt beam="1">  1       21 0.45202495E-01 0.17994933E+03</pdfrwt>
<pdfrwt beam="2">  1       21 0.18055258E-01 0.17994933E+03</pdfrwt>
<totfact> 0.13164357E+05</totfact>
</mgrwt>
</event>
<event>
 4    1  0.4043938E+000  0.2475867E+03  0.7546771E-02  0.1114840E+00
         21   -1    0    0  503  502  0.00000000000E+00  0.00000000000E+00  0.22450329392E+04  0.22450329392E+04  0.00000000000E+00 0.  1.
         21   -1    0    0  501  503 -0.00000000000E+00 -0.00000000000E+00 -0.10511222280E+03  0.10511222280E+03  0.00000000000E+00 0.  1.
          6    1    1    2  501    0 -0.86246120106E+02 -0.15469899043E+03  0.58963405636E+02  0.25451100974E+03  0.17300000000E+03 0.  1.
         -6    1    1    2    0  502  0.86246120106E+02  0.15469899043E+03  0.20809573107E+04  0.20956341522E+04  0.17300000000E+03 0.  1.
<mgrwt>
<rscale>  2 0.24758669E+03</rscale>
<asrwt>0</asrwt>
<pdfrwt beam="1">  1       21 0.34538964E+00 0.24758669E+03</pdfrwt>
<pdfrwt beam="2">  1       21 0.16171113E-01 0.24758669E+03</pdfrwt>
<totfact> 0.59156488E+02</totfact>
</mgrwt>
</event>
<event>
 4    1  0.4043938E+000  0.2256460E+03  0.7546771E-02  0.1129742E+00
         21   -1    0    0  503  502  0.00000000000E+00  0.00000000000E+00  0.12537506821E+03  0.12537506821E+03  0.00000000000E+00 0. -1.
         21   -1    0    0  501  503 -0.00000000000E+00 -0.00000000000E+00 -0.43225963889E+03  0.43225963889E+03  0.00000000000E+00 0.  1.
          6    1    1    2  501    0 -0.66860717650E+02 -0.12851758845E+03 -0.22201897549E+03  0.31655734328E+03  0.17300000000E+03 0.  1.
         -6    1    1    2    0  502  0.66860717650E+02  0.12851758845E+03 -0.84865595190E+02  0.24107736383E+03  0.17300000000E+03 0. -1.
<mgrwt>
<rscale>  2 0.22564602E+03</rscale>
<asrwt>0</asrwt>
<pdfrwt beam="1">  1       21 0.19288472E-01 0.22564602E+03</pdfrwt>
<pdfrwt beam="2">  1       21 0.66501481E-01 0.22564602E+03</pdfrwt>
<totfact> 0.50417817E+04</totfact>
</mgrwt>
</event>
<event>
 4    1  0.4043938E+000  0.2980838E+03  0.7546771E-02  0.1086202E+00
         21   -1    0    0  501  502  0.00000000000E+00  0.00000000000E+00  0.58407802582E+02  0.58407802582E+02  0.00000000000E+00 0.  1.
         21   -1    0    0  502  503 -0.00000000000E+00 -0.00000000000E+00 -0.19532453712E+04  0.19532453712E+04  0.00000000000E+00 0. -1.
          6    1    1    2  501    0  0.14756142762E+03  0.19274492426E+03 -0.14204335454E+04  0.14513736382E+04  0.17300000000E+03 0. -1.
         -6    1    1    2    0  503 -0.14756142762E+03 -0.19274492426E+03 -0.47440402320E+03  0.56027953557E+03  0.17300000000E+03 0.  1.
<mgrwt>
<rscale>  2 0.29808385E+03</rscale>
<asrwt>0</asrwt>
<pdfrwt beam="1">  1       21 0.89858178E-02 0.29808385E+03</pdfrwt>
<pdfrwt beam="2">  1       21 0.30049922E+00 0.29808385E+03</pdfrwt>
<totfact> 0.29985823E+03</totfact>
</mgrwt>
</event>
<event>
 4    1  0.4043938E+000  0.2530074E+03  0.7546771E-02  0.1111419E+00
         21   -1    0    0  501  502  0.00000000000E+00  0.00000000000E+00  0.20826744417E+04  0.20826744417E+04  0.00000000000E+00 0.  1.
         21   -1    0    0  502  503 -0.00000000000E+00 -0.00000000000E+00 -0.36028657409E+02  0.36028657409E+02  0.00000000000E+00 0. -1.
          6    1    1    2  501    0 -0.34054393129E+02  0.18144983191E+03  0.14293542970E+04  0.14515737837E+04  0.17300000000E+03 0.  1.
         -6    1    1    2    0  503  0.34054393129E+02 -0.18144983191E+03  0.61729148735E+03  0.66712931546E+03  0.17300000000E+03 0.  1.
<mgrwt>
<rscale>  2 0.25300740E+03</rscale>
<asrwt>0</asrwt>
<pdfrwt beam="1">  1       21 0.32041136E+00 0.25300740E+03</pdfrwt>
<pdfrwt beam="2">  1       21 0.55428720E-02 0.25300740E+03</pdfrwt>
<totfact> 0.55172675E+03</totfact>
</mgrwt>
</event>
<event>
 4    1  0.4043938E+000  0.2389779E+03  0.7546771E-02  0.1120476E+00
         21   -1    0    0  503  502  0.00000000000E+00  0.00000000000E+00  0.75131701881E+02  0.75131701881E+02  0.00000000000E+00 0. -1.
         21   -1    0    0  501  503 -0.00000000000E+00 -0.00000000000E+00 -0.12584762880E+04  0.12584762880E+04  0.00000000000E+00 0.  1.
          6    1    1    2  501    0  0.48167385387E+02  0.15767476242E+03 -0.10112747274E+04  0.10391280007E+04  0.17300000000E+03 0.  1.
         -6    1    1    2    0  502 -0.48167385387E+02 -0.15767476242E+03 -0.17206985879E+03  0.29447998917E+03  0.17300000000E+03 0. -1.
<mgrwt>
<rscale>  2 0.23897788E+03</rscale>
<asrwt>0</asrwt>
<pdfrwt beam="1">  1       21 0.11558724E-01 0.23897788E+03</pdfrwt>
<pdfrwt beam="2">  1       21 0.19361173E+00 0.23897788E+03</pdfrwt>
<totfact> 0.89387065E+03</totfact>
</mgrwt>
</event>
<event>
 4    1  0.4043938E+000  0.2318414E+03  0.7546771E-02  0.1125350E+00
         21   -1    0    0  503  502  0.00000000000E+00  0.00000000000E+00  0.34250209649E+03  0.34250209649E+03  0.00000000000E+00 0.  1.
         21   -1    0    0  501  503 -0.00000000000E+00 -0.00000000000E+00 -0.19621063215E+03  0.19621063215E+03  0.00000000000E+00 0.  1.
          6    1    1    2  501    0  0.11703721976E+03 -0.10061673619E+03 -0.47366084345E+02  0.23663048062E+03  0.17300000000E+03 0.  1.
         -6    1    1    2    0  502 -0.11703721976E+03  0.10061673619E+03  0.19365754868E+03  0.30208224802E+03  0.17300000000E+03 0.  1.
<mgrwt>
<rscale>  2 0.23184141E+03</rscale>
<asrwt>0</asrwt>
<pdfrwt beam="1">  1       21 0.52692630E-01 0.23184141E+03</pdfrwt>
<pdfrwt beam="2">  1       21 0.30186251E-01 0.23184141E+03</pdfrwt>
<totfact> 0.35244101E+04</totfact>
</mgrwt>
</event>
<event>
 4    1  0.4043938E+000  0.1850776E+03  0.7546771E-02  0.1162977E+00
         21   -1    0    0  503  502  0.00000000000E+00  0.00000000000E+00  0.44456946736E+02  0.44456946736E+02  0.00000000000E+00 0.  1.
         21   -1    0    0  501  503 -0.00000000000E+00 -0.00000000000E+00 -0.77226782783E+03  0.77226782783E+03  0.00000000000E+00 0.  1.
          6    1    1    2  501    0  0.65728294463E+02 -0.21212965277E+01 -0.38348931109E+03  0.42581423216E+03  0.17300000000E+03 0.  1.
         -6    1    1    2    0  502 -0.65728294463E+02  0.21212965277E+01 -0.34432157001E+03  0.39091054241E+03  0.17300000000E+03 0.  1.
<mgrwt>
<rscale>  2 0.18507757E+03</rscale>
<asrwt>0</asrwt>
<pdfrwt beam="1">  1       21 0.68395305E-02 0.18507757E+03</pdfrwt>
<pdfrwt beam="2">  1       21 0.11881043E+00 0.18507757E+03</pdfrwt>
<totfact> 0.85513771E+04</totfact>
</mgrwt>
</event>
<event>
 4    1  0.4043938E+000  0.1785273E+03  0.7546771E-02  0.1169236E+00
         21   -1    0    0  503  502  0.00000000000E+00  0.00000000000E+00  0.26712979553E+03  0.26712979553E+03  0.00000000000E+00 0.  1.
         21   -1    0    0  501  503 -0.00000000000E+00 -0.00000000000E+00 -0.24842853166E+03  0.24842853166E+03  0.00000000000E+00 0.  1.
          6    1    1    2  501    0 -0.17544603760E+02 -0.40437451590E+02 -0.17648828887E+03  0.25103807823E+03  0.17300000000E+03 0.  1.
         -6    1    1    2    0  502  0.17544603760E+02  0.40437451590E+02  0.19518955274E+03  0.26452024897E+03  0.17300000000E+03 0.  1.
<mgrwt>
<rscale>  2 0.17852731E+03</rscale>
<asrwt>0</asrwt>
<pdfrwt beam="1">  1       21 0.41096892E-01 0.17852731E+03</pdfrwt>
<pdfrwt beam="2">  1       21 0.38219774E-01 0.17852731E+03</pdfrwt>
<totfact> 0.37918374E+04</totfact>
</mgrwt>
</event>
<event>
 4    1  0.4043938E+000  0.1757846E+03  0.7546771E-02  0.1171946E+00
         21   -1    0    0  503  502  0.00000000000E+00  0.00000000000E+00  0.44390771437E+02  0.44390771437E+02  0.00000000000E+00 0.  1.
         21   -1    0    0  501  503 -0.00000000000E+00 -0.00000000000E+00 -0.81230818704E+03  0.81230818704E+03  0.00000000000E+00 0.  1.
          6    1    1    2  501    0 -0.28305267405E+02  0.13039591218E+02 -0.54597716002E+03  0.57357761320E+03  0.17300000000E+03 0.  1.
         -6    1    1    2    0  502  0.28305267405E+02 -0.13039591218E+02 -0.22194025558E+03  0.28312134528E+03  0.17300000000E+03 0.  1.
<mgrwt>
<rscale>  2 0.17578458E+03</rscale>
<asrwt>0</asrwt>
<pdfrwt beam="1">  1       21 0.68293498E-02 0.17578458E+03</pdfrwt>
<pdfrwt beam="2">  1       21 0.12497048E+00 0.17578458E+03</pdfrwt>
<totfact> 0.75951496E+04</totfact>
</mgrwt>
</event>
<event>
 4    1  0.4043938E+000  0.1848523E+03  0.7546771E-02  0.1163188E+00
         21   -1    0    0  503  502  0.00000000000E+00  0.00000000000E+00  0.63288759803E+03  0.63288759803E+03  0.00000000000E+00 0.  1.
         21   -1    0    0  501  503 -0.00000000000E+00 -0.00000000000E+00 -0.27343511759E+03  0.27343511759E+03  0.00000000000E+00 0.  1.
          6    1    1    2  501    0 -0.11164589658E+02 -0.64161779157E+02 -0.22623770555E+03  0.29215386593E+03  0.17300000000E+03 0.  1.
         -6    1    1    2    0  502  0.11164589658E+02  0.64161779157E+02  0.58569018599E+03  0.61416884969E+03  0.17300000000E+03 0.  1.
<mgrwt>
<rscale>  2 0.18485232E+03</rscale>
<asrwt>0</asrwt>
<pdfrwt beam="1">  1       21 0.97367322E-01 0.18485232E+03</pdfrwt>
<pdfrwt beam="2">  1       21 0.42066941E-01 0.18485232E+03</pdfrwt>
<totfact> 0.47850713E+03</totfact>
</mgrwt>
</event>
<event>
 4    1  0.4043938E+000  0.2186921E+03  0.7546771E-02  0.1134862E+00
         21   -1    0    0  501  502  0.00000000000E+00  0.00000000000E+00  0.91355544653E+02  0.91355544653E+02  0.00000000000E+00 0.  1.
         21   -1    0    0  502  503 -0.00000000000E+00 -0.00000000000E+00 -0.54532655564E+03  0.54532655564E+03  0.00000000000E+00 0.  1.
          6    1    1    2  501    0 -0.78171546251E+02 -0.10856540348E+03 -0.16332332076E+03  0.27294824524E+03  0.17300000000E+03 0.  1.
         -6    1    1    2    0  503  0.78171546251E+02  0.10856540348E+03 -0.29064769023E+03  0.36373385506E+03  0.17300000000E+03 0.  1.
<mgrwt>
<rscale>  2 0.21869211E+03</rscale>
<asrwt>0</asrwt>
<pdfrwt beam="1">  1       21 0.14054699E-01 0.21869211E+03</pdfrwt>
<pdfrwt beam="2">  1       21 0.83896394E-01 0.21869211E+03</pdfrwt>
<totfact> 0.53830227E+04</totfact>
</mgrwt>
</event>
<event>
 4    1  0.4043938E+000  0.1814232E+03  0.7546771E-02  0.1166433E+00
         21   -1    0    0  501  502  0.00000000000E+00  0.00000000000E+00  0.87543858941E+02  0.87543858941E+02  0.00000000000E+00 0. -1.
         21   -1    0    0  502  503 -0.00000000000E+00 -0.00000000000E+00 -0.56259765969E+03  0.56259765969E+03  0.00000000000E+00 0.  1.
          6    1    1    2  501    0  0.45623061844E+02  0.30064898114E+02 -0.50303408272E+02  0.18826788030E+03  0.17300000000E+03 0. -1.
         -6    1    1    2    0  503 -0.45623061844E+02 -0.30064898114E+02 -0.42475039248E+03  0.46187363832E+03  0.17300000000E+03 0.  1.
<mgrwt>
<rscale>  2 0.18142316E+03</rscale>
<asrwt>0</asrwt>
<pdfrwt beam="1">  1       21 0.13468285E-01 0.18142316E+03</pdfrwt>
<pdfrwt beam="2">  1       21 0.86553491E-01 0.18142316E+03</pdfrwt>
<totfact> 0.55112970E+04</totfact>
</mgrwt>
</event>
<event>
 4    1  0.4043938E+000  0.2042950E+03  0.7546771E-02  0.1146165E+00
         21   -1    0    0  503  502  0.00000000000E+00  0.00000000000E+00  0.64292715449E+03  0.64292715449E+03  0.00000000000E+00 0. -1.
         21   -1    0    0  501  503 -0.00000000000E+00 -0.00000000000E+00 -0.70736425349E+02  0.70736425349E+02  0.00000000000E+00 0.  1.
          6    1    1    2  501    0  0.83092416968E+02 -0.70022024487E+02  0.38845040141E+03  0.43889651175E+03  0.17300000000E+03 0.  1.
         -6    1    1    2    0  502 -0.83092416968E+02  0.70022024487E+02  0.18374032773E+03  0.27476706809E+03  0.17300000000E+03 0.  1.
<mgrwt>
<rscale>  2 0.20429497E+03</rscale>
<asrwt>0</asrwt>
<pdfrwt beam="1">  1       21 0.98911866E-01 0.20429497E+03</pdfrwt>
<pdfrwt beam="2">  1       21 0.10882527E-01 0.20429497E+03</pdfrwt>
<totfact> 0.58513878E+04</totfact>
</mgrwt>
</event>
<event>
 4    1  0.4043938E+000  0.1831006E+03  0.7546771E-02  0.1164836E+00
         21   -1    0    0  501  502  0.00000000000E+00  0.00000000000E+00  0.43821554051E+02  0.43821554051E+02  0.00000000000E+00 0.  1.
         21   -1    0    0  502  503 -0.00000000000E+00 -0.00000000000E+00 -0.14490125207E+04  0.14490125207E+04  0.00000000000E+00 0.  1.
          6    1    1    2  501    0 -0.15737743354E+02  0.57871946947E+02 -0.12154101950E+04  0.12291248029E+04  0.17300000000E+03 0.  1.
         -6    1    1    2    0  503  0.15737743354E+02 -0.57871946947E+02 -0.18978077163E+03  0.26370927191E+03  0.17300000000E+03 0.  1.
<mgrwt>
<rscale>  2 0.18310062E+03</rscale>
<asrwt>0</asrwt>
<pdfrwt beam="1">  1       21 0.67417775E-02 0.18310062E+03</pdfrwt>
<pdfrwt beam="2">  1       21 0.22292501E+00 0.18310062E+03</pdfrwt>
<totfact> 0.15707990E+04</totfact>
</mgrwt>
</event>
<event>
 4    1  0.4043938E+000  0.2272913E+03  0.7546771E-02  0.1128561E+00
         21   -1    0    0  501  502  0.00000000000E+00  0.00000000000E+00  0.14555239188E+04  0.14555239188E+04  0.00000000000E+00 0. -1.
         21   -1    0    0  502  503 -0.00000000000E+00 -0.00000000000E+00 -0.90593961785E+02  0.90593961785E+02  0.00000000000E+00 0. -1.
          6    1    1    2  501    0 -0.86670153636E+02  0.11925017735E+03  0.12853596714E+04  0.13053010401E+04  0.17300000000E+03 0. -1.
         -6    1    1    2    0  503  0.86670153636E+02 -0.11925017735E+03  0.79570285622E+02  0.24081684053E+03  0.17300000000E+03 0. -1.
<mgrwt>
<rscale>  2 0.22729127E+03</rscale>
<asrwt>0</asrwt>
<pdfrwt beam="1">  1       21 0.22392674E+00 0.22729127E+03</pdfrwt>
<pdfrwt beam="2">  1       21 0.13937534E-01 0.22729127E+03</pdfrwt>
<totfact> 0.41300273E+03</totfact>
</mgrwt>
</event>
<event>
 4    1  0.4043938E+000  0.1780431E+03  0.7546771E-02  0.1169710E+00
         21   -1    0    0  501  502  0.00000000000E+00  0.00000000000E+00  0.29545547218E+03  0.29545547218E+03  0.00000000000E+00 0. -1.
         21   -1    0    0  502  503 -0.00000000000E+00 -0.00000000000E+00 -0.10745316137E+03  0.10745316137E+03  0.00000000000E+00 0. -1.
          6    1    1    2  501    0  0.20091295232E+02 -0.36968834053E+02  0.10185637338E+03  0.20511966174E+03  0.17300000000E+03 0. -1.
         -6    1    1    2    0  503 -0.20091295232E+02  0.36968834053E+02  0.86145937424E+02  0.19778897181E+03  0.17300000000E+03 0. -1.
<mgrwt>
<rscale>  2 0.17804313E+03</rscale>
<asrwt>0</asrwt>
<pdfrwt beam="1">  1       21 0.45454688E-01 0.17804313E+03</pdfrwt>
<pdfrwt beam="2">  1       21 0.16531256E-01 0.17804313E+03</pdfrwt>
<totfact> 0.15316290E+05</totfact>
</mgrwt>
</event>
<event>
 4    1  0.4043938E+000  0.1829505E+03  0.7546771E-02  0.1164978E+00
         21   -1    0    0  501  502  0.00000000000E+00  0.00000000000E+00  0.40505014371E+02  0.40505014371E+02  0.00000000000E+00 0.  1.
         21   -1    0    0  502  503 -0.00000000000E+00 -0.00000000000E+00 -0.89321905361E+03  0.89321905361E+03  0.00000000000E+00 0.  1.
          6    1    1    2  501    0 -0.46136898104E+02 -0.37593545278E+02 -0.29860826443E+03  0.35019677840E+03  0.17300000000E+03 0.  1.
         -6    1    1    2    0  503  0.46136898104E+02  0.37593545278E+02 -0.55410577481E+03  0.58352728959E+03  0.17300000000E+03 0.  1.
<mgrwt>
<rscale>  2 0.18295051E+03</rscale>
<asrwt>0</asrwt>
<pdfrwt beam="1">  1       21 0.62315410E-02 0.18295051E+03</pdfrwt>
<pdfrwt beam="2">  1       21 0.13741831E+00 0.18295051E+03</pdfrwt>
<totfact> 0.69710633E+04</totfact>
</mgrwt>
</event>
<event>
 4    1  0.4043938E+000  0.1980879E+03  0.7546771E-02  0.1151362E+00
         21   -1    0    0  501  502  0.00000000000E+00  0.00000000000E+00  0.34328952657E+03  0.34328952657E+03  0.00000000000E+00 0. -1.
         21   -1    0    0  502  503 -0.00000000000E+00 -0.00000000000E+00 -0.18324712100E+03  0.18324712100E+03  0.00000000000E+00 0. -1.
          6    1    1    2  501    0  0.58255649285E+02  0.76916080484E+02  0.24150563235E+03  0.31235200427E+03  0.17300000000E+03 0. -1.
         -6    1    1    2    0  503 -0.58255649285E+02 -0.76916080484E+02 -0.81463226778E+02  0.21418464330E+03  0.17300000000E+03 0. -1.
<mgrwt>
<rscale>  2 0.19808787E+03</rscale>
<asrwt>0</asrwt>
<pdfrwt beam="1">  1       21 0.52813773E-01 0.19808787E+03</pdfrwt>
<pdfrwt beam="2">  1       21 0.28191865E-01 0.19808787E+03</pdfrwt>
<totfact> 0.40739470E+04</totfact>
</mgrwt>
</event>
<event>
 4    1  0.4043938E+000  0.2374894E+03  0.7546771E-02  0.1121477E+00
         21   -1    0    0  501  502  0.00000000000E+00  0.00000000000E+00  0.10587331643E+03  0.10587331643E+03  0.00000000000E+00 0.  1.
         21   -1    0    0  502  503 -0.00000000000E+00 -0.00000000000E+00 -0.69067336251E+03  0.69067336251E+03  0.00000000000E+00 0. -1.
          6    1    1    2  501    0 -0.65665658242E+02 -0.14886309545E+03 -0.10193968184E+03  0.25844322122E+03  0.17300000000E+03 0.  1.
         -6    1    1    2    0  503  0.65665658242E+02  0.14886309545E+03 -0.48286036424E+03  0.53810345773E+03  0.17300000000E+03 0. -1.
<mgrwt>
<rscale>  2 0.23748937E+03</rscale>
<asrwt>0</asrwt>
<pdfrwt beam="1">  1       21 0.16288202E-01 0.23748937E+03</pdfrwt>
<pdfrwt beam="2">  1       21 0.10625744E+00 0.23748937E+03</pdfrwt>
<totfact> 0.23357671E+04</totfact>
</mgrwt>
</event>
<event>
 4    1  0.4043938E+000  0.2064178E+03  0.7546771E-02  0.1144435E+00
         21   -1    0    0  503  502  0.00000000000E+00  0.00000000000E+00  0.74091860633E+03  0.74091860633E+03  0.00000000000E+00 0.  1.
         21   -1    0    0  501  503 -0.00000000000E+00 -0.00000000000E+00 -0.17292746591E+03  0.17292746591E+03  0.00000000000E+00 0.  1.
          6    1    1    2  501    0  0.27919230008E+02  0.10908632800E+03 -0.89299027302E+02  0.22490581726E+03  0.17300000000E+03 0.  1.
         -6    1    1    2    0  502 -0.27919230008E+02 -0.10908632800E+03  0.65729016772E+03  0.68894025499E+03  0.17300000000E+03 0.  1.
<mgrwt>
<rscale>  2 0.20641781E+03</rscale>
<asrwt>0</asrwt>
<pdfrwt beam="1">  1       21 0.11398748E+00 0.20641781E+03</pdfrwt>
<pdfrwt beam="2">  1       21 0.26604226E-01 0.20641781E+03</pdfrwt>
<totfact> 0.79728766E+03</totfact>
</mgrwt>
</event>
<event>
 4    1  0.4043938E+000  0.1951539E+03  0.7546771E-02  0.1153893E+00
         21   -1    0    0  501  502  0.00000000000E+00  0.00000000000E+00  0.81951248371E+03  0.81951248371E+03  0.00000000000E+00 0.  1.
         21   -1    0    0  502  503 -0.00000000000E+00 -0.00000000000E+00 -0.54652985858E+02  0.54652985858E+02  0.00000000000E+00 0.  1.
          6    1    1    2  501    0 -0.73363924923E+02 -0.52666554733E+02  0.21333171473E+03  0.28912878096E+03  0.17300000000E+03 0.  1.
         -6    1    1    2    0  503  0.73363924923E+02  0.52666554733E+02  0.55152778312E+03  0.58503668861E+03  0.17300000000E+03 0.  1.
<mgrwt>
<rscale>  2 0.19515387E+03</rscale>
<asrwt>0</asrwt>
<pdfrwt beam="1">  1       21 0.12607883E+00 0.19515387E+03</pdfrwt>
<pdfrwt beam="2">  1       21 0.84081523E-02 0.19515387E+03</pdfrwt>
<totfact> 0.51302289E+04</totfact>
</mgrwt>
</event>
<event>
 4    1  0.4043938E+000  0.2172372E+03  0.7546771E-02  0.1135960E+00
         21   -1    0    0  503  502  0.00000000000E+00  0.00000000000E+00  0.28573520969E+03  0.28573520969E+03  0.00000000000E+00 0. -1.
         21   -1    0    0  501  503 -0.00000000000E+00 -0.00000000000E+00 -0.20432682830E+03  0.20432682830E+03  0.00000000000E+00 0. -1.
          6    1    1    2  501    0  0.10445901698E+03 -0.79695055415E+02 -0.66575702117E+02  0.22720984177E+03  0.17300000000E+03 0. -1.
         -6    1    1    2    0  502 -0.10445901698E+03  0.79695055415E+02  0.14798408351E+03  0.26285219622E+03  0.17300000000E+03 0. -1.
<mgrwt>
<rscale>  2 0.21723717E+03</rscale>
<asrwt>0</asrwt>
<pdfrwt beam="1">  1       21 0.43959263E-01 0.21723717E+03</pdfrwt>
<pdfrwt beam="2">  1       21 0.31434897E-01 0.21723717E+03</pdfrwt>
<totfact> 0.47785697E+04</totfact>
</mgrwt>
</event>
<event>
 4    1  0.4043938E+000  0.1922593E+03  0.7546771E-02  0.1156439E+00
         21   -1    0    0  501  502  0.00000000000E+00  0.00000000000E+00  0.43921458264E+03  0.43921458264E+03  0.00000000000E+00 0. -1.
         21   -1    0    0  502  503 -0.00000000000E+00 -0.00000000000E+00 -0.73547089862E+03  0.73547089862E+03  0.00000000000E+00 0. -1.
          6    1    1    2  501    0 -0.81686023892E+02 -0.19026669224E+02  0.40458976374E+03  0.44794698076E+03  0.17300000000E+03 0. -1.
         -6    1    1    2    0  503  0.81686023892E+02  0.19026669224E+02 -0.70084607973E+03  0.72673850050E+03  0.17300000000E+03 0. -1.
<mgrwt>
<rscale>  2 0.19225925E+03</rscale>
<asrwt>0</asrwt>
<pdfrwt beam="1">  1       21 0.67571476E-01 0.19225925E+03</pdfrwt>
<pdfrwt beam="2">  1       21 0.11314937E+00 0.19225925E+03</pdfrwt>
<totfact> 0.12217907E+03</totfact>
</mgrwt>
</event>
<event>
 4    1  0.4043938E+000  0.2690577E+03  0.7546771E-02  0.1101820E+00
         21   -1    0    0  501  502  0.00000000000E+00  0.00000000000E+00  0.18300061765E+03  0.18300061765E+03  0.00000000000E+00 0.  1.
         21   -1    0    0  502  503 -0.00000000000E+00 -0.00000000000E+00 -0.42067061456E+03  0.42067061456E+03  0.00000000000E+00 0. -1.
          6    1    1    2  501    0  0.38783945707E+02  0.20238289827E+03 -0.45125337074E+02  0.27281555674E+03  0.17300000000E+03 0. -1.
         -6    1    1    2    0  503 -0.38783945707E+02 -0.20238289827E+03 -0.19254465983E+03  0.33085567546E+03  0.17300000000E+03 0. -1.
<mgrwt>
<rscale>  2 0.26905767E+03</rscale>
<asrwt>0</asrwt>
<pdfrwt beam="1">  1       21 0.28153941E-01 0.26905767E+03</pdfrwt>
<pdfrwt beam="2">  1       21 0.64718556E-01 0.26905767E+03</pdfrwt>
<totfact> 0.25527439E+04</totfact>
</mgrwt>
</event>
<event>
 4    1  0.4043938E+000  0.1846284E+03  0.7546771E-02  0.1163397E+00
         21   -1    0    0  503  502  0.00000000000E+00  0.00000000000E+00  0.23218420190E+03  0.23218420190E+03  0.00000000000E+00 0.  1.
         21   -1    0    0  501  503 -0.00000000000E+00 -0.00000000000E+00 -0.14707046338E+03  0.14707046338E+03  0.00000000000E+00 0.  1.
          6    1    1    2  501    0  0.51832421009E+02  0.38367166187E+02  0.34621478734E+02  0.18784644287E+03  0.17300000000E+03 0.  1.
         -6    1    1    2    0  502 -0.51832421009E+02 -0.38367166187E+02  0.50492259782E+02  0.19140822241E+03  0.17300000000E+03 0.  1.
<mgrwt>
<rscale>  2 0.18462838E+03</rscale>
<asrwt>0</asrwt>
<pdfrwt beam="1">  1       21 0.35720646E-01 0.18462838E+03</pdfrwt>
<pdfrwt beam="2">  1       21 0.22626225E-01 0.18462838E+03</pdfrwt>
<totfact> 0.13871475E+05</totfact>
</mgrwt>
</event>
<event>
 4    1  0.4043938E+000  0.2091458E+03  0.7546771E-02  0.1142244E+00
         21   -1    0    0  503  502  0.00000000000E+00  0.00000000000E+00  0.15554195763E+04  0.15554195763E+04  0.00000000000E+00 0.  1.
         21   -1    0    0  501  503 -0.00000000000E+00 -0.00000000000E+00 -0.34913304732E+02  0.34913304732E+02  0.00000000000E+00 0.  1.
          6    1    1    2  501    0 -0.94120461781E+02  0.70386895918E+02  0.40955813939E+03  0.45986937927E+03  0.17300000000E+03 0.  1.
         -6    1    1    2    0  502  0.94120461781E+02 -0.70386895918E+02  0.11109481322E+04  0.11304635018E+04  0.17300000000E+03 0.  1.
<mgrwt>
<rscale>  2 0.20914583E+03</rscale>
<asrwt>0</asrwt>
<pdfrwt beam="1">  1       21 0.23929527E+00 0.20914583E+03</pdfrwt>
<pdfrwt beam="2">  1       21 0.53712789E-02 0.20914583E+03</pdfrwt>
<totfact> 0.18069847E+04</totfact>
</mgrwt>
</event>
<event>
 4    1  0.4043938E+000  0.2552595E+03  0.7546771E-02  0.1110025E+00
         21   -1    0    0  501  502  0.00000000000E+00  0.00000000000E+00  0.41288606085E+03  0.41288606085E+03  0.00000000000E+00 0.  1.
         21   -1    0    0  502  503 -0.00000000000E+00 -0.00000000000E+00 -0.17872136349E+03  0.17872136349E+03  0.00000000000E+00 0.  1.
          6    1    1    2  501    0  0.18482598575E+03 -0.32676478390E+02  0.21826600856E+03  0.33585331283E+03  0.17300000000E+03 0.  1.
         -6    1    1    2    0  503 -0.18482598575E+03  0.32676478390E+02  0.15898688799E+02  0.25575411151E+03  0.17300000000E+03 0.  1.
<mgrwt>
<rscale>  2 0.25525947E+03</rscale>
<asrwt>0</asrwt>
<pdfrwt beam="1">  1       21 0.63520932E-01 0.25525947E+03</pdfrwt>
<pdfrwt beam="2">  1       21 0.27495594E-01 0.25525947E+03</pdfrwt>
<totfact> 0.28013590E+04</totfact>
</mgrwt>
</event>
