<event>
 8    1  0.2433390E-006  0.9118800E+02  0.7816164E-02  0.1184000E+00
        -11   -1    0    0    0    0  0.00000000000E+00  0.00000000000E+00  0.45593999997E+02  0.45594000000E+02  0.51100000000E-03 0.  1.
         11   -1    0    0    0    0 -0.00000000000E+00 -0.00000000000E+00 -0.45593999997E+02  0.45594000000E+02  0.51100000000E-03 0. -1.
         23    2    1    2    0    0  0.00000000000E+00 -0.35527136788E-14 -0.17763568394E-14  0.91188000000E+02  0.91188000000E+02 0.  0.
    9900012    2    3    3    0    0  0.17654387807E+02  0.30136925834E+02  0.11656386183E+02  0.54367040664E+02  0.39999900802E+02 0.  0.
         12    1    3    3    0    0 -0.17654387807E+02 -0.30136925834E+02 -0.11656386183E+02  0.36820959336E+02  0.00000000000E+00 0. -1.
         11    1    4    4    0    0  0.16499816571E+02  0.13466348368E+02 -0.16070498314E+01  0.21358115429E+02  0.51100000000E-03 0. -1.
        -11    1    4    4    0    0 -0.43220939070E+01 -0.14107670307E+01 -0.49817914888E+01  0.67445538069E+01  0.51100000000E-03 0.  1.
        -12    1    4    4    0    0  0.54766651424E+01  0.18081344497E+02  0.18245227503E+02  0.26264371428E+02  0.00000000000E+00 0.  1.
</event>
<event>
 8    1  0.2433390E-006  0.9118800E+02  0.7816164E-02  0.1184000E+00
        -11   -1    0    0    0    0  0.00000000000E+00  0.00000000000E+00  0.45593999997E+02  0.45594000000E+02  0.51100000000E-03 0.  1.
         11   -1    0    0    0    0 -0.00000000000E+00 -0.00000000000E+00 -0.45593999997E+02  0.45594000000E+02  0.51100000000E-03 0. -1.
         23    2    1    2    0    0  0.00000000000E+00  0.71054273576E-14  0.00000000000E+00  0.91188000000E+02  0.91188000000E+02 0.  0.
    9900012    2    3    3    0    0  0.17823841505E+02  0.32210735861E+02 -0.74709413549E+00  0.54367095878E+02  0.40000026674E+02 0.  0.
         12    1    3    3    0    0 -0.17823841505E+02 -0.32210735861E+02  0.74709413549E+00  0.36820904122E+02  0.00000000000E+00 0. -1.
         11    1    4    4    0    0  0.17404861251E+02  0.69277980656E+01 -0.32774005523E+01  0.19017490262E+02  0.51100000000E-03 0. -1.
        -11    1    4    4    0    0  0.11463851768E+02  0.19899883277E+02  0.19678985572E+01  0.23049899713E+02  0.51100000000E-03 0.  1.
         12    1    4    4    0    0 -0.11044871514E+02  0.53830545181E+01  0.56240785961E+00  0.12299705904E+02  0.00000000000E+00 0. -1.
</event>
<event>
 8    1  0.2433390E-006  0.9118800E+02  0.7816164E-02  0.1184000E+00
        -11   -1    0    0    0    0  0.00000000000E+00  0.00000000000E+00  0.45593999997E+02  0.45594000000E+02  0.51100000000E-03 0.  1.
         11   -1    0    0    0    0 -0.00000000000E+00 -0.00000000000E+00 -0.45593999997E+02  0.45594000000E+02  0.51100000000E-03 0. -1.
         23    2    1    2    0    0  0.00000000000E+00  0.00000000000E+00  0.00000000000E+00  0.91188000000E+02  0.91188000000E+02 0.  0.
    9900012    2    3    3    0    0  0.25516230312E+02 -0.26535527853E+02 -0.75232465914E+00  0.54367105930E+02  0.40000049588E+02 0.  0.
        -12    1    3    3    0    0 -0.25516230312E+02  0.26535527853E+02  0.75232465914E+00  0.36820894070E+02  0.00000000000E+00 0.  1.
         11    1    4    4    0    0  0.19445608092E+02 -0.23968462255E+02 -0.10585206950E+02  0.32629211810E+02  0.51100000000E-03 0. -1.
        -11    1    4    4    0    0  0.23210146914E+01 -0.86722640456E+01 -0.69386462002E+00  0.90042612827E+01  0.51100000000E-03 0.  1.
        -12    1    4    4    0    0  0.37496075285E+01  0.61051984477E+01  0.10526746910E+02  0.12733632837E+02  0.00000000000E+00 0.  1.
</event>
<event>
 8    1  0.2433390E-006  0.9118800E+02  0.7816164E-02  0.1184000E+00
        -11   -1    0    0    0    0  0.00000000000E+00  0.00000000000E+00  0.45593999997E+02  0.45594000000E+02  0.51100000000E-03 0.  1.
         11   -1    0    0    0    0 -0.00000000000E+00 -0.00000000000E+00 -0.45593999997E+02  0.45594000000E+02  0.51100000000E-03 0. -1.
         23    2    1    2    0    0  0.00000000000E+00  0.71054273576E-14  0.00000000000E+00  0.91188000000E+02  0.91188000000E+02 0.  0.
    9900012    2    3    3    0    0  0.29565130375E+01 -0.33550071302E+02  0.14880559868E+02  0.54367091325E+02  0.40000016293E+02 0.  0.
        -12    1    3    3    0    0 -0.29565130375E+01  0.33550071302E+02 -0.14880559868E+02  0.36820908675E+02  0.00000000000E+00 0.  1.
         11    1    4    4    0    0  0.12484821762E+01 -0.41141870921E+01 -0.49838418674E+01  0.65820910958E+01  0.51100000000E-03 0. -1.
        -11    1    4    4    0    0  0.13278501178E+02 -0.16695514754E+02  0.21758111460E+02  0.30470874963E+02  0.51100000000E-03 0.  1.
         12    1    4    4    0    0 -0.11570470316E+02 -0.12740369456E+02 -0.18937097246E+01  0.17314125266E+02  0.00000000000E+00 0. -1.
</event>
<event>
 8    1  0.2433390E-006  0.9118800E+02  0.7816164E-02  0.1184000E+00
        -11   -1    0    0    0    0  0.00000000000E+00  0.00000000000E+00  0.45593999997E+02  0.45594000000E+02  0.51100000000E-03 0. -1.
         11   -1    0    0    0    0 -0.00000000000E+00 -0.00000000000E+00 -0.45593999997E+02  0.45594000000E+02  0.51100000000E-03 0.  1.
         23    2    1    2    0    0  0.00000000000E+00  0.35527136788E-14  0.00000000000E+00  0.91188000000E+02  0.91188000000E+02 0.  0.
    9900012    2    3    3    0    0  0.11798299410E+02  0.10367098820E+02 -0.33303032767E+02  0.54367236857E+02  0.40000348062E+02 0.  0.
         12    1    3    3    0    0 -0.11798299410E+02 -0.10367098820E+02  0.33303032767E+02  0.36820763143E+02  0.00000000000E+00 0. -1.
         11    1    4    4    0    0  0.39592553115E+01  0.21647902241E+02 -0.29138549445E+02  0.36515235698E+02  0.51100000000E-03 0. -1.
        -11    1    4    4    0    0 -0.49097170228E+00  0.17919730156E+01 -0.47643369546E+00  0.19181266455E+01  0.51100000000E-03 0.  1.
         12    1    4    4    0    0  0.83300158012E+01 -0.13072776436E+02 -0.36880496263E+01  0.15933874514E+02  0.00000000000E+00 0. -1.
</event>
<event>
 8    1  0.2433390E-006  0.9118800E+02  0.7816164E-02  0.1184000E+00
        -11   -1    0    0    0    0  0.00000000000E+00  0.00000000000E+00  0.45593999997E+02  0.45594000000E+02  0.51100000000E-03 0.  1.
         11   -1    0    0    0    0 -0.00000000000E+00 -0.00000000000E+00 -0.45593999997E+02  0.45594000000E+02  0.51100000000E-03 0. -1.
         23    2    1    2    0    0  0.44408920985E-15 -0.44408920985E-15  0.00000000000E+00  0.91188000000E+02  0.91188000000E+02 0.  0.
    9900012    2    3    3    0    0  0.37684022568E+01 -0.32535013261E+01  0.36482791505E+02  0.54367079283E+02  0.39999988841E+02 0.  0.
         12    1    3    3    0    0 -0.37684022568E+01  0.32535013261E+01 -0.36482791505E+02  0.36820920717E+02  0.00000000000E+00 0. -1.
         11    1    4    4    0    0  0.61427602286E+01  0.34407598643E+01 -0.48099075704E+01  0.85268718042E+01  0.51100000000E-03 0. -1.
        -11    1    4    4    0    0  0.72492715549E+01 -0.63588570096E+01  0.26395193358E+02  0.28101480979E+02  0.51100000000E-03 0.  1.
         12    1    4    4    0    0 -0.96236295267E+01 -0.33540418075E+00  0.14897505717E+02  0.17738726500E+02  0.00000000000E+00 0. -1.
</event>
<event>
 8    1  0.2433390E-006  0.9118800E+02  0.7816164E-02  0.1184000E+00
        -11   -1    0    0    0    0  0.00000000000E+00  0.00000000000E+00  0.45593999997E+02  0.45594000000E+02  0.51100000000E-03 0. -1.
         11   -1    0    0    0    0 -0.00000000000E+00 -0.00000000000E+00 -0.45593999997E+02  0.45594000000E+02  0.51100000000E-03 0.  1.
         23    2    1    2    0    0 -0.88817841970E-15  0.00000000000E+00 -0.88817841970E-15  0.91188000000E+02  0.91188000000E+02 0.  0.
    9900012    2    3    3    0    0  0.47682267707E+01  0.36173125572E+02 -0.49546667602E+01  0.54367085795E+02  0.40000003686E+02 0.  0.
         12    1    3    3    0    0 -0.47682267707E+01 -0.36173125572E+02  0.49546667602E+01  0.36820914205E+02  0.00000000000E+00 0. -1.
         11    1    4    4    0    0 -0.55886147357E+01  0.64146568027E+01 -0.56370728927E+01  0.10205735036E+02  0.51100000000E-03 0. -1.
        -11    1    4    4    0    0 -0.87185541390E+00  0.16116226099E+02 -0.13862456596E+02  0.21275821458E+02  0.51100000000E-03 0.  1.
         12    1    4    4    0    0  0.11228696920E+02  0.13642242670E+02  0.14544862729E+02  0.22885529301E+02  0.00000000000E+00 0. -1.
</event>
<event>
 8    1  0.2433390E-006  0.9118800E+02  0.7816164E-02  0.1184000E+00
        -11   -1    0    0    0    0  0.00000000000E+00  0.00000000000E+00  0.45593999997E+02  0.45594000000E+02  0.51100000000E-03 0.  1.
         11   -1    0    0    0    0 -0.00000000000E+00 -0.00000000000E+00 -0.45593999997E+02  0.45594000000E+02  0.51100000000E-03 0. -1.
         23    2    1    2    0    0  0.00000000000E+00 -0.17763568394E-14 -0.35527136788E-14  0.91188000000E+02  0.91188000000E+02 0.  0.
    9900012    2    3    3    0    0 -0.33861277609E+02 -0.83647427004E+01 -0.11799382681E+02  0.54367075603E+02  0.39999980453E+02 0.  0.
        -12    1    3    3    0    0  0.33861277609E+02  0.83647427004E+01  0.11799382681E+02  0.36820924397E+02  0.00000000000E+00 0.  1.
         11    1    4    4    0    0 -0.16584709779E+02 -0.18055781556E+02 -0.18779314728E+02  0.30882462790E+02  0.51100000000E-03 0. -1.
        -11    1    4    4    0    0 -0.41034295773E+01  0.64534089122E+01 -0.10525752500E+01  0.77196201851E+01  0.51100000000E-03 0.  1.
         12    1    4    4    0    0 -0.13173138253E+02  0.32376299431E+01  0.80325072976E+01  0.15764992628E+02  0.00000000000E+00 0. -1.
</event>
<event>
 8    1  0.2433390E-006  0.9118800E+02  0.7816164E-02  0.1184000E+00
        -11   -1    0    0    0    0  0.00000000000E+00  0.00000000000E+00  0.45593999997E+02  0.45594000000E+02  0.51100000000E-03 0. -1.
         11   -1    0    0    0    0 -0.00000000000E+00 -0.00000000000E+00 -0.45593999997E+02  0.45594000000E+02  0.51100000000E-03 0.  1.
         23    2    1    2    0    0  0.66613381478E-15  0.00000000000E+00 -0.17763568394E-14  0.91188000000E+02  0.91188000000E+02 0.  0.
    9900012    2    3    3    0    0  0.11447608172E+01  0.36201075837E+02  0.66296151160E+01  0.54367079782E+02  0.39999989980E+02 0.  0.
         12    1    3    3    0    0 -0.11447608172E+01 -0.36201075837E+02 -0.66296151160E+01  0.36820920218E+02  0.00000000000E+00 0. -1.
         11    1    4    4    0    0 -0.12651911990E+02  0.33897885704E+01 -0.16266782698E+01  0.13198773655E+02  0.51100000000E-03 0. -1.
        -11    1    4    4    0    0 -0.33258513930E+01  0.40417291502E+01 -0.27673924545E+01  0.59207536066E+01  0.51100000000E-03 0.  1.
         12    1    4    4    0    0  0.17122524200E+02  0.28769558116E+02  0.11023685840E+02  0.35247552521E+02  0.00000000000E+00 0. -1.
</event>
<event>
 8    1  0.2433390E-006  0.9118800E+02  0.7816164E-02  0.1184000E+00
        -11   -1    0    0    0    0  0.00000000000E+00  0.00000000000E+00  0.45593999997E+02  0.45594000000E+02  0.51100000000E-03 0.  1.
         11   -1    0    0    0    0 -0.00000000000E+00 -0.00000000000E+00 -0.45593999997E+02  0.45594000000E+02  0.51100000000E-03 0. -1.
         23    2    1    2    0    0  0.35527136788E-14  0.00000000000E+00 -0.44408920985E-15  0.91188000000E+02  0.91188000000E+02 0.  0.
    9900012    2    3    3    0    0 -0.30958641099E+02  0.19854752030E+02  0.17696606695E+01  0.54367077473E+02  0.39999984716E+02 0.  0.
        -12    1    3    3    0    0  0.30958641099E+02 -0.19854752030E+02 -0.17696606695E+01  0.36820922527E+02  0.00000000000E+00 0.  1.
         11    1    4    4    0    0  0.19957786710E+01  0.51024430548E+01  0.15727153758E+01  0.57001308358E+01  0.51100000000E-03 0. -1.
        -11    1    4    4    0    0 -0.90317075301E+01 -0.83914819791E+01  0.77143238019E+01  0.14543022475E+02  0.51100000000E-03 0.  1.
         12    1    4    4    0    0 -0.23922712239E+02  0.23143790954E+02 -0.75173785082E+01  0.34123924163E+02  0.00000000000E+00 0. -1.
</event>
<event>
 8    1  0.2433390E-006  0.9118800E+02  0.7816164E-02  0.1184000E+00
        -11   -1    0    0    0    0  0.00000000000E+00  0.00000000000E+00  0.45593999997E+02  0.45594000000E+02  0.51100000000E-03 0.  1.
         11   -1    0    0    0    0 -0.00000000000E+00 -0.00000000000E+00 -0.45593999997E+02  0.45594000000E+02  0.51100000000E-03 0. -1.
         23    2    1    2    0    0  0.00000000000E+00 -0.17763568394E-14  0.00000000000E+00  0.91188000000E+02  0.91188000000E+02 0.  0.
    9900012    2    3    3    0    0  0.32871112995E+02 -0.15094717446E+02  0.68861697933E+01  0.54367083407E+02  0.39999998244E+02 0.  0.
         12    1    3    3    0    0 -0.32871112995E+02  0.15094717446E+02 -0.68861697933E+01  0.36820916593E+02  0.00000000000E+00 0. -1.
         11    1    4    4    0    0  0.74808552517E+00  0.92470373776E+01  0.81843634651E+01  0.12371383827E+02  0.51100000000E-03 0. -1.
        -11    1    4    4    0    0  0.23248022119E+02 -0.22243877332E+02  0.21470742347E+01  0.32247023727E+02  0.51100000000E-03 0.  1.
         12    1    4    4    0    0  0.88750053510E+01 -0.20978774912E+01 -0.34452679064E+01  0.97486758534E+01  0.00000000000E+00 0. -1.
</event>
<event>
 8    1  0.2433390E-006  0.9118800E+02  0.7816164E-02  0.1184000E+00
        -11   -1    0    0    0    0  0.00000000000E+00  0.00000000000E+00  0.45593999997E+02  0.45594000000E+02  0.51100000000E-03 0. -1.
         11   -1    0    0    0    0 -0.00000000000E+00 -0.00000000000E+00 -0.45593999997E+02  0.45594000000E+02  0.51100000000E-03 0.  1.
         23    2    1    2    0    0  0.71054273576E-14 -0.88817841970E-15  0.17763568394E-14  0.91188000000E+02  0.91188000000E+02 0.  0.
    9900012    2    3    3    0    0 -0.33380884894E+02  0.48422882827E+01 -0.14766590394E+02  0.54367035537E+02  0.39999889113E+02 0.  0.
         12    1    3    3    0    0  0.33380884894E+02 -0.48422882827E+01  0.14766590394E+02  0.36820964463E+02  0.00000000000E+00 0. -1.
         11    1    4    4    0    0 -0.13059725649E+01  0.86016857155E+01 -0.41050705417E+01  0.96200917824E+01  0.51100000000E-03 0. -1.
        -11    1    4    4    0    0 -0.17811170195E+02 -0.44697710389E+01 -0.20410323538E+02  0.27455380967E+02  0.51100000000E-03 0.  1.
         12    1    4    4    0    0 -0.14263742135E+02  0.71037360612E+00  0.97488036851E+01  0.17291562788E+02  0.00000000000E+00 0. -1.
</event>
<event>
 8    1  0.2433390E-006  0.9118800E+02  0.7816164E-02  0.1184000E+00
        -11   -1    0    0    0    0  0.00000000000E+00  0.00000000000E+00  0.45593999997E+02  0.45594000000E+02  0.51100000000E-03 0.  1.
         11   -1    0    0    0    0 -0.00000000000E+00 -0.00000000000E+00 -0.45593999997E+02  0.45594000000E+02  0.51100000000E-03 0. -1.
         23    2    1    2    0    0  0.35527136788E-14  0.00000000000E+00 -0.17763568394E-14  0.91188000000E+02  0.91188000000E+02 0.  0.
    9900012    2    3    3    0    0  0.27523797728E+02 -0.20587670411E+02 -0.13204869500E+02  0.54367079414E+02  0.39999989140E+02 0.  0.
         12    1    3    3    0    0 -0.27523797728E+02  0.20587670411E+02  0.13204869500E+02  0.36820920586E+02  0.00000000000E+00 0. -1.
         11    1    4    4    0    0  0.24030797361E+02 -0.37946005929E+01  0.55820746632E+01  0.24960724614E+02  0.51100000000E-03 0. -1.
        -11    1    4    4    0    0 -0.41818191930E+01 -0.27901534554E+01 -0.38468552012E+00  0.50418797366E+01  0.51100000000E-03 0.  1.
         12    1    4    4    0    0  0.76748195601E+01 -0.14002916362E+02 -0.18402258644E+02  0.24364475063E+02  0.00000000000E+00 0. -1.
</event>
<event>
 8    1  0.2433390E-006  0.9118800E+02  0.7816164E-02  0.1184000E+00
        -11   -1    0    0    0    0  0.00000000000E+00  0.00000000000E+00  0.45593999997E+02  0.45594000000E+02  0.51100000000E-03 0.  1.
         11   -1    0    0    0    0 -0.00000000000E+00 -0.00000000000E+00 -0.45593999997E+02  0.45594000000E+02  0.51100000000E-03 0. -1.
         23    2    1    2    0    0  0.00000000000E+00  0.00000000000E+00  0.00000000000E+00  0.91188000000E+02  0.91188000000E+02 0.  0.
    9900012    2    3    3    0    0  0.92736510587E+01  0.29513420247E+02  0.19968225620E+02  0.54367182342E+02  0.40000223784E+02 0.  0.
         12    1    3    3    0    0 -0.92736510587E+01 -0.29513420247E+02 -0.19968225620E+02  0.36820817658E+02  0.00000000000E+00 0. -1.
         11    1    4    4    0    0  0.20573492142E+02  0.46690772753E+01  0.11512962477E+02  0.24033667360E+02  0.51100000000E-03 0. -1.
        -11    1    4    4    0    0 -0.60014005757E+01  0.17585062634E+02  0.10173107836E+02  0.21183563440E+02  0.51100000000E-03 0.  1.
         12    1    4    4    0    0 -0.52984405076E+01  0.72592803376E+01 -0.17178446928E+01  0.91499515420E+01  0.00000000000E+00 0. -1.
</event>
<event>
 8    1  0.2433390E-006  0.9118800E+02  0.7816164E-02  0.1184000E+00
        -11   -1    0    0    0    0  0.00000000000E+00  0.00000000000E+00  0.45593999997E+02  0.45594000000E+02  0.51100000000E-03 0.  1.
         11   -1    0    0    0    0 -0.00000000000E+00 -0.00000000000E+00 -0.45593999997E+02  0.45594000000E+02  0.51100000000E-03 0. -1.
         23    2    1    2    0    0 -0.35527136788E-14 -0.17763568394E-14  0.00000000000E+00  0.91188000000E+02  0.91188000000E+02 0.  0.
    9900012    2    3    3    0    0  0.29582441282E+02 -0.72870188302E+01  0.20677447813E+02  0.54367104796E+02  0.40000047002E+02 0.  0.
        -12    1    3    3    0    0 -0.29582441282E+02  0.72870188302E+01 -0.20677447813E+02  0.36820895204E+02  0.00000000000E+00 0.  1.
         11    1    4    4    0    0  0.20204726702E+02  0.12412374476E+02  0.14903325260E+02  0.28007269151E+02  0.51100000000E-03 0. -1.
        -11    1    4    4    0    0  0.43116936816E+01 -0.69609827594E+01  0.91120185025E+01  0.12250504677E+02  0.51100000000E-03 0.  1.
        -12    1    4    4    0    0  0.50660208981E+01 -0.12738410547E+02 -0.33378959500E+01  0.14109330968E+02  0.00000000000E+00 0.  1.
</event>
<event>
 8    1  0.2433390E-006  0.9118800E+02  0.7816164E-02  0.1184000E+00
        -11   -1    0    0    0    0  0.00000000000E+00  0.00000000000E+00  0.45593999997E+02  0.45594000000E+02  0.51100000000E-03 0. -1.
         11   -1    0    0    0    0 -0.00000000000E+00 -0.00000000000E+00 -0.45593999997E+02  0.45594000000E+02  0.51100000000E-03 0.  1.
         23    2    1    2    0    0  0.35527136788E-14  0.00000000000E+00  0.88817841970E-15  0.91188000000E+02  0.91188000000E+02 0.  0.
    9900012    2    3    3    0    0  0.30552605295E+02  0.20198884680E+02  0.37846098295E+01  0.54367083332E+02  0.39999998073E+02 0.  0.
        -12    1    3    3    0    0 -0.30552605295E+02 -0.20198884680E+02 -0.37846098295E+01  0.36820916668E+02  0.00000000000E+00 0.  1.
         11    1    4    4    0    0  0.11717102516E+02  0.12616986860E+02  0.15862981929E+02  0.23411814213E+02  0.51100000000E-03 0. -1.
        -11    1    4    4    0    0  0.20294436308E+02  0.12148602030E+02 -0.93083703026E+01  0.25418466403E+02  0.51100000000E-03 0.  1.
        -12    1    4    4    0    0 -0.14589335281E+01 -0.45667042089E+01 -0.27700017969E+01  0.55368027169E+01  0.00000000000E+00 0.  1.
</event>
<event>
 8    1  0.2433390E-006  0.9118800E+02  0.7816164E-02  0.1184000E+00
        -11   -1    0    0    0    0  0.00000000000E+00  0.00000000000E+00  0.45593999997E+02  0.45594000000E+02  0.51100000000E-03 0. -1.
         11   -1    0    0    0    0 -0.00000000000E+00 -0.00000000000E+00 -0.45593999997E+02  0.45594000000E+02  0.51100000000E-03 0.  1.
         23    2    1    2    0    0 -0.22204460493E-15 -0.44408920985E-15  0.00000000000E+00  0.91188000000E+02  0.91188000000E+02 0.  0.
    9900012    2    3    3    0    0  0.69154683612E+00 -0.32676321239E+01  0.36669108340E+02  0.54367093395E+02  0.40000021013E+02 0.  0.
        -12    1    3    3    0    0 -0.69154683612E+00  0.32676321239E+01 -0.36669108340E+02  0.36820906605E+02  0.00000000000E+00 0.  1.
         11    1    4    4    0    0 -0.41659531136E+01 -0.64425764833E+01  0.31544537631E+02  0.32464131155E+02  0.51100000000E-03 0. -1.
        -11    1    4    4    0    0 -0.76517602949E+01  0.35804529512E+01  0.19195370280E+00  0.84502026858E+01  0.51100000000E-03 0.  1.
        -12    1    4    4    0    0  0.12509260245E+02 -0.40550859177E+00  0.49326170068E+01  0.13452759554E+02  0.00000000000E+00 0.  1.
</event>
<event>
 8    1  0.2433390E-006  0.9118800E+02  0.7816164E-02  0.1184000E+00
        -11   -1    0    0    0    0  0.00000000000E+00  0.00000000000E+00  0.45593999997E+02  0.45594000000E+02  0.51100000000E-03 0.  1.
         11   -1    0    0    0    0 -0.00000000000E+00 -0.00000000000E+00 -0.45593999997E+02  0.45594000000E+02  0.51100000000E-03 0. -1.
         23    2    1    2    0    0  0.00000000000E+00  0.00000000000E+00  0.35527136788E-14  0.91188000000E+02  0.91188000000E+02 0.  0.
    9900012    2    3    3    0    0 -0.20340308144E+02 -0.30170094611E+02 -0.56406387909E+01  0.54367088140E+02  0.40000009034E+02 0.  0.
         12    1    3    3    0    0  0.20340308144E+02  0.30170094611E+02  0.56406387909E+01  0.36820911860E+02  0.00000000000E+00 0. -1.
         11    1    4    4    0    0 -0.68471696236E+01 -0.15496391983E+02 -0.21633119122E+02  0.27477513343E+02  0.51100000000E-03 0. -1.
        -11    1    4    4    0    0 -0.62097994249E+01 -0.12380162503E+01  0.48544500005E+01  0.79787203361E+01  0.51100000000E-03 0.  1.
         12    1    4    4    0    0 -0.72833390955E+01 -0.13435686378E+02  0.11138030330E+02  0.18910854461E+02  0.00000000000E+00 0. -1.
</event>
<event>
 8    1  0.2433390E-006  0.9118800E+02  0.7816164E-02  0.1184000E+00
        -11   -1    0    0    0    0  0.00000000000E+00  0.00000000000E+00  0.45593999997E+02  0.45594000000E+02  0.51100000000E-03 0.  1.
         11   -1    0    0    0    0 -0.00000000000E+00 -0.00000000000E+00 -0.45593999997E+02  0.45594000000E+02  0.51100000000E-03 0. -1.
         23    2    1    2    0    0  0.88817841970E-15  0.00000000000E+00 -0.17763568394E-14  0.91188000000E+02  0.91188000000E+02 0.  0.
    9900012    2    3    3    0    0  0.21804167602E+01 -0.33374283595E+02 -0.15400736120E+02  0.54367086164E+02  0.40000004527E+02 0.  0.
        -12    1    3    3    0    0 -0.21804167602E+01  0.33374283595E+02  0.15400736120E+02  0.36820913836E+02  0.00000000000E+00 0.  1.
         11    1    4    4    0    0  0.45976545864E+01 -0.15363449166E+01 -0.17065992321E+02  0.17741106999E+02  0.51100000000E-03 0. -1.
        -11    1    4    4    0    0 -0.65441602578E+01 -0.22450457115E+02  0.78301876568E+01  0.24660918416E+02  0.51100000000E-03 0.  1.
         12    1    4    4    0    0  0.41269224315E+01 -0.93874815634E+01 -0.61649314559E+01  0.11965060749E+02  0.00000000000E+00 0. -1.
</event>
<event>
 8    1  0.2433390E-006  0.9118800E+02  0.7816164E-02  0.1184000E+00
        -11   -1    0    0    0    0  0.00000000000E+00  0.00000000000E+00  0.45593999997E+02  0.45594000000E+02  0.51100000000E-03 0.  1.
         11   -1    0    0    0    0 -0.00000000000E+00 -0.00000000000E+00 -0.45593999997E+02  0.45594000000E+02  0.51100000000E-03 0. -1.
         23    2    1    2    0    0 -0.17763568394E-14  0.00000000000E+00  0.00000000000E+00  0.91188000000E+02  0.91188000000E+02 0.  0.
    9900012    2    3    3    0    0 -0.84229225801E+01  0.14176443319E+02  0.32922108388E+02  0.54367049568E+02  0.39999921100E+02 0.  0.
         12    1    3    3    0    0  0.84229225801E+01 -0.14176443319E+02 -0.32922108388E+02  0.36820950432E+02  0.00000000000E+00 0. -1.
         11    1    4    4    0    0  0.24478750541E+01  0.16393822341E+02  0.14340630071E+02  0.21918101522E+02  0.51100000000E-03 0. -1.
        -11    1    4    4    0    0  0.15266909280E+01  0.88614393183E+01  0.25359716475E+01  0.93427535791E+01  0.51100000000E-03 0.  1.
        -12    1    4    4    0    0 -0.12397488562E+02 -0.11078818340E+02  0.16045506670E+02  0.23106194467E+02  0.00000000000E+00 0.  1.
</event>
<event>
 8    1  0.2433390E-006  0.9118800E+02  0.7816164E-02  0.1184000E+00
        -11   -1    0    0    0    0  0.00000000000E+00  0.00000000000E+00  0.45593999997E+02  0.45594000000E+02  0.51100000000E-03 0.  1.
         11   -1    0    0    0    0 -0.00000000000E+00 -0.00000000000E+00 -0.45593999997E+02  0.45594000000E+02  0.51100000000E-03 0. -1.
         23    2    1    2    0    0  0.00000000000E+00  0.00000000000E+00  0.44408920985E-15  0.91188000000E+02  0.91188000000E+02 0.  0.
    9900012    2    3    3    0    0  0.21794309656E+02 -0.29597620318E+02  0.21839331020E+01  0.54367073536E+02  0.39999975741E+02 0.  0.
        -12    1    3    3    0    0 -0.21794309656E+02  0.29597620318E+02 -0.21839331020E+01  0.36820926464E+02  0.00000000000E+00 0.  1.
         11    1    4    4    0    0  0.13188837630E+02 -0.12777667046E+02 -0.29923389571E+01  0.18605598778E+02  0.51100000000E-03 0. -1.
        -11    1    4    4    0    0  0.12802721858E+01 -0.97052105175E+01  0.17319913569E+02  0.19894964548E+02  0.51100000000E-03 0.  1.
         12    1    4    4    0    0  0.73251998397E+01 -0.71147427538E+01 -0.12143641510E+02  0.15866510211E+02  0.00000000000E+00 0. -1.
</event>
<event>
 8    1  0.2433390E-006  0.9118800E+02  0.7816164E-02  0.1184000E+00
        -11   -1    0    0    0    0  0.00000000000E+00  0.00000000000E+00  0.45593999997E+02  0.45594000000E+02  0.51100000000E-03 0.  1.
         11   -1    0    0    0    0 -0.00000000000E+00 -0.00000000000E+00 -0.45593999997E+02  0.45594000000E+02  0.51100000000E-03 0. -1.
         23    2    1    2    0    0 -0.88817841970E-15 -0.71054273576E-14  0.00000000000E+00  0.91188000000E+02  0.91188000000E+02 0.  0.
    9900012    2    3    3    0    0  0.54565248354E+01  0.36384891175E+02 -0.14648837209E+01  0.54367084023E+02  0.39999999647E+02 0.  0.
         12    1    3    3    0    0 -0.54565248354E+01 -0.36384891175E+02  0.14648837209E+01  0.36820915977E+02  0.00000000000E+00 0. -1.
         11    1    4    4    0    0  0.71934117168E+01  0.65595478152E+01 -0.12767551109E+02  0.16055628335E+02  0.51100000000E-03 0. -1.
        -11    1    4    4    0    0  0.87792519933E+01  0.62876663864E+01  0.40185178099E+01  0.11522087476E+02  0.51100000000E-03 0.  1.
        -12    1    4    4    0    0 -0.10516138875E+02  0.23537676973E+02  0.72841495778E+01  0.26789368212E+02  0.00000000000E+00 0.  1.
</event>
<event>
 8    1  0.2433390E-006  0.9118800E+02  0.7816164E-02  0.1184000E+00
        -11   -1    0    0    0    0  0.00000000000E+00  0.00000000000E+00  0.45593999997E+02  0.45594000000E+02  0.51100000000E-03 0.  1.
         11   -1    0    0    0    0 -0.00000000000E+00 -0.00000000000E+00 -0.45593999997E+02  0.45594000000E+02  0.51100000000E-03 0. -1.
         23    2    1    2    0    0  0.00000000000E+00  0.00000000000E+00  0.26645352591E-14  0.91188000000E+02  0.91188000000E+02 0.  0.
    9900012    2    3    3    0    0  0.32607641056E+02 -0.16418078381E+02  0.47927247296E+01  0.54367058088E+02  0.39999940523E+02 0.  0.
        -12    1    3    3    0    0 -0.32607641056E+02  0.16418078381E+02 -0.47927247296E+01  0.36820941912E+02  0.00000000000E+00 0.  1.
         11    1    4    4    0    0  0.15600825260E+02 -0.13799293437E+02  0.14795505908E+02  0.25548253237E+02  0.51100000000E-03 0. -1.
        -11    1    4    4    0    0  0.34651268509E+01 -0.15293523043E+01  0.64513159966E+01  0.74810093512E+01  0.51100000000E-03 0.  1.
        -12    1    4    4    0    0  0.13541688945E+02 -0.10894326402E+01 -0.16454097175E+02  0.21337795500E+02  0.00000000000E+00 0.  1.
</event>
<event>
 8    1  0.3503539E-006  0.9118800E+02  0.7816164E-02  0.1184000E+00
        -11   -1    0    0    0    0  0.00000000000E+00  0.00000000000E+00  0.45593999997E+02  0.45594000000E+02  0.51100000000E-03 0.  1.
         11   -1    0    0    0    0 -0.00000000000E+00 -0.00000000000E+00 -0.45593999997E+02  0.45594000000E+02  0.51100000000E-03 0. -1.
         23    2    1    2    0    0  0.00000000000E+00 -0.11102230246E-15  0.00000000000E+00  0.91188000000E+02  0.91188000000E+02 0.  0.
    9900012    2    3    3    0    0  0.36588819948E+01  0.87965357118E+00 -0.36628019153E+02  0.54367177156E+02  0.40000211962E+02 0.  0.
        -12    1    3    3    0    0 -0.36588819948E+01 -0.87965357118E+00  0.36628019153E+02  0.36820822844E+02  0.00000000000E+00 0.  1.
         11    1    4    4    0    0  0.10649536041E+01 -0.15340973857E+01  0.18578144007E+01  0.26342087192E+01  0.51100000000E-03 0. -1.
        -11    1    4    4    0    0 -0.63400721546E+00  0.46891925843E+01  0.56789523140E+01  0.73919545377E+01  0.51100000000E-03 0.  1.
         12    1    4    4    0    0  0.32279356061E+01 -0.22754416274E+01 -0.44164785867E+02  0.44341013899E+02  0.00000000000E+00 0. -1.
</event>
<event>
 8    1  0.2433390E-006  0.9118800E+02  0.7816164E-02  0.1184000E+00
        -11   -1    0    0    0    0  0.00000000000E+00  0.00000000000E+00  0.45593999997E+02  0.45594000000E+02  0.51100000000E-03 0.  1.
         11   -1    0    0    0    0 -0.00000000000E+00 -0.00000000000E+00 -0.45593999997E+02  0.45594000000E+02  0.51100000000E-03 0. -1.
         23    2    1    2    0    0  0.00000000000E+00 -0.17763568394E-14  0.00000000000E+00  0.91188000000E+02  0.91188000000E+02 0.  0.
    9900012    2    3    3    0    0 -0.30940096003E+00  0.80786057794E+01 -0.35922414284E+02  0.54367089524E+02  0.40000012188E+02 0.  0.
        -12    1    3    3    0    0  0.30940096003E+00 -0.80786057794E+01  0.35922414284E+02  0.36820910476E+02  0.00000000000E+00 0.  1.
         11    1    4    4    0    0  0.40081982881E+01 -0.91083586200E+01 -0.12496994678E+02  0.15975065775E+02  0.51100000000E-03 0. -1.
        -11    1    4    4    0    0  0.24312642919E+00 -0.58780016945E+01 -0.91745988426E+01  0.10898774177E+02  0.51100000000E-03 0.  1.
         12    1    4    4    0    0 -0.45607256773E+01  0.23064966094E+02 -0.14250820764E+02  0.27493249572E+02  0.00000000000E+00 0. -1.
</event>
<event>
 8    1  0.2433390E-006  0.9118800E+02  0.7816164E-02  0.1184000E+00
        -11   -1    0    0    0    0  0.00000000000E+00  0.00000000000E+00  0.45593999997E+02  0.45594000000E+02  0.51100000000E-03 0. -1.
         11   -1    0    0    0    0 -0.00000000000E+00 -0.00000000000E+00 -0.45593999997E+02  0.45594000000E+02  0.51100000000E-03 0.  1.
         23    2    1    2    0    0  0.35527136788E-14  0.35527136788E-14  0.00000000000E+00  0.91188000000E+02  0.91188000000E+02 0.  0.
    9900012    2    3    3    0    0 -0.26871533559E+02  0.20574721868E+02  0.14504517823E+02  0.54367088374E+02  0.40000009565E+02 0.  0.
        -12    1    3    3    0    0  0.26871533559E+02 -0.20574721868E+02 -0.14504517823E+02  0.36820911626E+02  0.00000000000E+00 0.  1.
         11    1    4    4    0    0  0.33843834042E+01 -0.24447395840E+01 -0.10398626674E+01  0.43025710091E+01  0.51100000000E-03 0. -1.
        -11    1    4    4    0    0 -0.68273775500E+01 -0.67762678407E+01  0.20890277587E+01  0.98435220981E+01  0.51100000000E-03 0.  1.
         12    1    4    4    0    0 -0.23428539413E+02  0.29795729292E+02  0.13455352731E+02  0.40220995266E+02  0.00000000000E+00 0. -1.
</event>
<event>
 8    1  0.2433390E-006  0.9118800E+02  0.7816164E-02  0.1184000E+00
        -11   -1    0    0    0    0  0.00000000000E+00  0.00000000000E+00  0.45593999997E+02  0.45594000000E+02  0.51100000000E-03 0. -1.
         11   -1    0    0    0    0 -0.00000000000E+00 -0.00000000000E+00 -0.45593999997E+02  0.45594000000E+02  0.51100000000E-03 0.  1.
         23    2    1    2    0    0 -0.71054273576E-14 -0.17763568394E-14 -0.44408920985E-15  0.91188000000E+02  0.91188000000E+02 0.  0.
    9900012    2    3    3    0    0  0.35706591432E+02  0.80802174901E+01 -0.39407762548E+01  0.54367077906E+02  0.39999985702E+02 0.  0.
         12    1    3    3    0    0 -0.35706591432E+02 -0.80802174901E+01  0.39407762548E+01  0.36820922094E+02  0.00000000000E+00 0. -1.
         11    1    4    4    0    0  0.24854700063E+02 -0.46907743636E+01  0.11575333396E+02  0.27816322956E+02  0.51100000000E-03 0. -1.
        -11    1    4    4    0    0  0.50252368064E+01 -0.21562203345E+01 -0.47756848294E+01  0.72601278875E+01  0.51100000000E-03 0.  1.
        -12    1    4    4    0    0  0.58266545630E+01  0.14927212188E+02 -0.10740424821E+02  0.19290627062E+02  0.00000000000E+00 0.  1.
</event>
<event>
 8    1  0.2433390E-006  0.9118800E+02  0.7816164E-02  0.1184000E+00
        -11   -1    0    0    0    0  0.00000000000E+00  0.00000000000E+00  0.45593999997E+02  0.45594000000E+02  0.51100000000E-03 0.  1.
         11   -1    0    0    0    0 -0.00000000000E+00 -0.00000000000E+00 -0.45593999997E+02  0.45594000000E+02  0.51100000000E-03 0. -1.
         23    2    1    2    0    0  0.17763568394E-14  0.35527136788E-14  0.00000000000E+00  0.91188000000E+02  0.91188000000E+02 0.  0.
    9900012    2    3    3    0    0  0.15108381184E+02 -0.16873672534E+02  0.29030924676E+02  0.54367101120E+02  0.40000038624E+02 0.  0.
         12    1    3    3    0    0 -0.15108381184E+02  0.16873672534E+02 -0.29030924676E+02  0.36820898880E+02  0.00000000000E+00 0. -1.
         11    1    4    4    0    0 -0.51272167552E+01 -0.47499820757E+01  0.23105135151E+02  0.24139137350E+02  0.51100000000E-03 0.  1.
        -11    1    4    4    0    0  0.17246060246E+00  0.38965114215E+01  0.14787843197E+01  0.41712524789E+01  0.51100000000E-03 0. -1.
        -12    1    4    4    0    0  0.20063137336E+02 -0.16020201879E+02  0.44470052050E+01  0.26056711291E+02  0.00000000000E+00 0.  1.
</event>
<event>
 8    1  0.2433390E-006  0.9118800E+02  0.7816164E-02  0.1184000E+00
        -11   -1    0    0    0    0  0.00000000000E+00  0.00000000000E+00  0.45593999997E+02  0.45594000000E+02  0.51100000000E-03 0.  1.
         11   -1    0    0    0    0 -0.00000000000E+00 -0.00000000000E+00 -0.45593999997E+02  0.45594000000E+02  0.51100000000E-03 0. -1.
         23    2    1    2    0    0  0.00000000000E+00  0.17763568394E-14  0.88817841970E-15  0.91188000000E+02  0.91188000000E+02 0.  0.
    9900012    2    3    3    0    0 -0.35594121298E+02  0.83110980455E+01  0.44455905535E+01  0.54367094294E+02  0.40000023061E+02 0.  0.
        -12    1    3    3    0    0  0.35594121298E+02 -0.83110980455E+01 -0.44455905535E+01  0.36820905706E+02  0.00000000000E+00 0.  1.
         11    1    4    4    0    0 -0.23816115227E+02  0.16196772194E+02  0.41505980344E+01  0.29099316801E+02  0.51100000000E-03 0. -1.
        -11    1    4    4    0    0 -0.15548402419E+02 -0.59166191351E+01  0.64020233464E+01  0.17825406110E+02  0.51100000000E-03 0.  1.
         12    1    4    4    0    0  0.37703963484E+01 -0.19690550136E+01 -0.61070308273E+01  0.74423713825E+01  0.00000000000E+00 0. -1.
</event>
<event>
 8    1  0.2433390E-006  0.9118800E+02  0.7816164E-02  0.1184000E+00
        -11   -1    0    0    0    0  0.00000000000E+00  0.00000000000E+00  0.45593999997E+02  0.45594000000E+02  0.51100000000E-03 0. -1.
         11   -1    0    0    0    0 -0.00000000000E+00 -0.00000000000E+00 -0.45593999997E+02  0.45594000000E+02  0.51100000000E-03 0.  1.
         23    2    1    2    0    0  0.66613381478E-15  0.11102230246E-14  0.71054273576E-14  0.91188000000E+02  0.91188000000E+02 0.  0.
    9900012    2    3    3    0    0  0.60536576496E+00  0.53103701008E+00  0.36812102460E+02  0.54367090784E+02  0.40000015060E+02 0.  0.
        -12    1    3    3    0    0 -0.60536576496E+00 -0.53103701008E+00 -0.36812102460E+02  0.36820909216E+02  0.00000000000E+00 0.  1.
         11    1    4    4    0    0  0.40798105495E+01 -0.92761189393E+01 -0.38173684791E+00  0.10140855979E+02  0.51100000000E-03 0. -1.
        -11    1    4    4    0    0 -0.11369045235E+02  0.23013039011E+01  0.11571738388E+02  0.16384636669E+02  0.51100000000E-03 0.  1.
         12    1    4    4    0    0  0.78946004504E+01  0.75058520483E+01  0.25622100920E+02  0.27841598136E+02  0.00000000000E+00 0. -1.
</event>
<event>
 8    1  0.2433390E-006  0.9118800E+02  0.7816164E-02  0.1184000E+00
        -11   -1    0    0    0    0  0.00000000000E+00  0.00000000000E+00  0.45593999997E+02  0.45594000000E+02  0.51100000000E-03 0.  1.
         11   -1    0    0    0    0 -0.00000000000E+00 -0.00000000000E+00 -0.45593999997E+02  0.45594000000E+02  0.51100000000E-03 0. -1.
         23    2    1    2    0    0  0.00000000000E+00 -0.88817841970E-15  0.00000000000E+00  0.91188000000E+02  0.91188000000E+02 0.  0.
    9900012    2    3    3    0    0 -0.13593358504E+02  0.46666636129E+01  0.33900227110E+02  0.54367047503E+02  0.39999916392E+02 0.  0.
         12    1    3    3    0    0  0.13593358504E+02 -0.46666636129E+01 -0.33900227110E+02  0.36820952497E+02  0.00000000000E+00 0. -1.
         11    1    4    4    0    0 -0.18993862726E+02 -0.20291114635E+01  0.23316750326E+01  0.19243721659E+02  0.51100000000E-03 0. -1.
        -11    1    4    4    0    0  0.94514654202E+01  0.36994220748E+01  0.23671959299E+02  0.25756117324E+02  0.51100000000E-03 0.  1.
         12    1    4    4    0    0 -0.40509611985E+01  0.29963530016E+01  0.78965927785E+01  0.93672085197E+01  0.00000000000E+00 0. -1.
</event>
<event>
 8    1  0.2433390E-006  0.9118800E+02  0.7816164E-02  0.1184000E+00
        -11   -1    0    0    0    0  0.00000000000E+00  0.00000000000E+00  0.45593999997E+02  0.45594000000E+02  0.51100000000E-03 0.  1.
         11   -1    0    0    0    0 -0.00000000000E+00 -0.00000000000E+00 -0.45593999997E+02  0.45594000000E+02  0.51100000000E-03 0. -1.
         23    2    1    2    0    0 -0.17763568394E-14  0.35527136788E-14  0.00000000000E+00  0.91188000000E+02  0.91188000000E+02 0.  0.
    9900012    2    3    3    0    0  0.12168960131E+02 -0.12973128735E+02  0.32239661338E+02  0.54367062708E+02  0.39999951055E+02 0.  0.
         12    1    3    3    0    0 -0.12168960131E+02  0.12973128735E+02 -0.32239661338E+02  0.36820937292E+02  0.00000000000E+00 0. -1.
         11    1    4    4    0    0 -0.85615887378E+01 -0.36618796296E+01 -0.97684458365E+00  0.93629263448E+01  0.51100000000E-03 0. -1.
        -11    1    4    4    0    0  0.75312221461E+01  0.63635829599E+01  0.10171855493E+02  0.14166197074E+02  0.51100000000E-03 0.  1.
        -12    1    4    4    0    0  0.13199326723E+02 -0.15674832066E+02  0.23044650429E+02  0.30837939289E+02  0.00000000000E+00 0.  1.
</event>
<event>
 8    1  0.2433390E-006  0.9118800E+02  0.7816164E-02  0.1184000E+00
        -11   -1    0    0    0    0  0.00000000000E+00  0.00000000000E+00  0.45593999997E+02  0.45594000000E+02  0.51100000000E-03 0.  1.
         11   -1    0    0    0    0 -0.00000000000E+00 -0.00000000000E+00 -0.45593999997E+02  0.45594000000E+02  0.51100000000E-03 0. -1.
         23    2    1    2    0    0 -0.17763568394E-14  0.00000000000E+00 -0.35527136788E-14  0.91188000000E+02  0.91188000000E+02 0.  0.
    9900012    2    3    3    0    0  0.10673244581E+02 -0.22207564111E+02  0.27362183200E+02  0.54367039623E+02  0.39999898428E+02 0.  0.
         12    1    3    3    0    0 -0.10673244581E+02  0.22207564111E+02 -0.27362183200E+02  0.36820960377E+02  0.00000000000E+00 0. -1.
         11    1    4    4    0    0  0.12556743558E+02 -0.10965429291E+01  0.14954519053E+02  0.19557910306E+02  0.51100000000E-03 0. -1.
        -11    1    4    4    0    0 -0.24858498728E+01 -0.14287829004E+02 -0.55973781793E+01  0.15545164842E+02  0.51100000000E-03 0.  1.
        -12    1    4    4    0    0  0.60235089528E+00 -0.68231921788E+01  0.18005042326E+02  0.19263964475E+02  0.00000000000E+00 0.  1.
</event>
<event>
 8    1  0.2433390E-006  0.9118800E+02  0.7816164E-02  0.1184000E+00
        -11   -1    0    0    0    0  0.00000000000E+00  0.00000000000E+00  0.45593999997E+02  0.45594000000E+02  0.51100000000E-03 0.  1.
         11   -1    0    0    0    0 -0.00000000000E+00 -0.00000000000E+00 -0.45593999997E+02  0.45594000000E+02  0.51100000000E-03 0. -1.
         23    2    1    2    0    0  0.88817841970E-15  0.35527136788E-14  0.00000000000E+00  0.91188000000E+02  0.91188000000E+02 0.  0.
    9900012    2    3    3    0    0 -0.48411611950E+01 -0.24533729676E+02 -0.27026606612E+02  0.54367106495E+02  0.40000050877E+02 0.  0.
        -12    1    3    3    0    0  0.48411611950E+01  0.24533729676E+02  0.27026606612E+02  0.36820893505E+02  0.00000000000E+00 0.  1.
         11    1    4    4    0    0 -0.13097671285E+01  0.19077356701E+01 -0.17242419534E+02  0.17397010576E+02  0.51100000000E-03 0. -1.
        -11    1    4    4    0    0 -0.21138264560E+01 -0.62386096136E+01  0.77575643188E+01  0.10176851999E+02  0.51100000000E-03 0.  1.
         12    1    4    4    0    0 -0.14175676105E+01 -0.20202855732E+02 -0.17541751397E+02  0.26793243920E+02  0.00000000000E+00 0. -1.
</event>
<event>
 8    1  0.2433390E-006  0.9118800E+02  0.7816164E-02  0.1184000E+00
        -11   -1    0    0    0    0  0.00000000000E+00  0.00000000000E+00  0.45593999997E+02  0.45594000000E+02  0.51100000000E-03 0.  1.
         11   -1    0    0    0    0 -0.00000000000E+00 -0.00000000000E+00 -0.45593999997E+02  0.45594000000E+02  0.51100000000E-03 0. -1.
         23    2    1    2    0    0  0.00000000000E+00  0.35527136788E-14  0.35527136788E-14  0.91188000000E+02  0.91188000000E+02 0.  0.
    9900012    2    3    3    0    0 -0.20181544074E+02  0.28621435539E+02  0.11370908731E+02  0.54367097527E+02  0.40000030433E+02 0.  0.
         12    1    3    3    0    0  0.20181544074E+02 -0.28621435539E+02 -0.11370908731E+02  0.36820902473E+02  0.00000000000E+00 0. -1.
         11    1    4    4    0    0 -0.60411141096E+01  0.89443967933E+01  0.12268475758E+02  0.16340526043E+02  0.51100000000E-03 0. -1.
        -11    1    4    4    0    0 -0.73228617642E+01  0.14725158988E+02  0.13545164594E+02  0.21305541433E+02  0.51100000000E-03 0.  1.
         12    1    4    4    0    0 -0.68175682006E+01  0.49518797579E+01 -0.14442731621E+02  0.16721030051E+02  0.00000000000E+00 0. -1.
</event>
<event>
 8    1  0.2433390E-006  0.9118800E+02  0.7816164E-02  0.1184000E+00
        -11   -1    0    0    0    0  0.00000000000E+00  0.00000000000E+00  0.45593999997E+02  0.45594000000E+02  0.51100000000E-03 0.  1.
         11   -1    0    0    0    0 -0.00000000000E+00 -0.00000000000E+00 -0.45593999997E+02  0.45594000000E+02  0.51100000000E-03 0. -1.
         23    2    1    2    0    0  0.00000000000E+00  0.00000000000E+00 -0.44408920985E-15  0.91188000000E+02  0.91188000000E+02 0.  0.
    9900012    2    3    3    0    0 -0.10104492518E+02 -0.35323830337E+02  0.24300296889E+01  0.54367098287E+02  0.40000032164E+02 0.  0.
        -12    1    3    3    0    0  0.10104492518E+02  0.35323830337E+02 -0.24300296889E+01  0.36820901713E+02  0.00000000000E+00 0.  1.
         11    1    4    4    0    0 -0.23245205882E+00  0.17627721955E+01 -0.24803556161E+01  0.30518132342E+01  0.51100000000E-03 0. -1.
        -11    1    4    4    0    0  0.11398864392E+02 -0.58392136200E+01  0.43006613697E+01  0.13510226260E+02  0.51100000000E-03 0.  1.
         12    1    4    4    0    0 -0.21270904851E+02 -0.31247388912E+02  0.60972393528E+00  0.37805058792E+02  0.00000000000E+00 0. -1.
</event>
<event>
 8    1  0.2433390E-006  0.9118800E+02  0.7816164E-02  0.1184000E+00
        -11   -1    0    0    0    0  0.00000000000E+00  0.00000000000E+00  0.45593999997E+02  0.45594000000E+02  0.51100000000E-03 0.  1.
         11   -1    0    0    0    0 -0.00000000000E+00 -0.00000000000E+00 -0.45593999997E+02  0.45594000000E+02  0.51100000000E-03 0. -1.
         23    2    1    2    0    0 -0.88817841970E-15  0.00000000000E+00  0.00000000000E+00  0.91188000000E+02  0.91188000000E+02 0.  0.
    9900012    2    3    3    0    0  0.60520750000E+01  0.34076565523E+02  0.12567410997E+02  0.54367085443E+02  0.40000002884E+02 0.  0.
        -12    1    3    3    0    0 -0.60520750000E+01 -0.34076565523E+02 -0.12567410997E+02  0.36820914557E+02  0.00000000000E+00 0.  1.
         11    1    4    4    0    0  0.14625257086E+01 -0.43287253316E+01  0.10987167829E+02  0.11899357193E+02  0.51100000000E-03 0. -1.
        -11    1    4    4    0    0 -0.47584823059E+01  0.18056970998E+02 -0.46118681134E+01  0.19234518014E+02  0.51100000000E-03 0.  1.
         12    1    4    4    0    0  0.93480315973E+01  0.20348319857E+02  0.61921112818E+01  0.23233210236E+02  0.00000000000E+00 0. -1.
</event>
<event>
 8    1  0.2433390E-006  0.9118800E+02  0.7816164E-02  0.1184000E+00
        -11   -1    0    0    0    0  0.00000000000E+00  0.00000000000E+00  0.45593999997E+02  0.45594000000E+02  0.51100000000E-03 0.  1.
         11   -1    0    0    0    0 -0.00000000000E+00 -0.00000000000E+00 -0.45593999997E+02  0.45594000000E+02  0.51100000000E-03 0. -1.
         23    2    1    2    0    0  0.00000000000E+00 -0.35527136788E-14 -0.35527136788E-14  0.91188000000E+02  0.91188000000E+02 0.  0.
    9900012    2    3    3    0    0 -0.21612964212E+02 -0.17578136733E+02  0.24076301692E+02  0.54367089959E+02  0.40000013181E+02 0.  0.
         12    1    3    3    0    0  0.21612964212E+02  0.17578136733E+02 -0.24076301692E+02  0.36820910041E+02  0.00000000000E+00 0. -1.
         11    1    4    4    0    0 -0.12837404986E+02  0.51403853407E+01  0.23791481388E+02  0.27518305092E+02  0.51100000000E-03 0. -1.
        -11    1    4    4    0    0 -0.16029072421E+01 -0.32499113063E+01  0.43965276494E+01  0.56974284338E+01  0.51100000000E-03 0.  1.
         12    1    4    4    0    0 -0.71726519842E+01 -0.19468610767E+02 -0.41117073454E+01  0.21151356434E+02  0.00000000000E+00 0. -1.
</event>
<event>
 8    1  0.2433390E-006  0.9118800E+02  0.7816164E-02  0.1184000E+00
        -11   -1    0    0    0    0  0.00000000000E+00  0.00000000000E+00  0.45593999997E+02  0.45594000000E+02  0.51100000000E-03 0. -1.
         11   -1    0    0    0    0 -0.00000000000E+00 -0.00000000000E+00 -0.45593999997E+02  0.45594000000E+02  0.51100000000E-03 0.  1.
         23    2    1    2    0    0  0.00000000000E+00 -0.17763568394E-14  0.00000000000E+00  0.91188000000E+02  0.91188000000E+02 0.  0.
    9900012    2    3    3    0    0 -0.26847755114E+02  0.12864167006E+02  0.21667733718E+02  0.54367089746E+02  0.40000012694E+02 0.  0.
         12    1    3    3    0    0  0.26847755114E+02 -0.12864167006E+02 -0.21667733718E+02  0.36820910254E+02  0.00000000000E+00 0. -1.
         11    1    4    4    0    0 -0.11055819045E+02  0.35029407557E+01  0.19302252614E+02  0.22518407691E+02  0.51100000000E-03 0. -1.
        -11    1    4    4    0    0 -0.15568286814E+02 -0.57825704296E+01  0.15885404325E+01  0.16683319096E+02  0.51100000000E-03 0.  1.
         12    1    4    4    0    0 -0.22364925481E+00  0.15143796680E+02  0.77694067175E+00  0.15165362959E+02  0.00000000000E+00 0. -1.
</event>
<event>
 8    1  0.2433390E-006  0.9118800E+02  0.7816164E-02  0.1184000E+00
        -11   -1    0    0    0    0  0.00000000000E+00  0.00000000000E+00  0.45593999997E+02  0.45594000000E+02  0.51100000000E-03 0. -1.
         11   -1    0    0    0    0 -0.00000000000E+00 -0.00000000000E+00 -0.45593999997E+02  0.45594000000E+02  0.51100000000E-03 0.  1.
         23    2    1    2    0    0 -0.35527136788E-14  0.00000000000E+00  0.35527136788E-14  0.91188000000E+02  0.91188000000E+02 0.  0.
    9900012    2    3    3    0    0 -0.20803889291E+02 -0.26289143965E+01  0.30266611094E+02  0.54367071880E+02  0.39999971964E+02 0.  0.
        -12    1    3    3    0    0  0.20803889291E+02  0.26289143965E+01 -0.30266611094E+02  0.36820928120E+02  0.00000000000E+00 0.  1.
         11    1    4    4    0    0 -0.52055888693E+01 -0.19497306460E+01  0.68382111877E+00  0.56006443068E+01  0.51100000000E-03 0. -1.
        -11    1    4    4    0    0 -0.37349866885E+01  0.89818411775E+01  0.31847773109E+02  0.33300213945E+02  0.51100000000E-03 0.  1.
        -12    1    4    4    0    0 -0.11863313733E+02 -0.96610249281E+01 -0.22649831342E+01  0.15466213628E+02  0.00000000000E+00 0.  1.
</event>
<event>
 8    1  0.2433390E-006  0.9118800E+02  0.7816164E-02  0.1184000E+00
        -11   -1    0    0    0    0  0.00000000000E+00  0.00000000000E+00  0.45593999997E+02  0.45594000000E+02  0.51100000000E-03 0. -1.
         11   -1    0    0    0    0 -0.00000000000E+00 -0.00000000000E+00 -0.45593999997E+02  0.45594000000E+02  0.51100000000E-03 0.  1.
         23    2    1    2    0    0 -0.88817841970E-15  0.00000000000E+00  0.35527136788E-14  0.91188000000E+02  0.91188000000E+02 0.  0.
    9900012    2    3    3    0    0  0.38476275704E+01 -0.31151020614E+02 -0.19250707989E+02  0.54367080928E+02  0.39999992591E+02 0.  0.
         12    1    3    3    0    0 -0.38476275704E+01  0.31151020614E+02  0.19250707989E+02  0.36820919072E+02  0.00000000000E+00 0. -1.
         11    1    4    4    0    0  0.38695353654E+01 -0.13165301205E+02 -0.69600572514E+01  0.15386385442E+02  0.51100000000E-03 0. -1.
        -11    1    4    4    0    0  0.10692615962E+02 -0.18903732366E+02  0.11725112618E+01  0.21749894629E+02  0.51100000000E-03 0.  1.
         12    1    4    4    0    0 -0.10714523757E+02  0.91801295643E+00 -0.13463162000E+02  0.17230800857E+02  0.00000000000E+00 0. -1.
</event>
<event>
 8    1  0.2433390E-006  0.9118800E+02  0.7816164E-02  0.1184000E+00
        -11   -1    0    0    0    0  0.00000000000E+00  0.00000000000E+00  0.45593999997E+02  0.45594000000E+02  0.51100000000E-03 0. -1.
         11   -1    0    0    0    0 -0.00000000000E+00 -0.00000000000E+00 -0.45593999997E+02  0.45594000000E+02  0.51100000000E-03 0.  1.
         23    2    1    2    0    0 -0.71054273576E-14  0.17763568394E-14 -0.35527136788E-14  0.91188000000E+02  0.91188000000E+02 0.  0.
    9900012    2    3    3    0    0 -0.32201062823E+02  0.44424994391E+01 -0.17295596485E+02  0.54367056150E+02  0.39999936106E+02 0.  0.
        -12    1    3    3    0    0  0.32201062823E+02 -0.44424994391E+01  0.17295596485E+02  0.36820943850E+02  0.00000000000E+00 0.  1.
         11    1    4    4    0    0 -0.25816362208E+02  0.60635979742E+01 -0.97391820176E+01  0.28250724676E+02  0.51100000000E-03 0. -1.
        -11    1    4    4    0    0 -0.68568584132E+01  0.94721092737E+01  0.14983120306E+01  0.11789075477E+02  0.51100000000E-03 0.  1.
        -12    1    4    4    0    0  0.47215779839E+00 -0.11093207809E+02 -0.90547264985E+01  0.14327255998E+02  0.00000000000E+00 0.  1.
</event>
<event>
 8    1  0.2433390E-006  0.9118800E+02  0.7816164E-02  0.1184000E+00
        -11   -1    0    0    0    0  0.00000000000E+00  0.00000000000E+00  0.45593999997E+02  0.45594000000E+02  0.51100000000E-03 0. -1.
         11   -1    0    0    0    0 -0.00000000000E+00 -0.00000000000E+00 -0.45593999997E+02  0.45594000000E+02  0.51100000000E-03 0.  1.
         23    2    1    2    0    0  0.35527136788E-14  0.00000000000E+00  0.00000000000E+00  0.91188000000E+02  0.91188000000E+02 0.  0.
    9900012    2    3    3    0    0  0.14021628459E+02  0.18541450419E+02 -0.28555009277E+02  0.54367081990E+02  0.39999995013E+02 0.  0.
         12    1    3    3    0    0 -0.14021628459E+02 -0.18541450419E+02  0.28555009277E+02  0.36820918010E+02  0.00000000000E+00 0. -1.
         11    1    4    4    0    0 -0.61320025059E+01 -0.52383033227E+01 -0.93981839095E+01  0.12384148638E+02  0.51100000000E-03 0. -1.
        -11    1    4    4    0    0  0.19968254320E+02  0.11262122987E+02 -0.18479087004E+02  0.29445598169E+02  0.51100000000E-03 0.  1.
         12    1    4    4    0    0  0.18537664512E+00  0.12517630755E+02 -0.67773836299E+00  0.12537335184E+02  0.00000000000E+00 0. -1.
</event>
<event>
 8    1  0.2433390E-006  0.9118800E+02  0.7816164E-02  0.1184000E+00
        -11   -1    0    0    0    0  0.00000000000E+00  0.00000000000E+00  0.45593999997E+02  0.45594000000E+02  0.51100000000E-03 0.  1.
         11   -1    0    0    0    0 -0.00000000000E+00 -0.00000000000E+00 -0.45593999997E+02  0.45594000000E+02  0.51100000000E-03 0. -1.
         23    2    1    2    0    0  0.00000000000E+00 -0.27755575616E-15  0.00000000000E+00  0.91188000000E+02  0.91188000000E+02 0.  0.
    9900012    2    3    3    0    0  0.32521170384E+02  0.16172714570E+00  0.17266352853E+02  0.54367087197E+02  0.40000006883E+02 0.  0.
         12    1    3    3    0    0 -0.32521170384E+02 -0.16172714570E+00 -0.17266352853E+02  0.36820912803E+02  0.00000000000E+00 0. -1.
         11    1    4    4    0    0  0.47390299036E+01 -0.27472384059E+01  0.19214186577E+02  0.19979756989E+02  0.51100000000E-03 0. -1.
        -11    1    4    4    0    0  0.26520922201E+02  0.90508953803E+01 -0.95462710637E+00  0.28039068008E+02  0.51100000000E-03 0.  1.
         12    1    4    4    0    0  0.12612182787E+01 -0.61419298287E+01 -0.99320661695E+00  0.63482621993E+01  0.00000000000E+00 0. -1.
</event>
<event>
 8    1  0.2433390E-006  0.9118800E+02  0.7816164E-02  0.1184000E+00
        -11   -1    0    0    0    0  0.00000000000E+00  0.00000000000E+00  0.45593999997E+02  0.45594000000E+02  0.51100000000E-03 0.  1.
         11   -1    0    0    0    0 -0.00000000000E+00 -0.00000000000E+00 -0.45593999997E+02  0.45594000000E+02  0.51100000000E-03 0. -1.
         23    2    1    2    0    0  0.00000000000E+00 -0.35527136788E-14  0.35527136788E-14  0.91188000000E+02  0.91188000000E+02 0.  0.
    9900012    2    3    3    0    0 -0.81483386856E+01 -0.24093475599E+02 -0.26624984753E+02  0.54367071130E+02  0.39999970254E+02 0.  0.
        -12    1    3    3    0    0  0.81483386856E+01  0.24093475599E+02  0.26624984753E+02  0.36820928870E+02  0.00000000000E+00 0.  1.
         11    1    4    4    0    0  0.63117311290E+01 -0.17276590372E+02 -0.24371595018E+02  0.30533476197E+02  0.51100000000E-03 0. -1.
        -11    1    4    4    0    0  0.23384197257E+01  0.13353325766E+00 -0.49299150538E+01  0.54580308394E+01  0.51100000000E-03 0.  1.
        -12    1    4    4    0    0 -0.16798489540E+02 -0.69504184844E+01  0.26765253184E+01  0.18375564093E+02  0.00000000000E+00 0.  1.
</event>
<event>
 8    1  0.2433390E-006  0.9118800E+02  0.7816164E-02  0.1184000E+00
        -11   -1    0    0    0    0  0.00000000000E+00  0.00000000000E+00  0.45593999997E+02  0.45594000000E+02  0.51100000000E-03 0.  1.
         11   -1    0    0    0    0 -0.00000000000E+00 -0.00000000000E+00 -0.45593999997E+02  0.45594000000E+02  0.51100000000E-03 0. -1.
         23    2    1    2    0    0  0.17763568394E-14  0.00000000000E+00  0.55511151231E-15  0.91188000000E+02  0.91188000000E+02 0.  0.
    9900012    2    3    3    0    0  0.30001600218E+01 -0.36686884979E+02  0.92461338134E+00  0.54367035869E+02  0.39999889870E+02 0.  0.
        -12    1    3    3    0    0 -0.30001600218E+01  0.36686884979E+02 -0.92461338134E+00  0.36820964131E+02  0.00000000000E+00 0.  1.
         11    1    4    4    0    0  0.91382340850E+00 -0.28569478416E+02  0.12286423250E+01  0.28610482912E+02  0.51100000000E-03 0. -1.
        -11    1    4    4    0    0 -0.82414931287E+01 -0.97351762220E+01 -0.57246504156E+01  0.13980968768E+02  0.51100000000E-03 0.  1.
        -12    1    4    4    0    0  0.10327829742E+02  0.16177696593E+01  0.54206214719E+01  0.11775584189E+02  0.00000000000E+00 0.  1.
</event>
<event>
 8    1  0.2433390E-006  0.9118800E+02  0.7816164E-02  0.1184000E+00
        -11   -1    0    0    0    0  0.00000000000E+00  0.00000000000E+00  0.45593999997E+02  0.45594000000E+02  0.51100000000E-03 0.  1.
         11   -1    0    0    0    0 -0.00000000000E+00 -0.00000000000E+00 -0.45593999997E+02  0.45594000000E+02  0.51100000000E-03 0. -1.
         23    2    1    2    0    0  0.00000000000E+00  0.00000000000E+00  0.35527136788E-14  0.91188000000E+02  0.91188000000E+02 0.  0.
    9900012    2    3    3    0    0  0.99450097626E+01  0.19171931261E+02 -0.29821392153E+02  0.54367060340E+02  0.39999945658E+02 0.  0.
         12    1    3    3    0    0 -0.99450097626E+01 -0.19171931261E+02  0.29821392153E+02  0.36820939660E+02  0.00000000000E+00 0. -1.
         11    1    4    4    0    0 -0.48841499701E+01  0.60507515447E+01 -0.17961592053E+02  0.19572565098E+02  0.51100000000E-03 0. -1.
        -11    1    4    4    0    0 -0.49172270296E+01  0.11957841134E+02 -0.48121122699E+01  0.13795851225E+02  0.51100000000E-03 0.  1.
        -12    1    4    4    0    0  0.19746386762E+02  0.11633385825E+01 -0.70476878304E+01  0.20998644018E+02  0.00000000000E+00 0.  1.
</event>
<event>
 8    1  0.2433390E-006  0.9118800E+02  0.7816164E-02  0.1184000E+00
        -11   -1    0    0    0    0  0.00000000000E+00  0.00000000000E+00  0.45593999997E+02  0.45594000000E+02  0.51100000000E-03 0. -1.
         11   -1    0    0    0    0 -0.00000000000E+00 -0.00000000000E+00 -0.45593999997E+02  0.45594000000E+02  0.51100000000E-03 0.  1.
         23    2    1    2    0    0 -0.35527136788E-14  0.88817841970E-15 -0.35527136788E-14  0.91188000000E+02  0.91188000000E+02 0.  0.
    9900012    2    3    3    0    0  0.17364644482E+02 -0.73442690140E+01  0.31627677187E+02  0.54367093851E+02  0.40000022053E+02 0.  0.
        -12    1    3    3    0    0 -0.17364644482E+02  0.73442690140E+01 -0.31627677187E+02  0.36820906149E+02  0.00000000000E+00 0.  1.
         11    1    4    4    0    0  0.16363308016E+02 -0.71950727615E+01  0.55096515348E+01  0.18705164569E+02  0.51100000000E-03 0. -1.
        -11    1    4    4    0    0 -0.10079313655E+02  0.46054220128E+01  0.71572662432E+01  0.13192002729E+02  0.51100000000E-03 0.  1.
        -12    1    4    4    0    0  0.11080650121E+02 -0.47546182652E+01  0.18960759409E+02  0.22469926554E+02  0.00000000000E+00 0.  1.
</event>
<event>
 8    1  0.2433390E-006  0.9118800E+02  0.7816164E-02  0.1184000E+00
        -11   -1    0    0    0    0  0.00000000000E+00  0.00000000000E+00  0.45593999997E+02  0.45594000000E+02  0.51100000000E-03 0.  1.
         11   -1    0    0    0    0 -0.00000000000E+00 -0.00000000000E+00 -0.45593999997E+02  0.45594000000E+02  0.51100000000E-03 0. -1.
         23    2    1    2    0    0  0.00000000000E+00  0.00000000000E+00  0.00000000000E+00  0.91188000000E+02  0.91188000000E+02 0.  0.
    9900012    2    3    3    0    0  0.61636229059E+01 -0.21704230481E+02  0.29098387361E+02  0.54367081827E+02  0.39999994641E+02 0.  0.
         12    1    3    3    0    0 -0.61636229059E+01  0.21704230481E+02 -0.29098387361E+02  0.36820918173E+02  0.00000000000E+00 0. -1.
         11    1    4    4    0    0 -0.98258447470E+01 -0.97236242212E+01 -0.21359967792E+01  0.13987800953E+02  0.51100000000E-03 0. -1.
        -11    1    4    4    0    0  0.31930556108E+01 -0.61868702185E+01  0.23145256719E+02  0.24169730575E+02  0.51100000000E-03 0.  1.
        -12    1    4    4    0    0  0.12796412042E+02 -0.57937360410E+01  0.80891274218E+01  0.16209550299E+02  0.00000000000E+00 0.  1.
</event>
<event>
 8    1  0.2433390E-006  0.9118800E+02  0.7816164E-02  0.1184000E+00
        -11   -1    0    0    0    0  0.00000000000E+00  0.00000000000E+00  0.45593999997E+02  0.45594000000E+02  0.51100000000E-03 0.  1.
         11   -1    0    0    0    0 -0.00000000000E+00 -0.00000000000E+00 -0.45593999997E+02  0.45594000000E+02  0.51100000000E-03 0. -1.
         23    2    1    2    0    0  0.35527136788E-14 -0.17763568394E-14  0.00000000000E+00  0.91188000000E+02  0.91188000000E+02 0.  0.
    9900012    2    3    3    0    0  0.18936781842E+02 -0.83059834457E+01 -0.30466284197E+02  0.54367006799E+02  0.39999823600E+02 0.  0.
        -12    1    3    3    0    0 -0.18936781842E+02  0.83059834457E+01  0.30466284197E+02  0.36820993201E+02  0.00000000000E+00 0.  1.
         11    1    4    4    0    0  0.22309753295E+01 -0.92284935397E+01 -0.64177531708E+00  0.95159980954E+01  0.51100000000E-03 0. -1.
        -11    1    4    4    0    0 -0.71736974404E+01 -0.50615651818E+01 -0.63534609905E+01  0.10837335645E+02  0.51100000000E-03 0.  1.
        -12    1    4    4    0    0  0.23879503953E+02  0.59840752758E+01 -0.23471047889E+02  0.34013673059E+02  0.00000000000E+00 0.  1.
</event>
<event>
 8    1  0.2433390E-006  0.9118800E+02  0.7816164E-02  0.1184000E+00
        -11   -1    0    0    0    0  0.00000000000E+00  0.00000000000E+00  0.45593999997E+02  0.45594000000E+02  0.51100000000E-03 0.  1.
         11   -1    0    0    0    0 -0.00000000000E+00 -0.00000000000E+00 -0.45593999997E+02  0.45594000000E+02  0.51100000000E-03 0. -1.
         23    2    1    2    0    0 -0.88817841970E-15  0.35527136788E-14  0.00000000000E+00  0.91188000000E+02  0.91188000000E+02 0.  0.
    9900012    2    3    3    0    0 -0.64879785048E+01 -0.22712058682E+02 -0.28246221365E+02  0.54367075296E+02  0.39999979753E+02 0.  0.
        -12    1    3    3    0    0  0.64879785048E+01  0.22712058682E+02  0.28246221365E+02  0.36820924704E+02  0.00000000000E+00 0.  1.
         11    1    4    4    0    0 -0.48840326160E+01 -0.93533506680E+00 -0.10839463437E+02  0.11925711474E+02  0.51100000000E-03 0. -1.
        -11    1    4    4    0    0 -0.13111590358E+02 -0.80268035718E+01 -0.19000082269E+02  0.24440673145E+02  0.51100000000E-03 0.  1.
        -12    1    4    4    0    0  0.11507644469E+02 -0.13749920043E+02  0.15933243417E+01  0.18000690678E+02  0.00000000000E+00 0.  1.
</event>
<event>
 8    1  0.2433390E-006  0.9118800E+02  0.7816164E-02  0.1184000E+00
        -11   -1    0    0    0    0  0.00000000000E+00  0.00000000000E+00  0.45593999997E+02  0.45594000000E+02  0.51100000000E-03 0.  1.
         11   -1    0    0    0    0 -0.00000000000E+00 -0.00000000000E+00 -0.45593999997E+02  0.45594000000E+02  0.51100000000E-03 0. -1.
         23    2    1    2    0    0  0.00000000000E+00  0.17763568394E-14  0.00000000000E+00  0.91188000000E+02  0.91188000000E+02 0.  0.
    9900012    2    3    3    0    0 -0.22372879050E+02  0.11335451722E+02 -0.26958132440E+02  0.54367094425E+02  0.40000023361E+02 0.  0.
        -12    1    3    3    0    0  0.22372879050E+02 -0.11335451722E+02  0.26958132440E+02  0.36820905575E+02  0.00000000000E+00 0.  1.
         11    1    4    4    0    0 -0.20116407943E+02  0.14646357980E+02 -0.30580633835E+02  0.39425383151E+02  0.51100000000E-03 0. -1.
        -11    1    4    4    0    0  0.11813311178E+01  0.49832213763E+01 -0.32978814963E+00  0.51319391052E+01  0.51100000000E-03 0.  1.
         12    1    4    4    0    0 -0.34378022242E+01 -0.82941276343E+01  0.39522895449E+01  0.98097721683E+01  0.00000000000E+00 0. -1.
</event>
<event>
 8    1  0.2433390E-006  0.9118800E+02  0.7816164E-02  0.1184000E+00
        -11   -1    0    0    0    0  0.00000000000E+00  0.00000000000E+00  0.45593999997E+02  0.45594000000E+02  0.51100000000E-03 0. -1.
         11   -1    0    0    0    0 -0.00000000000E+00 -0.00000000000E+00 -0.45593999997E+02  0.45594000000E+02  0.51100000000E-03 0.  1.
         23    2    1    2    0    0  0.17763568394E-14  0.00000000000E+00  0.17763568394E-14  0.91188000000E+02  0.91188000000E+02 0.  0.
    9900012    2    3    3    0    0  0.14255265988E+02  0.30686526472E+02  0.14522539335E+02  0.54367086595E+02  0.40000005510E+02 0.  0.
         12    1    3    3    0    0 -0.14255265988E+02 -0.30686526472E+02 -0.14522539335E+02  0.36820913405E+02  0.00000000000E+00 0. -1.
         11    1    4    4    0    0 -0.63833623855E+01  0.23204339448E+02  0.67127992078E+01  0.24985002662E+02  0.51100000000E-03 0. -1.
        -11    1    4    4    0    0  0.62455137375E+01  0.99880242628E+01 -0.17693939790E+01  0.11912087384E+02  0.51100000000E-03 0.  1.
         12    1    4    4    0    0  0.14393114636E+02 -0.25058372393E+01  0.95791341061E+01  0.17469996549E+02  0.00000000000E+00 0. -1.
</event>
<event>
 8    1  0.2433390E-006  0.9118800E+02  0.7816164E-02  0.1184000E+00
        -11   -1    0    0    0    0  0.00000000000E+00  0.00000000000E+00  0.45593999997E+02  0.45594000000E+02  0.51100000000E-03 0.  1.
         11   -1    0    0    0    0 -0.00000000000E+00 -0.00000000000E+00 -0.45593999997E+02  0.45594000000E+02  0.51100000000E-03 0. -1.
         23    2    1    2    0    0  0.31641356202E-14  0.00000000000E+00  0.00000000000E+00  0.91188000000E+02  0.91188000000E+02 0.  0.
    9900012    2    3    3    0    0 -0.22311932102E+00  0.35351425645E+02 -0.10295306444E+02  0.54367266545E+02  0.40000415741E+02 0.  0.
        -12    1    3    3    0    0  0.22311932102E+00 -0.35351425645E+02  0.10295306444E+02  0.36820733455E+02  0.00000000000E+00 0.  1.
         11    1    4    4    0    0 -0.91230025945E+01  0.14712726339E+02  0.37374650595E+01  0.17710509253E+02  0.51100000000E-03 0. -1.
        -11    1    4    4    0    0 -0.28164615961E+01  0.11823229648E+02  0.45572063559E+01  0.12980344575E+02  0.51100000000E-03 0.  1.
         12    1    4    4    0    0  0.11716344870E+02  0.88154696581E+01 -0.18589977859E+02  0.23676412718E+02  0.00000000000E+00 0. -1.
</event>
<event>
 8    1  0.2433390E-006  0.9118800E+02  0.7816164E-02  0.1184000E+00
        -11   -1    0    0    0    0  0.00000000000E+00  0.00000000000E+00  0.45593999997E+02  0.45594000000E+02  0.51100000000E-03 0. -1.
         11   -1    0    0    0    0 -0.00000000000E+00 -0.00000000000E+00 -0.45593999997E+02  0.45594000000E+02  0.51100000000E-03 0.  1.
         23    2    1    2    0    0  0.00000000000E+00  0.00000000000E+00  0.00000000000E+00  0.91188000000E+02  0.91188000000E+02 0.  0.
    9900012    2    3    3    0    0 -0.15808121283E+02 -0.26125453495E+02  0.20575268007E+02  0.54367113640E+02  0.40000067164E+02 0.  0.
         12    1    3    3    0    0  0.15808121283E+02  0.26125453495E+02 -0.20575268007E+02  0.36820886360E+02  0.00000000000E+00 0. -1.
         11    1    4    4    0    0  0.65534317424E+01 -0.51753687938E+01  0.24431948511E+01  0.87006385453E+01  0.51100000000E-03 0. -1.
        -11    1    4    4    0    0 -0.65792185996E+01 -0.24635788334E+02  0.13272496301E+02  0.28746605757E+02  0.51100000000E-03 0.  1.
        -12    1    4    4    0    0 -0.15782334426E+02  0.36857036325E+01  0.48595768545E+01  0.16919869338E+02  0.00000000000E+00 0.  1.
</event>
<event>
 8    1  0.2433390E-006  0.9118800E+02  0.7816164E-02  0.1184000E+00
        -11   -1    0    0    0    0  0.00000000000E+00  0.00000000000E+00  0.45593999997E+02  0.45594000000E+02  0.51100000000E-03 0.  1.
         11   -1    0    0    0    0 -0.00000000000E+00 -0.00000000000E+00 -0.45593999997E+02  0.45594000000E+02  0.51100000000E-03 0. -1.
         23    2    1    2    0    0  0.17763568394E-14  0.00000000000E+00  0.00000000000E+00  0.91188000000E+02  0.91188000000E+02 0.  0.
    9900012    2    3    3    0    0 -0.79622097166E+01 -0.47438452793E+01  0.35635337917E+02  0.54367107017E+02  0.40000052067E+02 0.  0.
         12    1    3    3    0    0  0.79622097166E+01  0.47438452793E+01 -0.35635337917E+02  0.36820892983E+02  0.00000000000E+00 0. -1.
         11    1    4    4    0    0  0.94864374443E+01 -0.48343797997E+01  0.14017585777E+01  0.10739117785E+02  0.51100000000E-03 0. -1.
        -11    1    4    4    0    0 -0.24186776091E+01  0.49037389818E+01  0.24462615883E+02  0.25066236923E+02  0.51100000000E-03 0.  1.
         12    1    4    4    0    0 -0.15029969552E+02 -0.48132044614E+01  0.97709634567E+01  0.18561752309E+02  0.00000000000E+00 0. -1.
</event>
<event>
 8    1  0.2433390E-006  0.9118800E+02  0.7816164E-02  0.1184000E+00
        -11   -1    0    0    0    0  0.00000000000E+00  0.00000000000E+00  0.45593999997E+02  0.45594000000E+02  0.51100000000E-03 0. -1.
         11   -1    0    0    0    0 -0.00000000000E+00 -0.00000000000E+00 -0.45593999997E+02  0.45594000000E+02  0.51100000000E-03 0.  1.
         23    2    1    2    0    0  0.00000000000E+00  0.00000000000E+00  0.00000000000E+00  0.91188000000E+02  0.91188000000E+02 0.  0.
    9900012    2    3    3    0    0 -0.12072521786E+02  0.26951723218E+02 -0.21991779793E+02  0.54367088209E+02  0.40000009189E+02 0.  0.
         12    1    3    3    0    0  0.12072521786E+02 -0.26951723218E+02  0.21991779793E+02  0.36820911791E+02  0.00000000000E+00 0. -1.
         11    1    4    4    0    0 -0.10700058235E+02  0.12852865404E+02 -0.11047598470E+02  0.20043373657E+02  0.51100000000E-03 0. -1.
        -11    1    4    4    0    0  0.77972479567E+00  0.16875988144E+02 -0.19066373268E+02  0.25474173911E+02  0.51100000000E-03 0.  1.
         12    1    4    4    0    0 -0.21521883467E+01 -0.27771303295E+01  0.81221919459E+01  0.88495406408E+01  0.00000000000E+00 0. -1.
</event>
<event>
 8    1  0.2433390E-006  0.9118800E+02  0.7816164E-02  0.1184000E+00
        -11   -1    0    0    0    0  0.00000000000E+00  0.00000000000E+00  0.45593999997E+02  0.45594000000E+02  0.51100000000E-03 0.  1.
         11   -1    0    0    0    0 -0.00000000000E+00 -0.00000000000E+00 -0.45593999997E+02  0.45594000000E+02  0.51100000000E-03 0. -1.
         23    2    1    2    0    0 -0.17763568394E-14  0.00000000000E+00  0.00000000000E+00  0.91188000000E+02  0.91188000000E+02 0.  0.
    9900012    2    3    3    0    0  0.12371255061E+02  0.11698981530E+02 -0.32647557062E+02  0.54367121375E+02  0.40000084798E+02 0.  0.
        -12    1    3    3    0    0 -0.12371255061E+02 -0.11698981530E+02  0.32647557062E+02  0.36820878625E+02  0.00000000000E+00 0.  1.
         11    1    4    4    0    0 -0.61543552452E+01  0.66888151891E+00 -0.34352252736E+01  0.70798491447E+01  0.51100000000E-03 0. -1.
        -11    1    4    4    0    0 -0.73665782079E+01 -0.26778205584E+01 -0.71881489489E+01  0.10635162576E+02  0.51100000000E-03 0.  1.
         12    1    4    4    0    0  0.25892188515E+02  0.13707920570E+02 -0.22024182839E+02  0.36652109655E+02  0.00000000000E+00 0. -1.
</event>
<event>
 8    1  0.2433390E-006  0.9118800E+02  0.7816164E-02  0.1184000E+00
        -11   -1    0    0    0    0  0.00000000000E+00  0.00000000000E+00  0.45593999997E+02  0.45594000000E+02  0.51100000000E-03 0. -1.
         11   -1    0    0    0    0 -0.00000000000E+00 -0.00000000000E+00 -0.45593999997E+02  0.45594000000E+02  0.51100000000E-03 0.  1.
         23    2    1    2    0    0  0.00000000000E+00  0.00000000000E+00 -0.16653345369E-15  0.91188000000E+02  0.91188000000E+02 0.  0.
    9900012    2    3    3    0    0  0.15548744275E+02  0.33374273925E+02  0.41171234898E+00  0.54367148359E+02  0.40000146314E+02 0.  0.
         12    1    3    3    0    0 -0.15548744275E+02 -0.33374273925E+02 -0.41171234898E+00  0.36820851641E+02  0.00000000000E+00 0. -1.
         11    1    4    4    0    0  0.23551414649E+01 -0.51245411915E+01 -0.16355069607E+01  0.58721799209E+01  0.51100000000E-03 0. -1.
        -11    1    4    4    0    0 -0.71168790539E+00  0.10874664927E+02  0.11804401429E+02  0.16065762675E+02  0.51100000000E-03 0.  1.
        -12    1    4    4    0    0  0.13905290715E+02  0.27624150189E+02 -0.97571821195E+01  0.32429205763E+02  0.00000000000E+00 0.  1.
</event>
<event>
 8    1  0.2433390E-006  0.9118800E+02  0.7816164E-02  0.1184000E+00
        -11   -1    0    0    0    0  0.00000000000E+00  0.00000000000E+00  0.45593999997E+02  0.45594000000E+02  0.51100000000E-03 0. -1.
         11   -1    0    0    0    0 -0.00000000000E+00 -0.00000000000E+00 -0.45593999997E+02  0.45594000000E+02  0.51100000000E-03 0.  1.
         23    2    1    2    0    0 -0.88817841970E-15  0.35527136788E-14  0.35527136788E-14  0.91188000000E+02  0.91188000000E+02 0.  0.
    9900012    2    3    3    0    0 -0.68324479591E+01  0.26053822848E+02  0.25105663519E+02  0.54367104155E+02  0.40000045542E+02 0.  0.
         12    1    3    3    0    0  0.68324479591E+01 -0.26053822848E+02 -0.25105663519E+02  0.36820895845E+02  0.00000000000E+00 0. -1.
         11    1    4    4    0    0  0.83066537886E+01  0.12816950459E+02  0.15371045912E+02  0.21668958649E+02  0.51100000000E-03 0. -1.
        -11    1    4    4    0    0 -0.12558158902E+02  0.16566266124E+02 -0.13580613705E+01  0.20832495271E+02  0.51100000000E-03 0.  1.
        -12    1    4    4    0    0 -0.25809428461E+01 -0.33293937342E+01  0.11092678977E+02  0.11865650235E+02  0.00000000000E+00 0.  1.
</event>
<event>
 8    1  0.2433390E-006  0.9118800E+02  0.7816164E-02  0.1184000E+00
        -11   -1    0    0    0    0  0.00000000000E+00  0.00000000000E+00  0.45593999997E+02  0.45594000000E+02  0.51100000000E-03 0. -1.
         11   -1    0    0    0    0 -0.00000000000E+00 -0.00000000000E+00 -0.45593999997E+02  0.45594000000E+02  0.51100000000E-03 0.  1.
         23    2    1    2    0    0  0.00000000000E+00 -0.44408920985E-15  0.35527136788E-14  0.91188000000E+02  0.91188000000E+02 0.  0.
    9900012    2    3    3    0    0  0.28453741844E+02  0.16811635737E+01 -0.23309617826E+02  0.54367081773E+02  0.39999994518E+02 0.  0.
         12    1    3    3    0    0 -0.28453741844E+02 -0.16811635737E+01  0.23309617826E+02  0.36820918227E+02  0.00000000000E+00 0. -1.
         11    1    4    4    0    0 -0.31771423960E+01  0.48174842240E+01 -0.30853341997E+01  0.65438272775E+01  0.51100000000E-03 0. -1.
        -11    1    4    4    0    0 -0.49959056000E+01 -0.41155672443E+01 -0.48513545928E+01  0.80890424744E+01  0.51100000000E-03 0.  1.
        -12    1    4    4    0    0  0.36626789840E+02  0.97924659403E+00 -0.15372929034E+02  0.39734212021E+02  0.00000000000E+00 0.  1.
</event>
<event>
 8    1  0.2433390E-006  0.9118800E+02  0.7816164E-02  0.1184000E+00
        -11   -1    0    0    0    0  0.00000000000E+00  0.00000000000E+00  0.45593999997E+02  0.45594000000E+02  0.51100000000E-03 0.  1.
         11   -1    0    0    0    0 -0.00000000000E+00 -0.00000000000E+00 -0.45593999997E+02  0.45594000000E+02  0.51100000000E-03 0. -1.
         23    2    1    2    0    0  0.00000000000E+00  0.00000000000E+00  0.35527136788E-14  0.91188000000E+02  0.91188000000E+02 0.  0.
    9900012    2    3    3    0    0  0.18152538035E+02  0.83565865941E+01  0.30926244540E+02  0.54367085047E+02  0.40000001982E+02 0.  0.
         12    1    3    3    0    0 -0.18152538035E+02 -0.83565865941E+01 -0.30926244540E+02  0.36820914953E+02  0.00000000000E+00 0. -1.
         11    1    4    4    0    0 -0.19115585920E+01  0.81924797383E+01  0.16785145410E+01  0.85783560103E+01  0.51100000000E-03 0. -1.
        -11    1    4    4    0    0  0.48988391961E+01  0.34775837340E+01  0.29657931819E+02  0.30260289723E+02  0.51100000000E-03 0.  1.
        -12    1    4    4    0    0  0.15165257431E+02 -0.33134768782E+01 -0.41020182044E+00  0.15528439314E+02  0.00000000000E+00 0.  1.
</event>
<event>
 8    1  0.2433390E-006  0.9118800E+02  0.7816164E-02  0.1184000E+00
        -11   -1    0    0    0    0  0.00000000000E+00  0.00000000000E+00  0.45593999997E+02  0.45594000000E+02  0.51100000000E-03 0.  1.
         11   -1    0    0    0    0 -0.00000000000E+00 -0.00000000000E+00 -0.45593999997E+02  0.45594000000E+02  0.51100000000E-03 0. -1.
         23    2    1    2    0    0  0.00000000000E+00 -0.88817841970E-15  0.00000000000E+00  0.91188000000E+02  0.91188000000E+02 0.  0.
    9900012    2    3    3    0    0  0.18478044107E+02  0.34172368971E+01  0.31664789807E+02  0.54367156235E+02  0.40000164269E+02 0.  0.
         12    1    3    3    0    0 -0.18478044107E+02 -0.34172368971E+01 -0.31664789807E+02  0.36820843765E+02  0.00000000000E+00 0. -1.
         11    1    4    4    0    0 -0.47015828847E+01  0.22063724473E+01  0.76839358130E+01  0.92744719977E+01  0.51100000000E-03 0. -1.
        -11    1    4    4    0    0  0.10189059774E+02 -0.13777339388E+02  0.16803166634E+02  0.23999550598E+02  0.51100000000E-03 0.  1.
        -12    1    4    4    0    0  0.12990567217E+02  0.14988203838E+02  0.71776873605E+01  0.21093133640E+02  0.00000000000E+00 0.  1.
</event>
<event>
 8    1  0.2433390E-006  0.9118800E+02  0.7816164E-02  0.1184000E+00
        -11   -1    0    0    0    0  0.00000000000E+00  0.00000000000E+00  0.45593999997E+02  0.45594000000E+02  0.51100000000E-03 0. -1.
         11   -1    0    0    0    0 -0.00000000000E+00 -0.00000000000E+00 -0.45593999997E+02  0.45594000000E+02  0.51100000000E-03 0.  1.
         23    2    1    2    0    0  0.00000000000E+00  0.00000000000E+00  0.00000000000E+00  0.91188000000E+02  0.91188000000E+02 0.  0.
    9900012    2    3    3    0    0  0.33414306565E+02 -0.99379944249E+01 -0.11853329662E+02  0.54367067904E+02  0.39999962900E+02 0.  0.
        -12    1    3    3    0    0 -0.33414306565E+02  0.99379944249E+01  0.11853329662E+02  0.36820932096E+02  0.00000000000E+00 0.  1.
         11    1    4    4    0    0  0.12745449126E+02  0.31268919810E+01 -0.42991069421E+01  0.13809643285E+02  0.51100000000E-03 0. -1.
        -11    1    4    4    0    0 -0.14530463572E+01  0.50894721019E+01  0.67390269627E+01  0.85690463097E+01  0.51100000000E-03 0.  1.
         12    1    4    4    0    0  0.22121903796E+02 -0.18154358508E+02 -0.14293249682E+02  0.31988378309E+02  0.00000000000E+00 0. -1.
</event>
<event>
 8    1  0.2433390E-006  0.9118800E+02  0.7816164E-02  0.1184000E+00
        -11   -1    0    0    0    0  0.00000000000E+00  0.00000000000E+00  0.45593999997E+02  0.45594000000E+02  0.51100000000E-03 0.  1.
         11   -1    0    0    0    0 -0.00000000000E+00 -0.00000000000E+00 -0.45593999997E+02  0.45594000000E+02  0.51100000000E-03 0. -1.
         23    2    1    2    0    0  0.00000000000E+00  0.00000000000E+00  0.00000000000E+00  0.91188000000E+02  0.91188000000E+02 0.  0.
    9900012    2    3    3    0    0 -0.25430194129E+02 -0.76824466274E+01 -0.25496387023E+02  0.54367075095E+02  0.39999979293E+02 0.  0.
         12    1    3    3    0    0  0.25430194129E+02  0.76824466274E+01  0.25496387023E+02  0.36820924905E+02  0.00000000000E+00 0. -1.
         11    1    4    4    0    0 -0.19593892982E+01 -0.10610921785E+02  0.35501051406E+01  0.11359318391E+02  0.51100000000E-03 0.  1.
        -11    1    4    4    0    0 -0.20831573114E+02 -0.31689876516E+01 -0.10984502946E+02  0.23762496215E+02  0.51100000000E-03 0. -1.
         12    1    4    4    0    0 -0.26392317171E+01  0.60974628089E+01 -0.18061989218E+02  0.19245260488E+02  0.00000000000E+00 0. -1.
</event>
<event>
 8    1  0.2433390E-006  0.9118800E+02  0.7816164E-02  0.1184000E+00
        -11   -1    0    0    0    0  0.00000000000E+00  0.00000000000E+00  0.45593999997E+02  0.45594000000E+02  0.51100000000E-03 0. -1.
         11   -1    0    0    0    0 -0.00000000000E+00 -0.00000000000E+00 -0.45593999997E+02  0.45594000000E+02  0.51100000000E-03 0.  1.
         23    2    1    2    0    0  0.00000000000E+00 -0.71054273576E-14 -0.44408920985E-15  0.91188000000E+02  0.91188000000E+02 0.  0.
    9900012    2    3    3    0    0 -0.12058757963E+02 -0.34577963071E+02 -0.38370814158E+01  0.54367185675E+02  0.40000231382E+02 0.  0.
        -12    1    3    3    0    0  0.12058757963E+02  0.34577963071E+02  0.38370814158E+01  0.36820814325E+02  0.00000000000E+00 0.  1.
         11    1    4    4    0    0 -0.15855220045E+02 -0.60324246758E+01 -0.56597080085E+00  0.16973463799E+02  0.51100000000E-03 0. -1.
        -11    1    4    4    0    0 -0.79877817692E+00  0.37669338220E+01  0.19904993452E+01  0.43347346977E+01  0.51100000000E-03 0.  1.
        -12    1    4    4    0    0  0.45952402589E+01 -0.32312472218E+02 -0.52616099602E+01  0.33058987178E+02  0.00000000000E+00 0.  1.
</event>
<event>
 8    1  0.2433390E-006  0.9118800E+02  0.7816164E-02  0.1184000E+00
        -11   -1    0    0    0    0  0.00000000000E+00  0.00000000000E+00  0.45593999997E+02  0.45594000000E+02  0.51100000000E-03 0.  1.
         11   -1    0    0    0    0 -0.00000000000E+00 -0.00000000000E+00 -0.45593999997E+02  0.45594000000E+02  0.51100000000E-03 0. -1.
         23    2    1    2    0    0  0.00000000000E+00 -0.17763568394E-14  0.00000000000E+00  0.91188000000E+02  0.91188000000E+02 0.  0.
    9900012    2    3    3    0    0  0.32447784264E+02 -0.11589402828E+02 -0.12984837877E+02  0.54367095933E+02  0.40000026799E+02 0.  0.
        -12    1    3    3    0    0 -0.32447784264E+02  0.11589402828E+02  0.12984837877E+02  0.36820904067E+02  0.00000000000E+00 0.  1.
         11    1    4    4    0    0  0.49903060934E+01 -0.20767693045E+02 -0.35278219274E+01  0.21648227575E+02  0.51100000000E-03 0. -1.
        -11    1    4    4    0    0  0.31883430717E+01  0.53598191060E+01 -0.44099238740E+01  0.76381032480E+01  0.51100000000E-03 0.  1.
        -12    1    4    4    0    0  0.24269135099E+02  0.38184711115E+01 -0.50470920757E+01  0.25080765110E+02  0.00000000000E+00 0.  1.
</event>
<event>
 8    1  0.2433390E-006  0.9118800E+02  0.7816164E-02  0.1184000E+00
        -11   -1    0    0    0    0  0.00000000000E+00  0.00000000000E+00  0.45593999997E+02  0.45594000000E+02  0.51100000000E-03 0.  1.
         11   -1    0    0    0    0 -0.00000000000E+00 -0.00000000000E+00 -0.45593999997E+02  0.45594000000E+02  0.51100000000E-03 0. -1.
         23    2    1    2    0    0  0.00000000000E+00  0.00000000000E+00  0.13322676296E-14  0.91188000000E+02  0.91188000000E+02 0.  0.
    9900012    2    3    3    0    0 -0.13068611895E+02  0.34385252407E+02 -0.16264291238E+01  0.54367089207E+02  0.40000011466E+02 0.  0.
         12    1    3    3    0    0  0.13068611895E+02 -0.34385252407E+02  0.16264291238E+01  0.36820910793E+02  0.00000000000E+00 0. -1.
         11    1    4    4    0    0 -0.40309330785E+01  0.54216696911E+01 -0.72907048698E+01  0.99396831681E+01  0.51100000000E-03 0. -1.
        -11    1    4    4    0    0 -0.14901628458E+02  0.70941280671E+01  0.12581013915E+02  0.20752520212E+02  0.51100000000E-03 0.  1.
        -12    1    4    4    0    0  0.58639496424E+01  0.21869454648E+02 -0.69167381694E+01  0.23674885827E+02  0.00000000000E+00 0.  1.
</event>
<event>
 8    1  0.2433390E-006  0.9118800E+02  0.7816164E-02  0.1184000E+00
        -11   -1    0    0    0    0  0.00000000000E+00  0.00000000000E+00  0.45593999997E+02  0.45594000000E+02  0.51100000000E-03 0. -1.
         11   -1    0    0    0    0 -0.00000000000E+00 -0.00000000000E+00 -0.45593999997E+02  0.45594000000E+02  0.51100000000E-03 0.  1.
         23    2    1    2    0    0  0.71054273576E-14  0.00000000000E+00  0.00000000000E+00  0.91188000000E+02  0.91188000000E+02 0.  0.
    9900012    2    3    3    0    0  0.35369816522E+02  0.99231003311E+01  0.25088953836E+01  0.54366995166E+02  0.39999797079E+02 0.  0.
        -12    1    3    3    0    0 -0.35369816522E+02 -0.99231003311E+01 -0.25088953836E+01  0.36821004834E+02  0.00000000000E+00 0.  1.
         11    1    4    4    0    0  0.12792684937E+01  0.19071891768E+01  0.38390643551E+01  0.44735124699E+01  0.51100000000E-03 0. -1.
        -11    1    4    4    0    0  0.33028178932E+02  0.18289717832E+02 -0.65543803590E+01  0.38318850245E+02  0.51100000000E-03 0.  1.
         12    1    4    4    0    0  0.10623690962E+01 -0.10273806678E+02  0.52242113875E+01  0.11574632451E+02  0.00000000000E+00 0. -1.
</event>
<event>
 8    1  0.2433390E-006  0.9118800E+02  0.7816164E-02  0.1184000E+00
        -11   -1    0    0    0    0  0.00000000000E+00  0.00000000000E+00  0.45593999997E+02  0.45594000000E+02  0.51100000000E-03 0. -1.
         11   -1    0    0    0    0 -0.00000000000E+00 -0.00000000000E+00 -0.45593999997E+02  0.45594000000E+02  0.51100000000E-03 0.  1.
         23    2    1    2    0    0  0.17763568394E-14  0.00000000000E+00  0.00000000000E+00  0.91188000000E+02  0.91188000000E+02 0.  0.
    9900012    2    3    3    0    0  0.88110369010E+01 -0.12442349093E+02 -0.33516194859E+02  0.54367058403E+02  0.39999941242E+02 0.  0.
         12    1    3    3    0    0 -0.88110369010E+01  0.12442349093E+02  0.33516194859E+02  0.36820941597E+02  0.00000000000E+00 0. -1.
         11    1    4    4    0    0  0.19617080152E+02  0.10179228155E+01 -0.11727807302E+02  0.22878100116E+02  0.51100000000E-03 0. -1.
        -11    1    4    4    0    0 -0.46220847724E+01 -0.13860472902E+02 -0.20476388580E+02  0.25154698692E+02  0.51100000000E-03 0.  1.
        -12    1    4    4    0    0 -0.61839584790E+01  0.40020099345E+00 -0.13119989770E+01  0.63342595953E+01  0.00000000000E+00 0.  1.
</event>
<event>
 8    1  0.2433390E-006  0.9118800E+02  0.7816164E-02  0.1184000E+00
        -11   -1    0    0    0    0  0.00000000000E+00  0.00000000000E+00  0.45593999997E+02  0.45594000000E+02  0.51100000000E-03 0. -1.
         11   -1    0    0    0    0 -0.00000000000E+00 -0.00000000000E+00 -0.45593999997E+02  0.45594000000E+02  0.51100000000E-03 0.  1.
         23    2    1    2    0    0  0.48398784980E-15 -0.66613381478E-15  0.71054273576E-14  0.91188000000E+02  0.91188000000E+02 0.  0.
    9900012    2    3    3    0    0  0.10832125590E-01  0.61921033280E+00  0.36815713027E+02  0.54367078441E+02  0.39999986921E+02 0.  0.
        -12    1    3    3    0    0 -0.10832125590E-01 -0.61921033280E+00 -0.36815713027E+02  0.36820921559E+02  0.00000000000E+00 0.  1.
         11    1    4    4    0    0 -0.16309737112E+01  0.76164389044E+01 -0.18530452480E+00  0.77913127815E+01  0.51100000000E-03 0. -1.
        -11    1    4    4    0    0 -0.34220593999E+01  0.24506106567E+00 -0.36300597518E+01  0.49947852331E+01  0.51100000000E-03 0.  1.
         12    1    4    4    0    0  0.50638652367E+01 -0.72422896373E+01  0.40631077304E+02  0.41580980426E+02  0.00000000000E+00 0. -1.
</event>
<event>
 8    1  0.2433390E-006  0.9118800E+02  0.7816164E-02  0.1184000E+00
        -11   -1    0    0    0    0  0.00000000000E+00  0.00000000000E+00  0.45593999997E+02  0.45594000000E+02  0.51100000000E-03 0.  1.
         11   -1    0    0    0    0 -0.00000000000E+00 -0.00000000000E+00 -0.45593999997E+02  0.45594000000E+02  0.51100000000E-03 0. -1.
         23    2    1    2    0    0  0.17763568394E-14  0.71054273576E-14 -0.44408920985E-15  0.91188000000E+02  0.91188000000E+02 0.  0.
    9900012    2    3    3    0    0 -0.15297463330E+02 -0.33372176053E+02 -0.28399895148E+01  0.54367081227E+02  0.39999993273E+02 0.  0.
        -12    1    3    3    0    0  0.15297463330E+02  0.33372176053E+02  0.28399895148E+01  0.36820918773E+02  0.00000000000E+00 0.  1.
         11    1    4    4    0    0 -0.20261845731E+02 -0.13445464307E+02  0.54481388402E+01  0.24919974317E+02  0.51100000000E-03 0. -1.
        -11    1    4    4    0    0 -0.56448289804E+00  0.41993530431E+00  0.46543452811E+01  0.47072196527E+01  0.51100000000E-03 0.  1.
         12    1    4    4    0    0  0.55288652994E+01 -0.20346647051E+02 -0.12942473636E+02  0.24739887258E+02  0.00000000000E+00 0. -1.
</event>
<event>
 8    1  0.2433390E-006  0.9118800E+02  0.7816164E-02  0.1184000E+00
        -11   -1    0    0    0    0  0.00000000000E+00  0.00000000000E+00  0.45593999997E+02  0.45594000000E+02  0.51100000000E-03 0.  1.
         11   -1    0    0    0    0 -0.00000000000E+00 -0.00000000000E+00 -0.45593999997E+02  0.45594000000E+02  0.51100000000E-03 0. -1.
         23    2    1    2    0    0  0.35527136788E-14  0.00000000000E+00  0.44408920985E-15  0.91188000000E+02  0.91188000000E+02 0.  0.
    9900012    2    3    3    0    0  0.26113574195E+02 -0.25809985857E+02  0.27758320446E+01  0.54367090578E+02  0.40000014590E+02 0.  0.
         12    1    3    3    0    0 -0.26113574195E+02  0.25809985857E+02 -0.27758320446E+01  0.36820909422E+02  0.00000000000E+00 0. -1.
         11    1    4    4    0    0  0.89250487672E+01  0.17120142665E+01 -0.77326516175E+01  0.11932367311E+02  0.51100000000E-03 0. -1.
        -11    1    4    4    0    0  0.21426466332E+02 -0.22774750762E+02  0.13708980737E+01  0.31299554207E+02  0.51100000000E-03 0.  1.
        -12    1    4    4    0    0 -0.42379409043E+01 -0.47472493610E+01  0.91375855884E+01  0.11135169060E+02  0.00000000000E+00 0.  1.
</event>
<event>
 8    1  0.2433390E-006  0.9118800E+02  0.7816164E-02  0.1184000E+00
        -11   -1    0    0    0    0  0.00000000000E+00  0.00000000000E+00  0.45593999997E+02  0.45594000000E+02  0.51100000000E-03 0.  1.
         11   -1    0    0    0    0 -0.00000000000E+00 -0.00000000000E+00 -0.45593999997E+02  0.45594000000E+02  0.51100000000E-03 0. -1.
         23    2    1    2    0    0  0.00000000000E+00  0.00000000000E+00  0.00000000000E+00  0.91188000000E+02  0.91188000000E+02 0.  0.
    9900012    2    3    3    0    0  0.15716987561E+02  0.31218480809E+01 -0.33151342177E+02  0.54367066802E+02  0.39999960388E+02 0.  0.
        -12    1    3    3    0    0 -0.15716987561E+02 -0.31218480809E+01  0.33151342177E+02  0.36820933198E+02  0.00000000000E+00 0.  1.
         11    1    4    4    0    0  0.16033716771E+02  0.68767252677E+01 -0.79938499428E+01  0.19190389811E+02  0.51100000000E-03 0. -1.
        -11    1    4    4    0    0  0.10706230889E+02 -0.71923825732E+01 -0.15152323136E+02  0.19898408067E+02  0.51100000000E-03 0.  1.
         12    1    4    4    0    0 -0.11022960099E+02  0.34375053864E+01 -0.10005169098E+02  0.15278268924E+02  0.00000000000E+00 0. -1.
</event>
<event>
 8    1  0.2433390E-006  0.9118800E+02  0.7816164E-02  0.1184000E+00
        -11   -1    0    0    0    0  0.00000000000E+00  0.00000000000E+00  0.45593999997E+02  0.45594000000E+02  0.51100000000E-03 0.  1.
         11   -1    0    0    0    0 -0.00000000000E+00 -0.00000000000E+00 -0.45593999997E+02  0.45594000000E+02  0.51100000000E-03 0. -1.
         23    2    1    2    0    0  0.35527136788E-14  0.00000000000E+00 -0.35527136788E-14  0.91188000000E+02  0.91188000000E+02 0.  0.
    9900012    2    3    3    0    0  0.21414392937E+02  0.24905540404E+02  0.16640883538E+02  0.54367066109E+02  0.39999958808E+02 0.  0.
         12    1    3    3    0    0 -0.21414392937E+02 -0.24905540404E+02 -0.16640883538E+02  0.36820933891E+02  0.00000000000E+00 0. -1.
         11    1    4    4    0    0  0.94612430882E+01  0.27065033784E+02  0.87496698731E+01  0.29976455722E+02  0.51100000000E-03 0. -1.
        -11    1    4    4    0    0 -0.36530353066E+01  0.32220906676E+01 -0.18642319731E+01  0.52155437235E+01  0.51100000000E-03 0.  1.
        -12    1    4    4    0    0  0.15606185155E+02 -0.53815840469E+01  0.97554456381E+01  0.19175066664E+02  0.00000000000E+00 0.  1.
</event>
<event>
 8    1  0.2433390E-006  0.9118800E+02  0.7816164E-02  0.1184000E+00
        -11   -1    0    0    0    0  0.00000000000E+00  0.00000000000E+00  0.45593999997E+02  0.45594000000E+02  0.51100000000E-03 0. -1.
         11   -1    0    0    0    0 -0.00000000000E+00 -0.00000000000E+00 -0.45593999997E+02  0.45594000000E+02  0.51100000000E-03 0.  1.
         23    2    1    2    0    0  0.00000000000E+00  0.00000000000E+00  0.00000000000E+00  0.91188000000E+02  0.91188000000E+02 0.  0.
    9900012    2    3    3    0    0 -0.20202462339E+02  0.17925985755E+02 -0.25025964165E+02  0.54367091099E+02  0.40000015779E+02 0.  0.
         12    1    3    3    0    0  0.20202462339E+02 -0.17925985755E+02  0.25025964165E+02  0.36820908901E+02  0.00000000000E+00 0. -1.
         11    1    4    4    0    0 -0.10837843685E+02  0.66185213158E+01 -0.15508954502E+02  0.20044733726E+02  0.51100000000E-03 0. -1.
        -11    1    4    4    0    0 -0.15856581061E+02 -0.37350778888E+01 -0.70636606660E+01  0.17756048886E+02  0.51100000000E-03 0.  1.
         12    1    4    4    0    0  0.64919624065E+01  0.15042542328E+02 -0.24533489974E+01  0.16566308487E+02  0.00000000000E+00 0. -1.
</event>
<event>
 8    1  0.2433390E-006  0.9118800E+02  0.7816164E-02  0.1184000E+00
        -11   -1    0    0    0    0  0.00000000000E+00  0.00000000000E+00  0.45593999997E+02  0.45594000000E+02  0.51100000000E-03 0. -1.
         11   -1    0    0    0    0 -0.00000000000E+00 -0.00000000000E+00 -0.45593999997E+02  0.45594000000E+02  0.51100000000E-03 0.  1.
         23    2    1    2    0    0  0.00000000000E+00  0.00000000000E+00  0.00000000000E+00  0.91188000000E+02  0.91188000000E+02 0.  0.
    9900012    2    3    3    0    0  0.19391728258E+02  0.12569542036E+02 -0.28666102312E+02  0.54367110092E+02  0.40000059077E+02 0.  0.
         12    1    3    3    0    0 -0.19391728258E+02 -0.12569542036E+02  0.28666102312E+02  0.36820889908E+02  0.00000000000E+00 0. -1.
         11    1    4    4    0    0  0.34662802901E+01 -0.54940988190E+01  0.32677964780E+01  0.72717752279E+01  0.51100000000E-03 0.  1.
        -11    1    4    4    0    0  0.45463781021E+01 -0.61694863445E+01 -0.52015145791E+01  0.92621741389E+01  0.51100000000E-03 0. -1.
        -12    1    4    4    0    0  0.11379069866E+02  0.24233127200E+02 -0.26732384211E+02  0.37833160726E+02  0.00000000000E+00 0.  1.
</event>
<event>
 8    1  0.2433390E-006  0.9118800E+02  0.7816164E-02  0.1184000E+00
        -11   -1    0    0    0    0  0.00000000000E+00  0.00000000000E+00  0.45593999997E+02  0.45594000000E+02  0.51100000000E-03 0.  1.
         11   -1    0    0    0    0 -0.00000000000E+00 -0.00000000000E+00 -0.45593999997E+02  0.45594000000E+02  0.51100000000E-03 0. -1.
         23    2    1    2    0    0  0.00000000000E+00  0.00000000000E+00  0.35527136788E-14  0.91188000000E+02  0.91188000000E+02 0.  0.
    9900012    2    3    3    0    0  0.14892027010E+02  0.25627569322E+02  0.21845700458E+02  0.54367090094E+02  0.40000013488E+02 0.  0.
         12    1    3    3    0    0 -0.14892027010E+02 -0.25627569322E+02 -0.21845700458E+02  0.36820909906E+02  0.00000000000E+00 0. -1.
         11    1    4    4    0    0  0.92157544259E+01  0.31528469642E+00  0.85019411052E+01  0.12542429465E+02  0.51100000000E-03 0. -1.
        -11    1    4    4    0    0  0.92209376552E+01  0.93340262522E+01 -0.76632148241E+01  0.15194558204E+02  0.51100000000E-03 0.  1.
        -12    1    4    4    0    0 -0.35446650707E+01  0.15978258373E+02  0.21006974176E+02  0.26630102425E+02  0.00000000000E+00 0.  1.
</event>
<event>
 8    1  0.2433390E-006  0.9118800E+02  0.7816164E-02  0.1184000E+00
        -11   -1    0    0    0    0  0.00000000000E+00  0.00000000000E+00  0.45593999997E+02  0.45594000000E+02  0.51100000000E-03 0. -1.
         11   -1    0    0    0    0 -0.00000000000E+00 -0.00000000000E+00 -0.45593999997E+02  0.45594000000E+02  0.51100000000E-03 0.  1.
         23    2    1    2    0    0 -0.17763568394E-14  0.35527136788E-14  0.35527136788E-14  0.91188000000E+02  0.91188000000E+02 0.  0.
    9900012    2    3    3    0    0  0.12521621817E+02 -0.22629801724E+02 -0.26208426519E+02  0.54367074434E+02  0.39999977787E+02 0.  0.
         12    1    3    3    0    0 -0.12521621817E+02  0.22629801724E+02  0.26208426519E+02  0.36820925566E+02  0.00000000000E+00 0. -1.
         11    1    4    4    0    0  0.25099807237E+02 -0.90251010671E+01 -0.17643689309E+02  0.31980502581E+02  0.51100000000E-03 0. -1.
        -11    1    4    4    0    0 -0.57249611722E+00 -0.60875009002E+01 -0.61986543967E+00  0.61457019484E+01  0.51100000000E-03 0.  1.
        -12    1    4    4    0    0 -0.12005689303E+02 -0.75171997563E+01 -0.79448717700E+01  0.16240869905E+02  0.00000000000E+00 0.  1.
</event>
<event>
 8    1  0.2433390E-006  0.9118800E+02  0.7816164E-02  0.1184000E+00
        -11   -1    0    0    0    0  0.00000000000E+00  0.00000000000E+00  0.45593999997E+02  0.45594000000E+02  0.51100000000E-03 0.  1.
         11   -1    0    0    0    0 -0.00000000000E+00 -0.00000000000E+00 -0.45593999997E+02  0.45594000000E+02  0.51100000000E-03 0. -1.
         23    2    1    2    0    0  0.00000000000E+00  0.00000000000E+00  0.35527136788E-14  0.91188000000E+02  0.91188000000E+02 0.  0.
    9900012    2    3    3    0    0  0.15449765434E+02  0.33015942000E+02 -0.51990940389E+01  0.54367105701E+02  0.40000049067E+02 0.  0.
        -12    1    3    3    0    0 -0.15449765434E+02 -0.33015942000E+02  0.51990940389E+01  0.36820894299E+02  0.00000000000E+00 0.  1.
         11    1    4    4    0    0  0.18911020335E+01  0.25948153374E+01 -0.32767399521E+01  0.45876310347E+01  0.51100000000E-03 0. -1.
        -11    1    4    4    0    0  0.84737568917E+01  0.63752053333E+01 -0.17657024583E+02  0.20596560788E+02  0.51100000000E-03 0.  1.
        -12    1    4    4    0    0  0.50849065089E+01  0.24045921330E+02  0.15734670497E+02  0.29182913878E+02  0.00000000000E+00 0.  1.
</event>
<event>
 8    1  0.2433390E-006  0.9118800E+02  0.7816164E-02  0.1184000E+00
        -11   -1    0    0    0    0  0.00000000000E+00  0.00000000000E+00  0.45593999997E+02  0.45594000000E+02  0.51100000000E-03 0.  1.
         11   -1    0    0    0    0 -0.00000000000E+00 -0.00000000000E+00 -0.45593999997E+02  0.45594000000E+02  0.51100000000E-03 0. -1.
         23    2    1    2    0    0  0.00000000000E+00  0.00000000000E+00  0.17763568394E-14  0.91188000000E+02  0.91188000000E+02 0.  0.
    9900012    2    3    3    0    0  0.16183382367E+02 -0.29030263945E+02  0.15846834623E+02  0.54367078541E+02  0.39999987149E+02 0.  0.
         12    1    3    3    0    0 -0.16183382367E+02  0.29030263945E+02 -0.15846834623E+02  0.36820921459E+02  0.00000000000E+00 0. -1.
         11    1    4    4    0    0  0.90086014110E+01 -0.11900918080E+02 -0.42131473851E+01  0.15509266961E+02  0.51100000000E-03 0. -1.
        -11    1    4    4    0    0  0.60490116581E+01 -0.12118844635E+02 -0.41051263035E+01  0.14153056191E+02  0.51100000000E-03 0.  1.
        -12    1    4    4    0    0  0.11257692984E+01 -0.50105012296E+01  0.24165108311E+02  0.24704755388E+02  0.00000000000E+00 0.  1.
</event>
<event>
 8    1  0.2433390E-006  0.9118800E+02  0.7816164E-02  0.1184000E+00
        -11   -1    0    0    0    0  0.00000000000E+00  0.00000000000E+00  0.45593999997E+02  0.45594000000E+02  0.51100000000E-03 0. -1.
         11   -1    0    0    0    0 -0.00000000000E+00 -0.00000000000E+00 -0.45593999997E+02  0.45594000000E+02  0.51100000000E-03 0.  1.
         23    2    1    2    0    0  0.44408920985E-15  0.00000000000E+00  0.00000000000E+00  0.91188000000E+02  0.91188000000E+02 0.  0.
    9900012    2    3    3    0    0 -0.87558475577E+00 -0.16812625738E+02 -0.32746736095E+02  0.54367085321E+02  0.40000002607E+02 0.  0.
         12    1    3    3    0    0  0.87558475577E+00  0.16812625738E+02  0.32746736095E+02  0.36820914679E+02  0.00000000000E+00 0. -1.
         11    1    4    4    0    0 -0.25437756125E+01 -0.11429427801E+02 -0.19058443844E+02  0.22367988203E+02  0.51100000000E-03 0. -1.
        -11    1    4    4    0    0 -0.27547091798E+01 -0.75175811788E+01 -0.21404359069E+02  0.22852768692E+02  0.51100000000E-03 0.  1.
         12    1    4    4    0    0  0.44229000365E+01  0.21343832414E+01  0.77160668181E+01  0.91463284270E+01  0.00000000000E+00 0. -1.
</event>
<event>
 8    1  0.2433390E-006  0.9118800E+02  0.7816164E-02  0.1184000E+00
        -11   -1    0    0    0    0  0.00000000000E+00  0.00000000000E+00  0.45593999997E+02  0.45594000000E+02  0.51100000000E-03 0. -1.
         11   -1    0    0    0    0 -0.00000000000E+00 -0.00000000000E+00 -0.45593999997E+02  0.45594000000E+02  0.51100000000E-03 0.  1.
         23    2    1    2    0    0  0.00000000000E+00  0.88817841970E-15  0.71054273576E-14  0.91188000000E+02  0.91188000000E+02 0.  0.
    9900012    2    3    3    0    0 -0.99973130748E+01  0.20508080949E+01 -0.35378351597E+02  0.54367084147E+02  0.39999999930E+02 0.  0.
         12    1    3    3    0    0  0.99973130748E+01 -0.20508080949E+01  0.35378351597E+02  0.36820915853E+02  0.00000000000E+00 0. -1.
         11    1    4    4    0    0 -0.92372049322E+01 -0.46055446403E+00 -0.30649063357E+01  0.97432908446E+01  0.51100000000E-03 0. -1.
        -11    1    4    4    0    0 -0.39478626549E+01  0.71263332742E+01 -0.36643346523E+02  0.37538048566E+02  0.51100000000E-03 0.  1.
        -12    1    4    4    0    0  0.31877545123E+01 -0.46149707153E+01  0.43299012619E+01  0.70857447365E+01  0.00000000000E+00 0.  1.
</event>
<event>
 8    1  0.2433390E-006  0.9118800E+02  0.7816164E-02  0.1184000E+00
        -11   -1    0    0    0    0  0.00000000000E+00  0.00000000000E+00  0.45593999997E+02  0.45594000000E+02  0.51100000000E-03 0. -1.
         11   -1    0    0    0    0 -0.00000000000E+00 -0.00000000000E+00 -0.45593999997E+02  0.45594000000E+02  0.51100000000E-03 0.  1.
         23    2    1    2    0    0  0.00000000000E+00  0.35527136788E-14 -0.17763568394E-14  0.91188000000E+02  0.91188000000E+02 0.  0.
    9900012    2    3    3    0    0  0.23169187020E+02  0.27104416884E+02 -0.91826858541E+01  0.54367049968E+02  0.39999922012E+02 0.  0.
        -12    1    3    3    0    0 -0.23169187020E+02 -0.27104416884E+02  0.91826858541E+01  0.36820950032E+02  0.00000000000E+00 0.  1.
         11    1    4    4    0    0  0.14679571812E+02  0.97336069277E+01  0.11782927399E+01  0.17652798828E+02  0.51100000000E-03 0. -1.
        -11    1    4    4    0    0  0.10178449395E+02  0.82931642296E+01  0.85511884454E+01  0.15668446927E+02  0.51100000000E-03 0.  1.
        -12    1    4    4    0    0 -0.16888341874E+01  0.90776457262E+01 -0.18912167039E+02  0.21045804213E+02  0.00000000000E+00 0.  1.
</event>
<event>
 8    1  0.2433390E-006  0.9118800E+02  0.7816164E-02  0.1184000E+00
        -11   -1    0    0    0    0  0.00000000000E+00  0.00000000000E+00  0.45593999997E+02  0.45594000000E+02  0.51100000000E-03 0. -1.
         11   -1    0    0    0    0 -0.00000000000E+00 -0.00000000000E+00 -0.45593999997E+02  0.45594000000E+02  0.51100000000E-03 0.  1.
         23    2    1    2    0    0 -0.35527136788E-14  0.00000000000E+00 -0.35527136788E-14  0.91188000000E+02  0.91188000000E+02 0.  0.
    9900012    2    3    3    0    0  0.23980026935E+02  0.16739175813E+02  0.22372702435E+02  0.54367088645E+02  0.40000010185E+02 0.  0.
        -12    1    3    3    0    0 -0.23980026935E+02 -0.16739175813E+02 -0.22372702435E+02  0.36820911355E+02  0.00000000000E+00 0.  1.
         11    1    4    4    0    0  0.26390678609E+02  0.78110788832E+01  0.27538525604E+02  0.38933934600E+02  0.51100000000E-03 0. -1.
        -11    1    4    4    0    0  0.18740450480E+01  0.77570846545E+01 -0.70117326048E+01  0.10623031656E+02  0.51100000000E-03 0.  1.
        -12    1    4    4    0    0 -0.42846967221E+01  0.11710122755E+01  0.18459094367E+01  0.48101223891E+01  0.00000000000E+00 0.  1.
</event>
<event>
 8    1  0.2433390E-006  0.9118800E+02  0.7816164E-02  0.1184000E+00
        -11   -1    0    0    0    0  0.00000000000E+00  0.00000000000E+00  0.45593999997E+02  0.45594000000E+02  0.51100000000E-03 0.  1.
         11   -1    0    0    0    0 -0.00000000000E+00 -0.00000000000E+00 -0.45593999997E+02  0.45594000000E+02  0.51100000000E-03 0. -1.
         23    2    1    2    0    0  0.00000000000E+00 -0.35527136788E-14  0.00000000000E+00  0.91188000000E+02  0.91188000000E+02 0.  0.
    9900012    2    3    3    0    0 -0.20704930617E+02  0.16906602648E+02  0.25322966510E+02  0.54367082062E+02  0.39999995177E+02 0.  0.
         12    1    3    3    0    0  0.20704930617E+02 -0.16906602648E+02 -0.25322966510E+02  0.36820917938E+02  0.00000000000E+00 0. -1.
         11    1    4    4    0    0  0.86408070024E+01  0.55113294533E+01  0.44841350913E+01  0.11186856832E+02  0.51100000000E-03 0.  1.
        -11    1    4    4    0    0 -0.69533473300E+01  0.54716753568E-01  0.16234592214E+02  0.17661087668E+02  0.51100000000E-03 0. -1.
         12    1    4    4    0    0 -0.22392390289E+02  0.11340556441E+02  0.46042392046E+01  0.25519137562E+02  0.00000000000E+00 0. -1.
</event>
<event>
 8    1  0.2433390E-006  0.9118800E+02  0.7816164E-02  0.1184000E+00
        -11   -1    0    0    0    0  0.00000000000E+00  0.00000000000E+00  0.45593999997E+02  0.45594000000E+02  0.51100000000E-03 0.  1.
         11   -1    0    0    0    0 -0.00000000000E+00 -0.00000000000E+00 -0.45593999997E+02  0.45594000000E+02  0.51100000000E-03 0. -1.
         23    2    1    2    0    0  0.00000000000E+00 -0.35527136788E-14  0.00000000000E+00  0.91188000000E+02  0.91188000000E+02 0.  0.
    9900012    2    3    3    0    0 -0.16527522945E+02 -0.11132686206E+02  0.30962669098E+02  0.54367046801E+02  0.39999914792E+02 0.  0.
         12    1    3    3    0    0  0.16527522945E+02  0.11132686206E+02 -0.30962669098E+02  0.36820953199E+02  0.00000000000E+00 0. -1.
         11    1    4    4    0    0 -0.79452728615E+01  0.35941584095E+00  0.32526035239E+01  0.85927859588E+01  0.51100000000E-03 0. -1.
        -11    1    4    4    0    0 -0.69608467106E+00 -0.20012690002E+02  0.27680354941E+02  0.34164226099E+02  0.51100000000E-03 0.  1.
        -12    1    4    4    0    0 -0.78861654123E+01  0.85205879558E+01  0.29710632773E-01  0.11610034743E+02  0.00000000000E+00 0.  1.
</event>
<event>
 8    1  0.2433390E-006  0.9118800E+02  0.7816164E-02  0.1184000E+00
        -11   -1    0    0    0    0  0.00000000000E+00  0.00000000000E+00  0.45593999997E+02  0.45594000000E+02  0.51100000000E-03 0. -1.
         11   -1    0    0    0    0 -0.00000000000E+00 -0.00000000000E+00 -0.45593999997E+02  0.45594000000E+02  0.51100000000E-03 0.  1.
         23    2    1    2    0    0  0.00000000000E+00  0.00000000000E+00  0.00000000000E+00  0.91188000000E+02  0.91188000000E+02 0.  0.
    9900012    2    3    3    0    0  0.12232959492E+02 -0.32709905564E+02  0.11670329498E+02  0.54367084605E+02  0.40000000975E+02 0.  0.
        -12    1    3    3    0    0 -0.12232959492E+02  0.32709905564E+02 -0.11670329498E+02  0.36820915395E+02  0.00000000000E+00 0.  1.
         11    1    4    4    0    0  0.75697855404E+01 -0.65825962618E+01  0.13468328000E+02  0.16793691853E+02  0.51100000000E-03 0. -1.
        -11    1    4    4    0    0  0.12445468821E+02 -0.96511156760E+01  0.71231744039E+01  0.17285061233E+02  0.51100000000E-03 0.  1.
        -12    1    4    4    0    0 -0.77822948696E+01 -0.16476193626E+02 -0.89211729058E+01  0.20288331520E+02  0.00000000000E+00 0.  1.
</event>
<event>
 8    1  0.2433390E-006  0.9118800E+02  0.7816164E-02  0.1184000E+00
        -11   -1    0    0    0    0  0.00000000000E+00  0.00000000000E+00  0.45593999997E+02  0.45594000000E+02  0.51100000000E-03 0. -1.
         11   -1    0    0    0    0 -0.00000000000E+00 -0.00000000000E+00 -0.45593999997E+02  0.45594000000E+02  0.51100000000E-03 0.  1.
         23    2    1    2    0    0  0.00000000000E+00  0.00000000000E+00 -0.35527136788E-14  0.91188000000E+02  0.91188000000E+02 0.  0.
    9900012    2    3    3    0    0  0.73851050447E+01 -0.18026761565E+02  0.31245387936E+02  0.54367106796E+02  0.40000051564E+02 0.  0.
        -12    1    3    3    0    0 -0.73851050447E+01  0.18026761565E+02 -0.31245387936E+02  0.36820893204E+02  0.00000000000E+00 0.  1.
         11    1    4    4    0    0  0.10765485772E+02  0.72878939766E+01  0.98041526146E+01  0.16282828110E+02  0.51100000000E-03 0. -1.
        -11    1    4    4    0    0  0.43747220097E+01 -0.78389976692E+00 -0.22356980183E+00  0.44500196880E+01  0.51100000000E-03 0.  1.
         12    1    4    4    0    0 -0.77551027368E+01 -0.24530755774E+02  0.21664805123E+02  0.33634258998E+02  0.00000000000E+00 0. -1.
</event>
<event>
 8    1  0.2433390E-006  0.9118800E+02  0.7816164E-02  0.1184000E+00
        -11   -1    0    0    0    0  0.00000000000E+00  0.00000000000E+00  0.45593999997E+02  0.45594000000E+02  0.51100000000E-03 0. -1.
         11   -1    0    0    0    0 -0.00000000000E+00 -0.00000000000E+00 -0.45593999997E+02  0.45594000000E+02  0.51100000000E-03 0.  1.
         23    2    1    2    0    0  0.17763568394E-14  0.00000000000E+00  0.00000000000E+00  0.91188000000E+02  0.91188000000E+02 0.  0.
    9900012    2    3    3    0    0 -0.15205170178E+02 -0.31515785554E+02  0.11460313439E+02  0.54367072210E+02  0.39999972716E+02 0.  0.
        -12    1    3    3    0    0  0.15205170178E+02  0.31515785554E+02 -0.11460313439E+02  0.36820927790E+02  0.00000000000E+00 0.  1.
         11    1    4    4    0    0  0.25130305371E+01 -0.19595247355E+02  0.18251026049E+02  0.26895891759E+02  0.51100000000E-03 0. -1.
        -11    1    4    4    0    0  0.10793990831E+01  0.99352131526E+00 -0.42832915108E+01  0.45275571130E+01  0.51100000000E-03 0.  1.
         12    1    4    4    0    0 -0.18797599798E+02 -0.12914059514E+02 -0.25074210988E+01  0.22943623338E+02  0.00000000000E+00 0. -1.
</event>
<event>
 8    1  0.2433390E-006  0.9118800E+02  0.7816164E-02  0.1184000E+00
        -11   -1    0    0    0    0  0.00000000000E+00  0.00000000000E+00  0.45593999997E+02  0.45594000000E+02  0.51100000000E-03 0. -1.
         11   -1    0    0    0    0 -0.00000000000E+00 -0.00000000000E+00 -0.45593999997E+02  0.45594000000E+02  0.51100000000E-03 0.  1.
         23    2    1    2    0    0  0.00000000000E+00  0.00000000000E+00  0.88817841970E-15  0.91188000000E+02  0.91188000000E+02 0.  0.
    9900012    2    3    3    0    0  0.27393759859E+02  0.23677146191E+02 -0.66898742298E+01  0.54367085452E+02  0.40000002904E+02 0.  0.
        -12    1    3    3    0    0 -0.27393759859E+02 -0.23677146191E+02  0.66898742298E+01  0.36820914548E+02  0.00000000000E+00 0.  1.
         11    1    4    4    0    0  0.17752356403E+02  0.28794614288E+01 -0.17716580530E+02  0.25245092235E+02  0.51100000000E-03 0. -1.
        -11    1    4    4    0    0 -0.36232411303E+01  0.36272252468E+01  0.32645147994E+01  0.60779681158E+01  0.51100000000E-03 0.  1.
         12    1    4    4    0    0  0.13264644586E+02  0.17170459515E+02  0.77621915012E+01  0.23044025101E+02  0.00000000000E+00 0. -1.
</event>
<event>
 8    1  0.2433390E-006  0.9118800E+02  0.7816164E-02  0.1184000E+00
        -11   -1    0    0    0    0  0.00000000000E+00  0.00000000000E+00  0.45593999997E+02  0.45594000000E+02  0.51100000000E-03 0. -1.
         11   -1    0    0    0    0 -0.00000000000E+00 -0.00000000000E+00 -0.45593999997E+02  0.45594000000E+02  0.51100000000E-03 0.  1.
         23    2    1    2    0    0 -0.35527136788E-14 -0.17763568394E-14 -0.35527136788E-14  0.91188000000E+02  0.91188000000E+02 0.  0.
    9900012    2    3    3    0    0 -0.22485843527E+02 -0.75811635858E+01 -0.28154785408E+02  0.54367093686E+02  0.40000021676E+02 0.  0.
         12    1    3    3    0    0  0.22485843527E+02  0.75811635858E+01  0.28154785408E+02  0.36820906314E+02  0.00000000000E+00 0. -1.
         11    1    4    4    0    0  0.13533599772E+01  0.53048685961E+01 -0.89950428928E+01  0.10530147718E+02  0.51100000000E-03 0. -1.
        -11    1    4    4    0    0  0.96309218185E+00 -0.49240817329E+00 -0.15880452575E+02  0.15917248085E+02  0.51100000000E-03 0.  1.
        -12    1    4    4    0    0 -0.24802295686E+02 -0.12393624009E+02 -0.32792899397E+01  0.27919697883E+02  0.00000000000E+00 0.  1.
</event>
<event>
 8    1  0.2433390E-006  0.9118800E+02  0.7816164E-02  0.1184000E+00
        -11   -1    0    0    0    0  0.00000000000E+00  0.00000000000E+00  0.45593999997E+02  0.45594000000E+02  0.51100000000E-03 0.  1.
         11   -1    0    0    0    0 -0.00000000000E+00 -0.00000000000E+00 -0.45593999997E+02  0.45594000000E+02  0.51100000000E-03 0. -1.
         23    2    1    2    0    0 -0.88817841970E-15  0.35527136788E-14  0.00000000000E+00  0.91188000000E+02  0.91188000000E+02 0.  0.
    9900012    2    3    3    0    0  0.47431950908E+01 -0.28018605122E+02 -0.23414501282E+02  0.54367095571E+02  0.40000025973E+02 0.  0.
        -12    1    3    3    0    0 -0.47431950908E+01  0.28018605122E+02  0.23414501282E+02  0.36820904429E+02  0.00000000000E+00 0.  1.
         11    1    4    4    0    0  0.12853530858E+02 -0.16157250300E+02 -0.28164540871E+02  0.34921502767E+02  0.51100000000E-03 0. -1.
        -11    1    4    4    0    0  0.23667335571E+01 -0.34024045499E+01 -0.17430771743E+01  0.44962320612E+01  0.51100000000E-03 0.  1.
         12    1    4    4    0    0 -0.10477069324E+02 -0.84589502721E+01  0.64931167624E+01  0.14949360743E+02  0.00000000000E+00 0. -1.
</event>
<event>
 8    1  0.2433390E-006  0.9118800E+02  0.7816164E-02  0.1184000E+00
        -11   -1    0    0    0    0  0.00000000000E+00  0.00000000000E+00  0.45593999997E+02  0.45594000000E+02  0.51100000000E-03 0. -1.
         11   -1    0    0    0    0 -0.00000000000E+00 -0.00000000000E+00 -0.45593999997E+02  0.45594000000E+02  0.51100000000E-03 0.  1.
         23    2    1    2    0    0  0.00000000000E+00  0.00000000000E+00  0.00000000000E+00  0.91188000000E+02  0.91188000000E+02 0.  0.
    9900012    2    3    3    0    0 -0.86158228457E+01  0.23047044588E+02  0.27393066084E+02  0.54367099182E+02  0.40000034206E+02 0.  0.
        -12    1    3    3    0    0  0.86158228457E+01 -0.23047044588E+02 -0.27393066084E+02  0.36820900818E+02  0.00000000000E+00 0.  1.
         11    1    4    4    0    0  0.99307826427E+01  0.12891923021E+01 -0.37754643171E+01  0.10702176964E+02  0.51100000000E-03 0. -1.
        -11    1    4    4    0    0 -0.30917470193E+01  0.11691771863E+02  0.13479532691E+02  0.18109506641E+02  0.51100000000E-03 0.  1.
        -12    1    4    4    0    0 -0.15454858469E+02  0.10066080423E+02  0.17688997710E+02  0.25555415578E+02  0.00000000000E+00 0.  1.
</event>
<event>
 8    1  0.2433390E-006  0.9118800E+02  0.7816164E-02  0.1184000E+00
        -11   -1    0    0    0    0  0.00000000000E+00  0.00000000000E+00  0.45593999997E+02  0.45594000000E+02  0.51100000000E-03 0.  1.
         11   -1    0    0    0    0 -0.00000000000E+00 -0.00000000000E+00 -0.45593999997E+02  0.45594000000E+02  0.51100000000E-03 0. -1.
         23    2    1    2    0    0 -0.88817841970E-15  0.71054273576E-14  0.88817841970E-15  0.91188000000E+02  0.91188000000E+02 0.  0.
    9900012    2    3    3    0    0 -0.38911760111E+01  0.36073578593E+02  0.62717304940E+01  0.54367096607E+02  0.40000028335E+02 0.  0.
         12    1    3    3    0    0  0.38911760111E+01 -0.36073578593E+02 -0.62717304940E+01  0.36820903393E+02  0.00000000000E+00 0. -1.
         11    1    4    4    0    0 -0.63596126602E+01 -0.36940462208E+01  0.76940083918E+01  0.10643703118E+02  0.51100000000E-03 0. -1.
        -11    1    4    4    0    0 -0.91975221433E+00  0.76604742971E+01  0.69346550824E+01  0.10373921725E+02  0.51100000000E-03 0.  1.
        -12    1    4    4    0    0  0.33881888635E+01  0.32107150517E+02 -0.83569329801E+01  0.33349471764E+02  0.00000000000E+00 0.  1.
</event>
<event>
 8    1  0.2433390E-006  0.9118800E+02  0.7816164E-02  0.1184000E+00
        -11   -1    0    0    0    0  0.00000000000E+00  0.00000000000E+00  0.45593999997E+02  0.45594000000E+02  0.51100000000E-03 0.  1.
         11   -1    0    0    0    0 -0.00000000000E+00 -0.00000000000E+00 -0.45593999997E+02  0.45594000000E+02  0.51100000000E-03 0. -1.
         23    2    1    2    0    0  0.00000000000E+00  0.17763568394E-14 -0.71054273576E-14  0.91188000000E+02  0.91188000000E+02 0.  0.
    9900012    2    3    3    0    0 -0.22644119663E+02 -0.87129430195E+01 -0.27696722223E+02  0.54367082667E+02  0.39999996555E+02 0.  0.
        -12    1    3    3    0    0  0.22644119663E+02  0.87129430195E+01  0.27696722223E+02  0.36820917333E+02  0.00000000000E+00 0.  1.
         11    1    4    4    0    0 -0.17798498420E+02  0.28858339733E+01 -0.11639173358E+02  0.21461242752E+02  0.51100000000E-03 0. -1.
        -11    1    4    4    0    0 -0.50648963042E+01 -0.86153939928E+01  0.53188486330E+01  0.11321145669E+02  0.51100000000E-03 0.  1.
        -12    1    4    4    0    0  0.21927506159E+00 -0.29833830000E+01 -0.21376397498E+02  0.21584694246E+02  0.00000000000E+00 0.  1.
</event>
<event>
 8    1  0.2433390E-006  0.9118800E+02  0.7816164E-02  0.1184000E+00
        -11   -1    0    0    0    0  0.00000000000E+00  0.00000000000E+00  0.45593999997E+02  0.45594000000E+02  0.51100000000E-03 0.  1.
         11   -1    0    0    0    0 -0.00000000000E+00 -0.00000000000E+00 -0.45593999997E+02  0.45594000000E+02  0.51100000000E-03 0. -1.
         23    2    1    2    0    0  0.00000000000E+00  0.17763568394E-14  0.00000000000E+00  0.91188000000E+02  0.91188000000E+02 0.  0.
    9900012    2    3    3    0    0 -0.31068433910E+02  0.96033964454E+01  0.17271597600E+02  0.54367069912E+02  0.39999967479E+02 0.  0.
         12    1    3    3    0    0  0.31068433910E+02 -0.96033964454E+01 -0.17271597600E+02  0.36820930088E+02  0.00000000000E+00 0. -1.
         11    1    4    4    0    0 -0.57685519433E+01  0.14349303343E+02 -0.49140212896E-01  0.15465481337E+02  0.51100000000E-03 0. -1.
        -11    1    4    4    0    0  0.23612193274E+01 -0.66951438202E+01  0.37634787863E+01  0.80351776783E+01  0.51100000000E-03 0.  1.
         12    1    4    4    0    0 -0.27661101294E+02  0.19492369226E+01  0.13557259026E+02  0.30866410897E+02  0.00000000000E+00 0. -1.
</event>
<event>
 8    1  0.2433390E-006  0.9118800E+02  0.7816164E-02  0.1184000E+00
        -11   -1    0    0    0    0  0.00000000000E+00  0.00000000000E+00  0.45593999997E+02  0.45594000000E+02  0.51100000000E-03 0.  1.
         11   -1    0    0    0    0 -0.00000000000E+00 -0.00000000000E+00 -0.45593999997E+02  0.45594000000E+02  0.51100000000E-03 0. -1.
         23    2    1    2    0    0  0.00000000000E+00 -0.17763568394E-14  0.00000000000E+00  0.91188000000E+02  0.91188000000E+02 0.  0.
    9900012    2    3    3    0    0  0.20786245911E+02 -0.15592632754E+02 -0.26087941658E+02  0.54367096762E+02  0.40000028689E+02 0.  0.
        -12    1    3    3    0    0 -0.20786245911E+02  0.15592632754E+02  0.26087941658E+02  0.36820903238E+02  0.00000000000E+00 0.  1.
         11    1    4    4    0    0  0.23951971463E+01  0.38281488658E+01 -0.50415963831E+01  0.67682632528E+01  0.51100000000E-03 0. -1.
        -11    1    4    4    0    0  0.11378733964E+02  0.83061469002E+01 -0.73001034576E+01  0.15866920738E+02  0.51100000000E-03 0.  1.
        -12    1    4    4    0    0  0.70123148008E+01 -0.27726928520E+02 -0.13746241818E+02  0.31731912771E+02  0.00000000000E+00 0.  1.
</event>
<event>
 8    1  0.2433390E-006  0.9118800E+02  0.7816164E-02  0.1184000E+00
        -11   -1    0    0    0    0  0.00000000000E+00  0.00000000000E+00  0.45593999997E+02  0.45594000000E+02  0.51100000000E-03 0.  1.
         11   -1    0    0    0    0 -0.00000000000E+00 -0.00000000000E+00 -0.45593999997E+02  0.45594000000E+02  0.51100000000E-03 0. -1.
         23    2    1    2    0    0  0.00000000000E+00  0.00000000000E+00  0.00000000000E+00  0.91188000000E+02  0.91188000000E+02 0.  0.
    9900012    2    3    3    0    0  0.25583659055E+02 -0.60255969536E+01 -0.25786607549E+02  0.54367074452E+02  0.39999977828E+02 0.  0.
        -12    1    3    3    0    0 -0.25583659055E+02  0.60255969536E+01  0.25786607549E+02  0.36820925548E+02  0.00000000000E+00 0.  1.
         11    1    4    4    0    0 -0.39434575281E+01  0.11582529791E+01 -0.17090918912E+02  0.17578165910E+02  0.51100000000E-03 0. -1.
        -11    1    4    4    0    0  0.30705204599E+02 -0.73469255434E+01 -0.11611816261E+02  0.33639577607E+02  0.51100000000E-03 0.  1.
         12    1    4    4    0    0 -0.11780880157E+01  0.16307561064E+00  0.29161276231E+01  0.31493309356E+01  0.00000000000E+00 0. -1.
</event>
<event>
 8    1  0.2433390E-006  0.9118800E+02  0.7816164E-02  0.1184000E+00
        -11   -1    0    0    0    0  0.00000000000E+00  0.00000000000E+00  0.45593999997E+02  0.45594000000E+02  0.51100000000E-03 0. -1.
         11   -1    0    0    0    0 -0.00000000000E+00 -0.00000000000E+00 -0.45593999997E+02  0.45594000000E+02  0.51100000000E-03 0.  1.
         23    2    1    2    0    0  0.88817841970E-15  0.00000000000E+00  0.00000000000E+00  0.91188000000E+02  0.91188000000E+02 0.  0.
    9900012    2    3    3    0    0  0.62589829033E+01 -0.29685493817E+02 -0.20865680090E+02  0.54367081818E+02  0.39999994621E+02 0.  0.
         12    1    3    3    0    0 -0.62589829033E+01  0.29685493817E+02  0.20865680090E+02  0.36820918182E+02  0.00000000000E+00 0. -1.
         11    1    4    4    0    0  0.84815913258E+01  0.18512468386E+01 -0.69533905559E+01  0.11122686131E+02  0.51100000000E-03 0. -1.
        -11    1    4    4    0    0 -0.12193854297E+02 -0.62009409304E+01 -0.55365173499E+01  0.14757871651E+02  0.51100000000E-03 0.  1.
        -12    1    4    4    0    0  0.99712458750E+01 -0.25335799725E+02 -0.83757721840E+01  0.28486524036E+02  0.00000000000E+00 0.  1.
</event>
<event>
 8    1  0.2433390E-006  0.9118800E+02  0.7816164E-02  0.1184000E+00
        -11   -1    0    0    0    0  0.00000000000E+00  0.00000000000E+00  0.45593999997E+02  0.45594000000E+02  0.51100000000E-03 0. -1.
         11   -1    0    0    0    0 -0.00000000000E+00 -0.00000000000E+00 -0.45593999997E+02  0.45594000000E+02  0.51100000000E-03 0.  1.
         23    2    1    2    0    0  0.00000000000E+00  0.35527136788E-14  0.00000000000E+00  0.91188000000E+02  0.91188000000E+02 0.  0.
    9900012    2    3    3    0    0 -0.20272622925E+02 -0.20729218890E+02 -0.22695806997E+02  0.54367090027E+02  0.40000013334E+02 0.  0.
         12    1    3    3    0    0  0.20272622925E+02  0.20729218890E+02  0.22695806997E+02  0.36820909973E+02  0.00000000000E+00 0. -1.
         11    1    4    4    0    0 -0.16603626411E+02 -0.92472985920E+01 -0.76129616809E+01  0.20473156256E+02  0.51100000000E-03 0. -1.
        -11    1    4    4    0    0 -0.61951513229E+01 -0.20068136056E+02 -0.13014147966E+02  0.24707853655E+02  0.51100000000E-03 0.  1.
         12    1    4    4    0    0  0.25261548096E+01  0.85862157582E+01 -0.20686973493E+01  0.91860801157E+01  0.00000000000E+00 0. -1.
</event>
<event>
 8    1  0.2433390E-006  0.9118800E+02  0.7816164E-02  0.1184000E+00
        -11   -1    0    0    0    0  0.00000000000E+00  0.00000000000E+00  0.45593999997E+02  0.45594000000E+02  0.51100000000E-03 0. -1.
         11   -1    0    0    0    0 -0.00000000000E+00 -0.00000000000E+00 -0.45593999997E+02  0.45594000000E+02  0.51100000000E-03 0.  1.
         23    2    1    2    0    0 -0.35527136788E-14  0.00000000000E+00  0.00000000000E+00  0.91188000000E+02  0.91188000000E+02 0.  0.
    9900012    2    3    3    0    0  0.19698051097E+02 -0.13711202722E+02  0.27924364373E+02  0.54367076292E+02  0.39999982023E+02 0.  0.
         12    1    3    3    0    0 -0.19698051097E+02  0.13711202722E+02 -0.27924364373E+02  0.36820923708E+02  0.00000000000E+00 0. -1.
         11    1    4    4    0    0  0.69080324914E+01  0.78398820594E-01 -0.73994665698E+00  0.69479911192E+01  0.51100000000E-03 0. -1.
        -11    1    4    4    0    0  0.19758571869E+02 -0.19956851420E+02  0.18451887910E+02  0.33602816081E+02  0.51100000000E-03 0.  1.
        -12    1    4    4    0    0 -0.69685532631E+01  0.61672498779E+01  0.10212423120E+02  0.13816269092E+02  0.00000000000E+00 0.  1.
</event>
<event>
 8    1  0.2433390E-006  0.9118800E+02  0.7816164E-02  0.1184000E+00
        -11   -1    0    0    0    0  0.00000000000E+00  0.00000000000E+00  0.45593999997E+02  0.45594000000E+02  0.51100000000E-03 0. -1.
         11   -1    0    0    0    0 -0.00000000000E+00 -0.00000000000E+00 -0.45593999997E+02  0.45594000000E+02  0.51100000000E-03 0.  1.
         23    2    1    2    0    0  0.00000000000E+00 -0.17763568394E-14  0.00000000000E+00  0.91188000000E+02  0.91188000000E+02 0.  0.
    9900012    2    3    3    0    0 -0.27937161423E+02 -0.15915493928E+02  0.17944079838E+02  0.54367110052E+02  0.40000058986E+02 0.  0.
        -12    1    3    3    0    0  0.27937161423E+02  0.15915493928E+02 -0.17944079838E+02  0.36820889948E+02  0.00000000000E+00 0.  1.
         11    1    4    4    0    0  0.71505409816E+00 -0.15611131510E+00  0.11814328400E+02  0.11836977186E+02  0.51100000000E-03 0. -1.
        -11    1    4    4    0    0 -0.28853580775E+02 -0.21229044484E+02  0.80762721076E+01  0.36720942590E+02  0.51100000000E-03 0.  1.
        -12    1    4    4    0    0  0.20136525401E+00  0.54696618712E+01 -0.19465206695E+01  0.58091902764E+01  0.00000000000E+00 0.  1.
</event>
<event>
 8    1  0.2433390E-006  0.9118800E+02  0.7816164E-02  0.1184000E+00
        -11   -1    0    0    0    0  0.00000000000E+00  0.00000000000E+00  0.45593999997E+02  0.45594000000E+02  0.51100000000E-03 0.  1.
         11   -1    0    0    0    0 -0.00000000000E+00 -0.00000000000E+00 -0.45593999997E+02  0.45594000000E+02  0.51100000000E-03 0. -1.
         23    2    1    2    0    0  0.35527136788E-14 -0.35527136788E-14  0.17763568394E-14  0.91188000000E+02  0.91188000000E+02 0.  0.
    9900012    2    3    3    0    0  0.25394480030E+02 -0.21677567703E+02  0.15523634605E+02  0.54367084899E+02  0.40000001644E+02 0.  0.
         12    1    3    3    0    0 -0.25394480030E+02  0.21677567703E+02 -0.15523634605E+02  0.36820915101E+02  0.00000000000E+00 0. -1.
         11    1    4    4    0    0 -0.37472368910E+01  0.23418478248E+00  0.46559222450E+01  0.59811569986E+01  0.51100000000E-03 0. -1.
        -11    1    4    4    0    0 -0.57356267591E+01 -0.72254178732E+01  0.10138243420E+01  0.92807283022E+01  0.51100000000E-03 0.  1.
        -12    1    4    4    0    0  0.34877343680E+02 -0.14686334613E+02  0.98538880177E+01  0.39105199598E+02  0.00000000000E+00 0.  1.
</event>
<event>
 8    1  0.2433390E-006  0.9118800E+02  0.7816164E-02  0.1184000E+00
        -11   -1    0    0    0    0  0.00000000000E+00  0.00000000000E+00  0.45593999997E+02  0.45594000000E+02  0.51100000000E-03 0. -1.
         11   -1    0    0    0    0 -0.00000000000E+00 -0.00000000000E+00 -0.45593999997E+02  0.45594000000E+02  0.51100000000E-03 0.  1.
         23    2    1    2    0    0  0.00000000000E+00 -0.17763568394E-14 -0.35527136788E-14  0.91188000000E+02  0.91188000000E+02 0.  0.
    9900012    2    3    3    0    0 -0.23724994088E+02 -0.10303501842E+02 -0.26205765310E+02  0.54367087054E+02  0.40000006558E+02 0.  0.
         12    1    3    3    0    0  0.23724994088E+02  0.10303501842E+02  0.26205765310E+02  0.36820912946E+02  0.00000000000E+00 0. -1.
         11    1    4    4    0    0  0.10194804264E+00 -0.63068189093E+01 -0.34012173964E+01  0.71662150538E+01  0.51100000000E-03 0. -1.
        -11    1    4    4    0    0  0.21878094892E+00 -0.13253672548E+02 -0.73613427751E+00  0.13275902796E+02  0.51100000000E-03 0.  1.
        -12    1    4    4    0    0 -0.24045723080E+02  0.92569896151E+01 -0.22068413636E+02  0.33924969205E+02  0.00000000000E+00 0.  1.
</event>
<event>
 8    1  0.2433390E-006  0.9118800E+02  0.7816164E-02  0.1184000E+00
        -11   -1    0    0    0    0  0.00000000000E+00  0.00000000000E+00  0.45593999997E+02  0.45594000000E+02  0.51100000000E-03 0.  1.
         11   -1    0    0    0    0 -0.00000000000E+00 -0.00000000000E+00 -0.45593999997E+02  0.45594000000E+02  0.51100000000E-03 0. -1.
         23    2    1    2    0    0  0.00000000000E+00 -0.71054273576E-14 -0.17763568394E-14  0.91188000000E+02  0.91188000000E+02 0.  0.
    9900012    2    3    3    0    0  0.76560815913E+01 -0.32749581966E+02 -0.14987620448E+02  0.54367089216E+02  0.40000011486E+02 0.  0.
        -12    1    3    3    0    0 -0.76560815913E+01  0.32749581966E+02  0.14987620448E+02  0.36820910784E+02  0.00000000000E+00 0.  1.
         11    1    4    4    0    0  0.13367248655E+02 -0.11358142803E+02  0.79495781421E+01  0.19258414718E+02  0.51100000000E-03 0. -1.
        -11    1    4    4    0    0 -0.67747613725E+01 -0.42315072605E+01 -0.24326107036E+01  0.83498886487E+01  0.51100000000E-03 0.  1.
        -12    1    4    4    0    0  0.10635943086E+01 -0.17159931903E+02 -0.20504587886E+02  0.26758785850E+02  0.00000000000E+00 0.  1.
</event>
<event>
 8    1  0.2433390E-006  0.9118800E+02  0.7816164E-02  0.1184000E+00
        -11   -1    0    0    0    0  0.00000000000E+00  0.00000000000E+00  0.45593999997E+02  0.45594000000E+02  0.51100000000E-03 0.  1.
         11   -1    0    0    0    0 -0.00000000000E+00 -0.00000000000E+00 -0.45593999997E+02  0.45594000000E+02  0.51100000000E-03 0. -1.
         23    2    1    2    0    0  0.88817841970E-15  0.17763568394E-14  0.00000000000E+00  0.91188000000E+02  0.91188000000E+02 0.  0.
    9900012    2    3    3    0    0 -0.53722733183E+01 -0.13246142091E+02 -0.33933141911E+02  0.54367085823E+02  0.40000003751E+02 0.  0.
        -12    1    3    3    0    0  0.53722733183E+01  0.13246142091E+02  0.33933141911E+02  0.36820914177E+02  0.00000000000E+00 0.  1.
         11    1    4    4    0    0 -0.66276207553E+01  0.46524376734E+01 -0.16916949531E+02  0.18755098370E+02  0.51100000000E-03 0. -1.
        -11    1    4    4    0    0 -0.15636405864E+01 -0.38489384379E+01 -0.20457359704E+02  0.20874933899E+02  0.51100000000E-03 0.  1.
        -12    1    4    4    0    0  0.28189880235E+01 -0.14049641326E+02  0.34411673245E+01  0.14737053553E+02  0.00000000000E+00 0.  1.
</event>
<event>
 8    1  0.2433390E-006  0.9118800E+02  0.7816164E-02  0.1184000E+00
        -11   -1    0    0    0    0  0.00000000000E+00  0.00000000000E+00  0.45593999997E+02  0.45594000000E+02  0.51100000000E-03 0.  1.
         11   -1    0    0    0    0 -0.00000000000E+00 -0.00000000000E+00 -0.45593999997E+02  0.45594000000E+02  0.51100000000E-03 0. -1.
         23    2    1    2    0    0  0.59674487574E-15  0.00000000000E+00  0.35527136788E-14  0.91188000000E+02  0.91188000000E+02 0.  0.
    9900012    2    3    3    0    0  0.78961344445E-01 -0.34511879274E+02 -0.12833712223E+02  0.54367079108E+02  0.39999988443E+02 0.  0.
         12    1    3    3    0    0 -0.78961344445E-01  0.34511879274E+02  0.12833712223E+02  0.36820920892E+02  0.00000000000E+00 0. -1.
         11    1    4    4    0    0  0.48440276902E+01  0.14582368658E+00 -0.37043817232E+00  0.48603594015E+01  0.51100000000E-03 0. -1.
        -11    1    4    4    0    0  0.59643401048E+01  0.14984406375E+01  0.50185014406E+01  0.79375080598E+01  0.51100000000E-03 0.  1.
        -12    1    4    4    0    0 -0.10729406451E+02 -0.36156143598E+02 -0.17481775491E+02  0.41569211647E+02  0.00000000000E+00 0.  1.
</event>
<event>
 8    1  0.2433390E-006  0.9118800E+02  0.7816164E-02  0.1184000E+00
        -11   -1    0    0    0    0  0.00000000000E+00  0.00000000000E+00  0.45593999997E+02  0.45594000000E+02  0.51100000000E-03 0.  1.
         11   -1    0    0    0    0 -0.00000000000E+00 -0.00000000000E+00 -0.45593999997E+02  0.45594000000E+02  0.51100000000E-03 0. -1.
         23    2    1    2    0    0 -0.35527136788E-14 -0.35527136788E-14  0.00000000000E+00  0.91188000000E+02  0.91188000000E+02 0.  0.
    9900012    2    3    3    0    0  0.23673627032E+02 -0.23483035146E+02 -0.15616977520E+02  0.54367033916E+02  0.39999885418E+02 0.  0.
         12    1    3    3    0    0 -0.23673627032E+02  0.23483035146E+02  0.15616977520E+02  0.36820966084E+02  0.00000000000E+00 0. -1.
         11    1    4    4    0    0 -0.32964820597E+01 -0.19123182698E+00  0.13460554291E+01  0.35658419849E+01  0.51100000000E-03 0. -1.
        -11    1    4    4    0    0  0.18707707921E+02 -0.29980137447E+02 -0.18777478675E+02  0.40017254811E+02  0.51100000000E-03 0.  1.
        -12    1    4    4    0    0  0.82624011707E+01  0.66883341277E+01  0.18144457258E+01  0.10783937120E+02  0.00000000000E+00 0.  1.
</event>
<event>
 8    1  0.2433390E-006  0.9118800E+02  0.7816164E-02  0.1184000E+00
        -11   -1    0    0    0    0  0.00000000000E+00  0.00000000000E+00  0.45593999997E+02  0.45594000000E+02  0.51100000000E-03 0.  1.
         11   -1    0    0    0    0 -0.00000000000E+00 -0.00000000000E+00 -0.45593999997E+02  0.45594000000E+02  0.51100000000E-03 0. -1.
         23    2    1    2    0    0  0.00000000000E+00  0.49960036108E-15  0.00000000000E+00  0.91188000000E+02  0.91188000000E+02 0.  0.
    9900012    2    3    3    0    0  0.11041893177E+02 -0.25569506586E+00  0.35125325440E+02  0.54367119075E+02  0.40000079554E+02 0.  0.
         12    1    3    3    0    0 -0.11041893177E+02  0.25569506586E+00 -0.35125325440E+02  0.36820880925E+02  0.00000000000E+00 0. -1.
         11    1    4    4    0    0 -0.10226760634E+02  0.98592350600E+00  0.86241430202E+01  0.13413967397E+02  0.51100000000E-03 0. -1.
        -11    1    4    4    0    0  0.20049516821E+02 -0.99683457620E+01  0.19673195863E+02  0.29805799397E+02  0.51100000000E-03 0.  1.
         12    1    4    4    0    0  0.12191369893E+01  0.87267271902E+01  0.68279865564E+01  0.11147352280E+02  0.00000000000E+00 0. -1.
</event>
<event>
 8    1  0.2433390E-006  0.9118800E+02  0.7816164E-02  0.1184000E+00
        -11   -1    0    0    0    0  0.00000000000E+00  0.00000000000E+00  0.45593999997E+02  0.45594000000E+02  0.51100000000E-03 0. -1.
         11   -1    0    0    0    0 -0.00000000000E+00 -0.00000000000E+00 -0.45593999997E+02  0.45594000000E+02  0.51100000000E-03 0.  1.
         23    2    1    2    0    0  0.00000000000E+00 -0.17763568394E-14  0.00000000000E+00  0.91188000000E+02  0.91188000000E+02 0.  0.
    9900012    2    3    3    0    0  0.17892714866E+02 -0.71859337575E+01 -0.31368654512E+02  0.54367090517E+02  0.40000014452E+02 0.  0.
         12    1    3    3    0    0 -0.17892714866E+02  0.71859337575E+01  0.31368654512E+02  0.36820909483E+02  0.00000000000E+00 0. -1.
         11    1    4    4    0    0 -0.81567079808E+01  0.42642719764E+01 -0.13263300402E+02  0.16144071308E+02  0.51100000000E-03 0. -1.
        -11    1    4    4    0    0  0.19414661598E+02 -0.47060190968E+00 -0.16125743437E+02  0.25242625711E+02  0.51100000000E-03 0.  1.
        -12    1    4    4    0    0  0.66347612480E+01 -0.10979603824E+02 -0.19796106739E+01  0.12980393498E+02  0.00000000000E+00 0.  1.
</event>
<event>
 8    1  0.2433390E-006  0.9118800E+02  0.7816164E-02  0.1184000E+00
        -11   -1    0    0    0    0  0.00000000000E+00  0.00000000000E+00  0.45593999997E+02  0.45594000000E+02  0.51100000000E-03 0.  1.
         11   -1    0    0    0    0 -0.00000000000E+00 -0.00000000000E+00 -0.45593999997E+02  0.45594000000E+02  0.51100000000E-03 0. -1.
         23    2    1    2    0    0  0.00000000000E+00  0.00000000000E+00  0.00000000000E+00  0.91188000000E+02  0.91188000000E+02 0.  0.
    9900012    2    3    3    0    0 -0.19054348542E+02 -0.30690569309E+02  0.71275009154E+01  0.54367075077E+02  0.39999979253E+02 0.  0.
         12    1    3    3    0    0  0.19054348542E+02  0.30690569309E+02 -0.71275009154E+01  0.36820924923E+02  0.00000000000E+00 0. -1.
         11    1    4    4    0    0  0.65092523893E+01 -0.11616966051E+01  0.72148740459E+00  0.66513494876E+01  0.51100000000E-03 0. -1.
        -11    1    4    4    0    0 -0.24081253195E+01  0.29790955740E+01  0.67969702830E+01  0.78021076180E+01  0.51100000000E-03 0.  1.
        -12    1    4    4    0    0 -0.23155475612E+02 -0.32507968278E+02 -0.39095677222E+00  0.39913617971E+02  0.00000000000E+00 0.  1.
</event>
<event>
 8    1  0.2433390E-006  0.9118800E+02  0.7816164E-02  0.1184000E+00
        -11   -1    0    0    0    0  0.00000000000E+00  0.00000000000E+00  0.45593999997E+02  0.45594000000E+02  0.51100000000E-03 0.  1.
         11   -1    0    0    0    0 -0.00000000000E+00 -0.00000000000E+00 -0.45593999997E+02  0.45594000000E+02  0.51100000000E-03 0. -1.
         23    2    1    2    0    0  0.00000000000E+00 -0.35527136788E-14 -0.35527136788E-14  0.91188000000E+02  0.91188000000E+02 0.  0.
    9900012    2    3    3    0    0  0.21823618492E+02 -0.19828355990E+02 -0.22053240337E+02  0.54367089709E+02  0.40000012609E+02 0.  0.
        -12    1    3    3    0    0 -0.21823618492E+02  0.19828355990E+02  0.22053240337E+02  0.36820910291E+02  0.00000000000E+00 0.  1.
         11    1    4    4    0    0 -0.10260366287E+02 -0.64842147839E+01 -0.49741787792E+01  0.13117263911E+02  0.51100000000E-03 0. -1.
        -11    1    4    4    0    0  0.28382357239E+02 -0.15928929279E+02 -0.12630392053E+02  0.34911542419E+02  0.51100000000E-03 0.  1.
         12    1    4    4    0    0  0.37016275404E+01  0.25847880734E+01 -0.44486695045E+01  0.63382833790E+01  0.00000000000E+00 0. -1.
</event>
<event>
 8    1  0.2433390E-006  0.9118800E+02  0.7816164E-02  0.1184000E+00
        -11   -1    0    0    0    0  0.00000000000E+00  0.00000000000E+00  0.45593999997E+02  0.45594000000E+02  0.51100000000E-03 0. -1.
         11   -1    0    0    0    0 -0.00000000000E+00 -0.00000000000E+00 -0.45593999997E+02  0.45594000000E+02  0.51100000000E-03 0.  1.
         23    2    1    2    0    0  0.00000000000E+00 -0.44408920985E-15 -0.44408920985E-15  0.91188000000E+02  0.91188000000E+02 0.  0.
    9900012    2    3    3    0    0  0.36751641921E+02  0.21940154622E+01 -0.52883348868E+00  0.54367128845E+02  0.40000101828E+02 0.  0.
        -12    1    3    3    0    0 -0.36751641921E+02 -0.21940154622E+01  0.52883348868E+00  0.36820871155E+02  0.00000000000E+00 0.  1.
         11    1    4    4    0    0  0.27698172943E+02  0.32523969453E+01  0.71069433069E+01  0.28779776124E+02  0.51100000000E-03 0. -1.
        -11    1    4    4    0    0  0.53624807548E+01  0.61280956144E+01 -0.13387906710E+02  0.15669901149E+02  0.51100000000E-03 0.  1.
        -12    1    4    4    0    0  0.36909882230E+01 -0.71864770975E+01  0.57521299140E+01  0.99174515720E+01  0.00000000000E+00 0.  1.
</event>
<event>
 8    1  0.2433390E-006  0.9118800E+02  0.7816164E-02  0.1184000E+00
        -11   -1    0    0    0    0  0.00000000000E+00  0.00000000000E+00  0.45593999997E+02  0.45594000000E+02  0.51100000000E-03 0. -1.
         11   -1    0    0    0    0 -0.00000000000E+00 -0.00000000000E+00 -0.45593999997E+02  0.45594000000E+02  0.51100000000E-03 0.  1.
         23    2    1    2    0    0 -0.35527136788E-14  0.51868231932E-15  0.00000000000E+00  0.91188000000E+02  0.91188000000E+02 0.  0.
    9900012    2    3    3    0    0 -0.15864238621E+02  0.88374371831E-02 -0.33228075267E+02  0.54367093832E+02  0.40000022008E+02 0.  0.
         12    1    3    3    0    0  0.15864238621E+02 -0.88374371831E-02  0.33228075267E+02  0.36820906168E+02  0.00000000000E+00 0. -1.
         11    1    4    4    0    0  0.17794430824E+01  0.82234596613E+01 -0.75181159546E+00  0.84473029673E+01  0.51100000000E-03 0. -1.
        -11    1    4    4    0    0 -0.20372091679E+01  0.89820071137E+01 -0.83246347320E+01  0.12414758019E+02  0.51100000000E-03 0.  1.
        -12    1    4    4    0    0 -0.15606472535E+02 -0.17196629338E+02 -0.24151628939E+02  0.33505032846E+02  0.00000000000E+00 0.  1.
</event>
<event>
 8    1  0.2433390E-006  0.9118800E+02  0.7816164E-02  0.1184000E+00
        -11   -1    0    0    0    0  0.00000000000E+00  0.00000000000E+00  0.45593999997E+02  0.45594000000E+02  0.51100000000E-03 0.  1.
         11   -1    0    0    0    0 -0.00000000000E+00 -0.00000000000E+00 -0.45593999997E+02  0.45594000000E+02  0.51100000000E-03 0. -1.
         23    2    1    2    0    0  0.35527136788E-14 -0.71054273576E-14  0.00000000000E+00  0.91188000000E+02  0.91188000000E+02 0.  0.
    9900012    2    3    3    0    0 -0.19221605372E+02  0.29101324810E+02 -0.11807758806E+02  0.54367076780E+02  0.39999983135E+02 0.  0.
        -12    1    3    3    0    0  0.19221605372E+02 -0.29101324810E+02  0.11807758806E+02  0.36820923220E+02  0.00000000000E+00 0.  1.
         11    1    4    4    0    0 -0.65495775083E+01  0.82066259571E+01  0.15218937440E+01  0.10609516293E+02  0.51100000000E-03 0. -1.
        -11    1    4    4    0    0 -0.13704620717E+01  0.24873067974E+02  0.11821324299E+01  0.24938827440E+02  0.51100000000E-03 0.  1.
         12    1    4    4    0    0 -0.11301565792E+02 -0.39783691212E+01 -0.14511784980E+02  0.18818733048E+02  0.00000000000E+00 0. -1.
</event>
<event>
 8    1  0.2433390E-006  0.9118800E+02  0.7816164E-02  0.1184000E+00
        -11   -1    0    0    0    0  0.00000000000E+00  0.00000000000E+00  0.45593999997E+02  0.45594000000E+02  0.51100000000E-03 0. -1.
         11   -1    0    0    0    0 -0.00000000000E+00 -0.00000000000E+00 -0.45593999997E+02  0.45594000000E+02  0.51100000000E-03 0.  1.
         23    2    1    2    0    0 -0.71054273576E-14 -0.17763568394E-14  0.17763568394E-14  0.91188000000E+02  0.91188000000E+02 0.  0.
    9900012    2    3    3    0    0  0.33072435903E+02  0.11661362650E+02 -0.11225276655E+02  0.54367078890E+02  0.39999987945E+02 0.  0.
        -12    1    3    3    0    0 -0.33072435903E+02 -0.11661362650E+02  0.11225276655E+02  0.36820921110E+02  0.00000000000E+00 0.  1.
         11    1    4    4    0    0  0.16768299168E+02  0.15886575085E+02 -0.44582247334E+01  0.23525196980E+02  0.51100000000E-03 0. -1.
        -11    1    4    4    0    0  0.18371546853E+02 -0.34919061119E+01 -0.13950643517E+02  0.23330829322E+02  0.51100000000E-03 0.  1.
        -12    1    4    4    0    0 -0.20674101175E+01 -0.73330632282E+00  0.71835915956E+01  0.75110525873E+01  0.00000000000E+00 0.  1.
</event>
<event>
 8    1  0.2433390E-006  0.9118800E+02  0.7816164E-02  0.1184000E+00
        -11   -1    0    0    0    0  0.00000000000E+00  0.00000000000E+00  0.45593999997E+02  0.45594000000E+02  0.51100000000E-03 0.  1.
         11   -1    0    0    0    0 -0.00000000000E+00 -0.00000000000E+00 -0.45593999997E+02  0.45594000000E+02  0.51100000000E-03 0. -1.
         23    2    1    2    0    0 -0.88817841970E-15 -0.88817841970E-15  0.00000000000E+00  0.91188000000E+02  0.91188000000E+02 0.  0.
    9900012    2    3    3    0    0  0.47200279575E+01 -0.32220099507E+01 -0.36374722607E+02  0.54367075829E+02  0.39999980968E+02 0.  0.
        -12    1    3    3    0    0 -0.47200279575E+01  0.32220099507E+01  0.36374722607E+02  0.36820924171E+02  0.00000000000E+00 0.  1.
         11    1    4    4    0    0  0.80806809292E+01  0.51724725382E+01 -0.76035616629E+01  0.12241978053E+02  0.51100000000E-03 0. -1.
        -11    1    4    4    0    0  0.93631018663E+01  0.60387115537E+01 -0.13858325932E+02  0.17781645359E+02  0.51100000000E-03 0.  1.
        -12    1    4    4    0    0 -0.12723754838E+02 -0.14433194043E+02 -0.14912835013E+02  0.24343452417E+02  0.00000000000E+00 0.  1.
</event>
<event>
 8    1  0.2433390E-006  0.9118800E+02  0.7816164E-02  0.1184000E+00
        -11   -1    0    0    0    0  0.00000000000E+00  0.00000000000E+00  0.45593999997E+02  0.45594000000E+02  0.51100000000E-03 0.  1.
         11   -1    0    0    0    0 -0.00000000000E+00 -0.00000000000E+00 -0.45593999997E+02  0.45594000000E+02  0.51100000000E-03 0. -1.
         23    2    1    2    0    0  0.00000000000E+00  0.35527136788E-14  0.00000000000E+00  0.91188000000E+02  0.91188000000E+02 0.  0.
    9900012    2    3    3    0    0 -0.21748891393E+02 -0.25170059982E+02  0.15787157298E+02  0.54367074810E+02  0.39999978644E+02 0.  0.
        -12    1    3    3    0    0  0.21748891393E+02  0.25170059982E+02 -0.15787157298E+02  0.36820925190E+02  0.00000000000E+00 0.  1.
         11    1    4    4    0    0 -0.17081520351E+02 -0.29144749381E+02  0.11343241934E+02  0.35635149667E+02  0.51100000000E-03 0. -1.
        -11    1    4    4    0    0 -0.67823992836E+01  0.87165498894E+01 -0.11447330089E+01  0.11103584824E+02  0.51100000000E-03 0.  1.
        -12    1    4    4    0    0  0.21150282418E+01 -0.47418604906E+01  0.55886483734E+01  0.76283403187E+01  0.00000000000E+00 0.  1.
</event>
<event>
 8    1  0.2433390E-006  0.9118800E+02  0.7816164E-02  0.1184000E+00
        -11   -1    0    0    0    0  0.00000000000E+00  0.00000000000E+00  0.45593999997E+02  0.45594000000E+02  0.51100000000E-03 0. -1.
         11   -1    0    0    0    0 -0.00000000000E+00 -0.00000000000E+00 -0.45593999997E+02  0.45594000000E+02  0.51100000000E-03 0.  1.
         23    2    1    2    0    0 -0.88817841970E-15  0.00000000000E+00 -0.17763568394E-14  0.91188000000E+02  0.91188000000E+02 0.  0.
    9900012    2    3    3    0    0  0.21893344690E+01  0.34683096785E+02  0.12168400785E+02  0.54367077066E+02  0.39999983788E+02 0.  0.
        -12    1    3    3    0    0 -0.21893344690E+01 -0.34683096785E+02 -0.12168400785E+02  0.36820922934E+02  0.00000000000E+00 0.  1.
         11    1    4    4    0    0 -0.12268064837E+02  0.56653765843E+01  0.74026037941E+01  0.15407804836E+02  0.51100000000E-03 0. -1.
        -11    1    4    4    0    0 -0.27079655882E+01  0.12163971942E+02  0.78167265725E+01  0.14710421666E+02  0.51100000000E-03 0.  1.
        -12    1    4    4    0    0  0.17165364894E+02  0.16853748259E+02 -0.30509295821E+01  0.24248850563E+02  0.00000000000E+00 0.  1.
</event>
<event>
 8    1  0.2433390E-006  0.9118800E+02  0.7816164E-02  0.1184000E+00
        -11   -1    0    0    0    0  0.00000000000E+00  0.00000000000E+00  0.45593999997E+02  0.45594000000E+02  0.51100000000E-03 0. -1.
         11   -1    0    0    0    0 -0.00000000000E+00 -0.00000000000E+00 -0.45593999997E+02  0.45594000000E+02  0.51100000000E-03 0.  1.
         23    2    1    2    0    0 -0.88817841970E-15  0.00000000000E+00 -0.17763568394E-14  0.91188000000E+02  0.91188000000E+02 0.  0.
    9900012    2    3    3    0    0 -0.78921746444E+01 -0.34212669627E+02  0.11089900163E+02  0.54367094671E+02  0.40000023921E+02 0.  0.
         12    1    3    3    0    0  0.78921746444E+01  0.34212669627E+02 -0.11089900163E+02  0.36820905329E+02  0.00000000000E+00 0. -1.
         11    1    4    4    0    0  0.59421345772E+00  0.44604593747E+01 -0.16041732602E+01  0.47772543973E+01  0.51100000000E-03 0. -1.
        -11    1    4    4    0    0 -0.77512309950E+01 -0.29318157938E+02 -0.38508804932E+01  0.30569024316E+02  0.51100000000E-03 0.  1.
        -12    1    4    4    0    0 -0.73515710718E+00 -0.93549710642E+01  0.16544953916E+02  0.19020815957E+02  0.00000000000E+00 0.  1.
</event>
<event>
 8    1  0.2433390E-006  0.9118800E+02  0.7816164E-02  0.1184000E+00
        -11   -1    0    0    0    0  0.00000000000E+00  0.00000000000E+00  0.45593999997E+02  0.45594000000E+02  0.51100000000E-03 0.  1.
         11   -1    0    0    0    0 -0.00000000000E+00 -0.00000000000E+00 -0.45593999997E+02  0.45594000000E+02  0.51100000000E-03 0. -1.
         23    2    1    2    0    0 -0.11102230246E-15  0.00000000000E+00  0.00000000000E+00  0.91188000000E+02  0.91188000000E+02 0.  0.
    9900012    2    3    3    0    0 -0.44472612120E+00 -0.35620543264E+02 -0.93149007906E+01  0.54366969861E+02  0.39999739391E+02 0.  0.
        -12    1    3    3    0    0  0.44472612120E+00  0.35620543264E+02  0.93149007906E+01  0.36821030139E+02  0.00000000000E+00 0.  1.
         11    1    4    4    0    0  0.72493220901E+00 -0.40007459136E+02  0.11408070272E+00  0.40014189082E+02  0.51100000000E-03 0. -1.
        -11    1    4    4    0    0 -0.25963211451E+01 -0.39603136642E+00  0.98460567865E+00  0.28048481127E+01  0.51100000000E-03 0.  1.
         12    1    4    4    0    0  0.14266628148E+01  0.47829472381E+01 -0.10413587172E+02  0.11547932666E+02  0.00000000000E+00 0. -1.
</event>
<event>
 8    1  0.2433390E-006  0.9118800E+02  0.7816164E-02  0.1184000E+00
        -11   -1    0    0    0    0  0.00000000000E+00  0.00000000000E+00  0.45593999997E+02  0.45594000000E+02  0.51100000000E-03 0.  1.
         11   -1    0    0    0    0 -0.00000000000E+00 -0.00000000000E+00 -0.45593999997E+02  0.45594000000E+02  0.51100000000E-03 0. -1.
         23    2    1    2    0    0 -0.17763568394E-14 -0.35527136788E-14 -0.35527136788E-14  0.91188000000E+02  0.91188000000E+02 0.  0.
    9900012    2    3    3    0    0  0.99268005473E+01  0.24081830386E+02  0.26025051777E+02  0.54367092300E+02  0.40000018516E+02 0.  0.
         12    1    3    3    0    0 -0.99268005473E+01 -0.24081830386E+02 -0.26025051777E+02  0.36820907700E+02  0.00000000000E+00 0. -1.
         11    1    4    4    0    0 -0.75777607180E+01  0.16548941005E+00  0.87928253739E-01  0.75800775645E+01  0.51100000000E-03 0. -1.
        -11    1    4    4    0    0 -0.13923320704E+01 -0.30474765448E+00  0.13611689341E+02  0.13686107800E+02  0.51100000000E-03 0.  1.
         12    1    4    4    0    0  0.18896893336E+02  0.24221088630E+02  0.12325434183E+02  0.33100906936E+02  0.00000000000E+00 0. -1.
</event>
<event>
 8    1  0.2433390E-006  0.9118800E+02  0.7816164E-02  0.1184000E+00
        -11   -1    0    0    0    0  0.00000000000E+00  0.00000000000E+00  0.45593999997E+02  0.45594000000E+02  0.51100000000E-03 0.  1.
         11   -1    0    0    0    0 -0.00000000000E+00 -0.00000000000E+00 -0.45593999997E+02  0.45594000000E+02  0.51100000000E-03 0. -1.
         23    2    1    2    0    0  0.00000000000E+00  0.17763568394E-14 -0.26645352591E-14  0.91188000000E+02  0.91188000000E+02 0.  0.
    9900012    2    3    3    0    0 -0.34582598508E+02  0.11980246036E+02 -0.40371406548E+01  0.54367069549E+02  0.39999966650E+02 0.  0.
        -12    1    3    3    0    0  0.34582598508E+02 -0.11980246036E+02  0.40371406548E+01  0.36820930451E+02  0.00000000000E+00 0.  1.
         11    1    4    4    0    0 -0.18759566474E+02  0.11389925356E+02  0.35548217529E+01  0.22232599755E+02  0.51100000000E-03 0. -1.
        -11    1    4    4    0    0 -0.71784286144E+01 -0.15373416420E+01  0.10007523187E+02  0.12411437358E+02  0.51100000000E-03 0.  1.
         12    1    4    4    0    0 -0.86446034198E+01  0.21276623220E+01 -0.17599485595E+02  0.19723032436E+02  0.00000000000E+00 0. -1.
</event>
<event>
 8    1  0.2433390E-006  0.9118800E+02  0.7816164E-02  0.1184000E+00
        -11   -1    0    0    0    0  0.00000000000E+00  0.00000000000E+00  0.45593999997E+02  0.45594000000E+02  0.51100000000E-03 0.  1.
         11   -1    0    0    0    0 -0.00000000000E+00 -0.00000000000E+00 -0.45593999997E+02  0.45594000000E+02  0.51100000000E-03 0. -1.
         23    2    1    2    0    0 -0.17763568394E-14 -0.71054273576E-14  0.17763568394E-14  0.91188000000E+02  0.91188000000E+02 0.  0.
    9900012    2    3    3    0    0  0.10384182096E+02  0.34174871922E+02 -0.89458142968E+01  0.54367072498E+02  0.39999973373E+02 0.  0.
        -12    1    3    3    0    0 -0.10384182096E+02 -0.34174871922E+02  0.89458142968E+01  0.36820927502E+02  0.00000000000E+00 0.  1.
         11    1    4    4    0    0  0.45935026519E+01 -0.22754221708E+01 -0.33168921505E+01  0.61057011446E+01  0.51100000000E-03 0. -1.
        -11    1    4    4    0    0  0.10899884566E+02  0.40146682477E+02 -0.54214926233E+01  0.41951831665E+02  0.51100000000E-03 0.  1.
         12    1    4    4    0    0 -0.51092051226E+01 -0.36963883843E+01 -0.20742952296E+00  0.63095396884E+01  0.00000000000E+00 0. -1.
</event>
<event>
 8    1  0.2433390E-006  0.9118800E+02  0.7816164E-02  0.1184000E+00
        -11   -1    0    0    0    0  0.00000000000E+00  0.00000000000E+00  0.45593999997E+02  0.45594000000E+02  0.51100000000E-03 0. -1.
         11   -1    0    0    0    0 -0.00000000000E+00 -0.00000000000E+00 -0.45593999997E+02  0.45594000000E+02  0.51100000000E-03 0.  1.
         23    2    1    2    0    0  0.22204460493E-15 -0.35527136788E-14  0.00000000000E+00  0.91188000000E+02  0.91188000000E+02 0.  0.
    9900012    2    3    3    0    0  0.44505731939E+00  0.10751113941E+01 -0.36802527592E+02  0.54367082335E+02  0.39999995799E+02 0.  0.
         12    1    3    3    0    0 -0.44505731939E+00 -0.10751113941E+01  0.36802527592E+02  0.36820917665E+02  0.00000000000E+00 0. -1.
         11    1    4    4    0    0 -0.90712595458E+01 -0.15534743496E+02 -0.16294935214E+02  0.24272225261E+02  0.51100000000E-03 0. -1.
        -11    1    4    4    0    0  0.93626164539E+01  0.14197236522E+02 -0.21558454900E+02  0.27458825351E+02  0.51100000000E-03 0.  1.
         12    1    4    4    0    0  0.15370041131E+00  0.24126183677E+01  0.10508625217E+01  0.26360317229E+01  0.00000000000E+00 0. -1.
</event>
<event>
 8    1  0.2433390E-006  0.9118800E+02  0.7816164E-02  0.1184000E+00
        -11   -1    0    0    0    0  0.00000000000E+00  0.00000000000E+00  0.45593999997E+02  0.45594000000E+02  0.51100000000E-03 0. -1.
         11   -1    0    0    0    0 -0.00000000000E+00 -0.00000000000E+00 -0.45593999997E+02  0.45594000000E+02  0.51100000000E-03 0.  1.
         23    2    1    2    0    0  0.00000000000E+00  0.35527136788E-14  0.00000000000E+00  0.91188000000E+02  0.91188000000E+02 0.  0.
    9900012    2    3    3    0    0 -0.11886396978E+02 -0.29584183616E+02 -0.18419255329E+02  0.54367091263E+02  0.40000016151E+02 0.  0.
         12    1    3    3    0    0  0.11886396978E+02  0.29584183616E+02  0.18419255329E+02  0.36820908737E+02  0.00000000000E+00 0. -1.
         11    1    4    4    0    0  0.56776874069E+01 -0.26218189668E+00 -0.15441915053E+01  0.58897709041E+01  0.51100000000E-03 0. -1.
        -11    1    4    4    0    0  0.17245219759E+01 -0.20093350826E+02  0.15838453582E+01  0.20229317582E+02  0.51100000000E-03 0.  1.
        -12    1    4    4    0    0 -0.19288606360E+02 -0.92286508937E+01 -0.18458909182E+02  0.28248002776E+02  0.00000000000E+00 0.  1.
</event>
<event>
 8    1  0.2433390E-006  0.9118800E+02  0.7816164E-02  0.1184000E+00
        -11   -1    0    0    0    0  0.00000000000E+00  0.00000000000E+00  0.45593999997E+02  0.45594000000E+02  0.51100000000E-03 0. -1.
         11   -1    0    0    0    0 -0.00000000000E+00 -0.00000000000E+00 -0.45593999997E+02  0.45594000000E+02  0.51100000000E-03 0.  1.
         23    2    1    2    0    0 -0.12212453271E-14  0.15543122345E-14  0.00000000000E+00  0.91188000000E+02  0.91188000000E+02 0.  0.
    9900012    2    3    3    0    0  0.30482733079E+00  0.16724325748E+01 -0.36781635131E+02  0.54367100590E+02  0.40000037415E+02 0.  0.
         12    1    3    3    0    0 -0.30482733079E+00 -0.16724325748E+01  0.36781635131E+02  0.36820899410E+02  0.00000000000E+00 0. -1.
         11    1    4    4    0    0  0.87665291610E+01  0.10355362977E+02 -0.44277668521E+01  0.14272024925E+02  0.51100000000E-03 0. -1.
        -11    1    4    4    0    0 -0.54082767325E+01  0.53189289121E+01 -0.46317193794E+01  0.88878167543E+01  0.51100000000E-03 0.  1.
        -12    1    4    4    0    0 -0.30534250977E+01 -0.14001859314E+02 -0.27722148900E+02  0.31207258910E+02  0.00000000000E+00 0.  1.
</event>
<event>
 8    1  0.2433390E-006  0.9118800E+02  0.7816164E-02  0.1184000E+00
        -11   -1    0    0    0    0  0.00000000000E+00  0.00000000000E+00  0.45593999997E+02  0.45594000000E+02  0.51100000000E-03 0. -1.
         11   -1    0    0    0    0 -0.00000000000E+00 -0.00000000000E+00 -0.45593999997E+02  0.45594000000E+02  0.51100000000E-03 0.  1.
         23    2    1    2    0    0  0.00000000000E+00  0.00000000000E+00  0.00000000000E+00  0.91188000000E+02  0.91188000000E+02 0.  0.
    9900012    2    3    3    0    0  0.19973151002E+02  0.29037276734E+02  0.10662523175E+02  0.54367087443E+02  0.40000007445E+02 0.  0.
         12    1    3    3    0    0 -0.19973151002E+02 -0.29037276734E+02 -0.10662523175E+02  0.36820912557E+02  0.00000000000E+00 0. -1.
         11    1    4    4    0    0 -0.47501140568E+00 -0.51579621874E+01  0.75982854981E+00  0.52352220056E+01  0.51100000000E-03 0. -1.
        -11    1    4    4    0    0  0.75623007649E+01  0.51991311154E+01 -0.84511087012E+01  0.12475600016E+02  0.51100000000E-03 0.  1.
        -12    1    4    4    0    0  0.12885861642E+02  0.28996107806E+02  0.18353803327E+02  0.36656265422E+02  0.00000000000E+00 0.  1.
</event>
<event>
 8    1  0.2433390E-006  0.9118800E+02  0.7816164E-02  0.1184000E+00
        -11   -1    0    0    0    0  0.00000000000E+00  0.00000000000E+00  0.45593999997E+02  0.45594000000E+02  0.51100000000E-03 0.  1.
         11   -1    0    0    0    0 -0.00000000000E+00 -0.00000000000E+00 -0.45593999997E+02  0.45594000000E+02  0.51100000000E-03 0. -1.
         23    2    1    2    0    0  0.17763568394E-14  0.00000000000E+00  0.00000000000E+00  0.91188000000E+02  0.91188000000E+02 0.  0.
    9900012    2    3    3    0    0 -0.89908647655E+01 -0.10566428385E+02  0.34107116603E+02  0.54367075772E+02  0.39999980837E+02 0.  0.
         12    1    3    3    0    0  0.89908647655E+01  0.10566428385E+02 -0.34107116603E+02  0.36820924228E+02  0.00000000000E+00 0. -1.
         11    1    4    4    0    0 -0.48685174072E+01  0.54027152983E+01  0.10401711470E+00  0.72734183270E+01  0.51100000000E-03 0. -1.
        -11    1    4    4    0    0 -0.11903503809E+02  0.28064609057E+01  0.11832026734E+02  0.17016653098E+02  0.51100000000E-03 0.  1.
        -12    1    4    4    0    0  0.77811564511E+01 -0.18775604589E+02  0.22171072755E+02  0.30077004347E+02  0.00000000000E+00 0.  1.
</event>
<event>
 8    1  0.2433390E-006  0.9118800E+02  0.7816164E-02  0.1184000E+00
        -11   -1    0    0    0    0  0.00000000000E+00  0.00000000000E+00  0.45593999997E+02  0.45594000000E+02  0.51100000000E-03 0.  1.
         11   -1    0    0    0    0 -0.00000000000E+00 -0.00000000000E+00 -0.45593999997E+02  0.45594000000E+02  0.51100000000E-03 0. -1.
         23    2    1    2    0    0  0.00000000000E+00  0.00000000000E+00  0.44408920985E-15  0.91188000000E+02  0.91188000000E+02 0.  0.
    9900012    2    3    3    0    0 -0.26253030446E+02  0.25679693630E+02 -0.26667942246E+01  0.54367081163E+02  0.39999993128E+02 0.  0.
         12    1    3    3    0    0  0.26253030446E+02 -0.25679693630E+02  0.26667942246E+01  0.36820918837E+02  0.00000000000E+00 0. -1.
         11    1    4    4    0    0  0.51480877831E+01  0.11069861801E+01  0.65550827687E+01  0.84081708231E+01  0.51100000000E-03 0.  1.
        -11    1    4    4    0    0 -0.19632909924E+02  0.24602472067E+01 -0.19867074354E+01  0.19885949188E+02  0.51100000000E-03 0. -1.
        -12    1    4    4    0    0 -0.11768208305E+02  0.22112460243E+02 -0.72351695579E+01  0.26072961152E+02  0.00000000000E+00 0.  1.
</event>
<event>
 8    1  0.2433390E-006  0.9118800E+02  0.7816164E-02  0.1184000E+00
        -11   -1    0    0    0    0  0.00000000000E+00  0.00000000000E+00  0.45593999997E+02  0.45594000000E+02  0.51100000000E-03 0. -1.
         11   -1    0    0    0    0 -0.00000000000E+00 -0.00000000000E+00 -0.45593999997E+02  0.45594000000E+02  0.51100000000E-03 0.  1.
         23    2    1    2    0    0  0.00000000000E+00 -0.88817841970E-15  0.00000000000E+00  0.91188000000E+02  0.91188000000E+02 0.  0.
    9900012    2    3    3    0    0  0.32371998801E+02 -0.70571502785E+01  0.16063316127E+02  0.54367084728E+02  0.40000001255E+02 0.  0.
        -12    1    3    3    0    0 -0.32371998801E+02  0.70571502785E+01 -0.16063316127E+02  0.36820915272E+02  0.00000000000E+00 0.  1.
         11    1    4    4    0    0  0.36046985198E+00  0.23588937210E-01  0.47787341321E+01  0.47923684247E+01  0.51100000000E-03 0. -1.
        -11    1    4    4    0    0  0.15968149432E+02 -0.96338154790E+01  0.22952283900E+02  0.29573629021E+02  0.51100000000E-03 0.  1.
        -12    1    4    4    0    0  0.16043379517E+02  0.25530762633E+01 -0.11667701905E+02  0.20001087283E+02  0.00000000000E+00 0.  1.
</event>
<event>
 8    1  0.2433390E-006  0.9118800E+02  0.7816164E-02  0.1184000E+00
        -11   -1    0    0    0    0  0.00000000000E+00  0.00000000000E+00  0.45593999997E+02  0.45594000000E+02  0.51100000000E-03 0. -1.
         11   -1    0    0    0    0 -0.00000000000E+00 -0.00000000000E+00 -0.45593999997E+02  0.45594000000E+02  0.51100000000E-03 0.  1.
         23    2    1    2    0    0  0.00000000000E+00 -0.88817841970E-15  0.00000000000E+00  0.91188000000E+02  0.91188000000E+02 0.  0.
    9900012    2    3    3    0    0  0.10147138205E+02  0.78754816691E+01 -0.34507824314E+02  0.54367115109E+02  0.40000070515E+02 0.  0.
         12    1    3    3    0    0 -0.10147138205E+02 -0.78754816691E+01  0.34507824314E+02  0.36820884891E+02  0.00000000000E+00 0. -1.
         11    1    4    4    0    0  0.55758327348E+01 -0.15247947512E+01  0.25713346455E+01  0.63266635630E+01  0.51100000000E-03 0. -1.
        -11    1    4    4    0    0  0.13361088031E+02  0.83311939759E-01 -0.64414649464E+01  0.14833006613E+02  0.51100000000E-03 0.  1.
        -12    1    4    4    0    0 -0.87897825613E+01  0.93169644805E+01 -0.30637694013E+02  0.33207444934E+02  0.00000000000E+00 0.  1.
</event>
<event>
 8    1  0.2433390E-006  0.9118800E+02  0.7816164E-02  0.1184000E+00
        -11   -1    0    0    0    0  0.00000000000E+00  0.00000000000E+00  0.45593999997E+02  0.45594000000E+02  0.51100000000E-03 0.  1.
         11   -1    0    0    0    0 -0.00000000000E+00 -0.00000000000E+00 -0.45593999997E+02  0.45594000000E+02  0.51100000000E-03 0. -1.
         23    2    1    2    0    0 -0.71054273576E-14  0.17763568394E-14 -0.35527136788E-14  0.91188000000E+02  0.91188000000E+02 0.  0.
    9900012    2    3    3    0    0  0.19466089803E+02 -0.34695838521E+01  0.31061449904E+02  0.54367077490E+02  0.39999984755E+02 0.  0.
         12    1    3    3    0    0 -0.19466089803E+02  0.34695838521E+01 -0.31061449904E+02  0.36820922510E+02  0.00000000000E+00 0. -1.
         11    1    4    4    0    0  0.53395655486E+01 -0.10258029940E+02  0.15918109372E+02  0.19675475718E+02  0.51100000000E-03 0. -1.
        -11    1    4    4    0    0 -0.19398217279E+01 -0.82325347893E+01  0.77947016440E+01  0.11501952503E+02  0.51100000000E-03 0.  1.
         12    1    4    4    0    0  0.16066345982E+02  0.15020980877E+02  0.73486388880E+01  0.23189649269E+02  0.00000000000E+00 0. -1.
</event>
<event>
 8    1  0.2433390E-006  0.9118800E+02  0.7816164E-02  0.1184000E+00
        -11   -1    0    0    0    0  0.00000000000E+00  0.00000000000E+00  0.45593999997E+02  0.45594000000E+02  0.51100000000E-03 0.  1.
         11   -1    0    0    0    0 -0.00000000000E+00 -0.00000000000E+00 -0.45593999997E+02  0.45594000000E+02  0.51100000000E-03 0. -1.
         23    2    1    2    0    0  0.88817841970E-15 -0.17763568394E-14  0.71054273576E-14  0.91188000000E+02  0.91188000000E+02 0.  0.
    9900012    2    3    3    0    0  0.49016010343E+01  0.15519062070E+02 -0.33028995373E+02  0.54367061452E+02  0.39999948192E+02 0.  0.
        -12    1    3    3    0    0 -0.49016010343E+01 -0.15519062070E+02  0.33028995373E+02  0.36820938548E+02  0.00000000000E+00 0.  1.
         11    1    4    4    0    0 -0.19332814252E+00 -0.28528577189E+01 -0.11608264461E+01  0.30860478340E+01  0.51100000000E-03 0. -1.
        -11    1    4    4    0    0 -0.42598108066E+01  0.77493064265E+01  0.61115882156E+01  0.10749383656E+02  0.51100000000E-03 0.  1.
        -12    1    4    4    0    0  0.93547399834E+01  0.10622613363E+02 -0.37979757142E+02  0.40531629962E+02  0.00000000000E+00 0.  1.
</event>
<event>
 8    1  0.2433390E-006  0.9118800E+02  0.7816164E-02  0.1184000E+00
        -11   -1    0    0    0    0  0.00000000000E+00  0.00000000000E+00  0.45593999997E+02  0.45594000000E+02  0.51100000000E-03 0. -1.
         11   -1    0    0    0    0 -0.00000000000E+00 -0.00000000000E+00 -0.45593999997E+02  0.45594000000E+02  0.51100000000E-03 0.  1.
         23    2    1    2    0    0  0.00000000000E+00  0.00000000000E+00 -0.35527136788E-14  0.91188000000E+02  0.91188000000E+02 0.  0.
    9900012    2    3    3    0    0 -0.13118039301E+02  0.29002720721E+02  0.18507803064E+02  0.54367088298E+02  0.40000009392E+02 0.  0.
        -12    1    3    3    0    0  0.13118039301E+02 -0.29002720721E+02 -0.18507803064E+02  0.36820911702E+02  0.00000000000E+00 0.  1.
         11    1    4    4    0    0 -0.52810627536E+01  0.19947772145E+02  0.51596285648E+01  0.21270284543E+02  0.51100000000E-03 0. -1.
        -11    1    4    4    0    0  0.21564027066E+00 -0.16252975458E+01  0.18640199494E+02  0.18712165302E+02  0.51100000000E-03 0.  1.
         12    1    4    4    0    0 -0.80526168182E+01  0.10680246122E+02 -0.52920249954E+01  0.14384638452E+02  0.00000000000E+00 0. -1.
</event>
<event>
 8    1  0.2433390E-006  0.9118800E+02  0.7816164E-02  0.1184000E+00
        -11   -1    0    0    0    0  0.00000000000E+00  0.00000000000E+00  0.45593999997E+02  0.45594000000E+02  0.51100000000E-03 0.  1.
         11   -1    0    0    0    0 -0.00000000000E+00 -0.00000000000E+00 -0.45593999997E+02  0.45594000000E+02  0.51100000000E-03 0. -1.
         23    2    1    2    0    0 -0.10658141036E-13  0.00000000000E+00  0.35527136788E-14  0.91188000000E+02  0.91188000000E+02 0.  0.
    9900012    2    3    3    0    0  0.31933711187E+02 -0.53321264612E+01 -0.17538067752E+02  0.54367118652E+02  0.40000078591E+02 0.  0.
        -12    1    3    3    0    0 -0.31933711187E+02  0.53321264612E+01  0.17538067752E+02  0.36820881348E+02  0.00000000000E+00 0.  1.
         11    1    4    4    0    0 -0.29125408769E+01 -0.53814199046E+01 -0.11064797503E+02  0.12644062583E+02  0.51100000000E-03 0. -1.
        -11    1    4    4    0    0 -0.30350947303E+01  0.11957505419E+00  0.81946928833E+00  0.31460496486E+01  0.51100000000E-03 0.  1.
        -12    1    4    4    0    0  0.37881346794E+02 -0.70281610765E-01 -0.72927395369E+01  0.38577006421E+02  0.00000000000E+00 0.  1.
</event>
<event>
 8    1  0.2433390E-006  0.9118800E+02  0.7816164E-02  0.1184000E+00
        -11   -1    0    0    0    0  0.00000000000E+00  0.00000000000E+00  0.45593999997E+02  0.45594000000E+02  0.51100000000E-03 0.  1.
         11   -1    0    0    0    0 -0.00000000000E+00 -0.00000000000E+00 -0.45593999997E+02  0.45594000000E+02  0.51100000000E-03 0. -1.
         23    2    1    2    0    0  0.00000000000E+00  0.00000000000E+00 -0.35527136788E-14  0.91188000000E+02  0.91188000000E+02 0.  0.
    9900012    2    3    3    0    0 -0.18341341853E+02  0.25903968936E+02 -0.18664378259E+02  0.54367089591E+02  0.40000012340E+02 0.  0.
        -12    1    3    3    0    0  0.18341341853E+02 -0.25903968936E+02  0.18664378259E+02  0.36820910409E+02  0.00000000000E+00 0.  1.
         11    1    4    4    0    0  0.34887490875E+01  0.89364925534E+00  0.14422045888E+00  0.36042723244E+01  0.51100000000E-03 0. -1.
        -11    1    4    4    0    0 -0.96489405297E+01  0.14779526108E+01  0.83304451020E+01  0.12832876261E+02  0.51100000000E-03 0.  1.
         12    1    4    4    0    0 -0.12181150410E+02  0.23532367069E+02 -0.27139043820E+02  0.37929941005E+02  0.00000000000E+00 0. -1.
</event>
<event>
 8    1  0.2433390E-006  0.9118800E+02  0.7816164E-02  0.1184000E+00
        -11   -1    0    0    0    0  0.00000000000E+00  0.00000000000E+00  0.45593999997E+02  0.45594000000E+02  0.51100000000E-03 0. -1.
         11   -1    0    0    0    0 -0.00000000000E+00 -0.00000000000E+00 -0.45593999997E+02  0.45594000000E+02  0.51100000000E-03 0.  1.
         23    2    1    2    0    0 -0.35527136788E-14 -0.66613381478E-15  0.00000000000E+00  0.91188000000E+02  0.91188000000E+02 0.  0.
    9900012    2    3    3    0    0 -0.28787370548E+02 -0.98825840608E+00 -0.22936630493E+02  0.54367104084E+02  0.40000045379E+02 0.  0.
         12    1    3    3    0    0  0.28787370548E+02  0.98825840608E+00  0.22936630493E+02  0.36820895916E+02  0.00000000000E+00 0. -1.
         11    1    4    4    0    0 -0.85640188156E+01 -0.10204903603E+02 -0.44745302078E+01  0.14053607959E+02  0.51100000000E-03 0. -1.
        -11    1    4    4    0    0 -0.63625646119E+01 -0.61673656246E+01  0.40356062385E+01  0.97367728309E+01  0.51100000000E-03 0.  1.
        -12    1    4    4    0    0 -0.13860787120E+02  0.15384010822E+02 -0.22497706523E+02  0.30576723294E+02  0.00000000000E+00 0.  1.
</event>
<event>
 8    1  0.2433390E-006  0.9118800E+02  0.7816164E-02  0.1184000E+00
        -11   -1    0    0    0    0  0.00000000000E+00  0.00000000000E+00  0.45593999997E+02  0.45594000000E+02  0.51100000000E-03 0. -1.
         11   -1    0    0    0    0 -0.00000000000E+00 -0.00000000000E+00 -0.45593999997E+02  0.45594000000E+02  0.51100000000E-03 0.  1.
         23    2    1    2    0    0  0.00000000000E+00  0.00000000000E+00  0.00000000000E+00  0.91188000000E+02  0.91188000000E+02 0.  0.
    9900012    2    3    3    0    0 -0.97253274999E+01 -0.35363204976E+02  0.32619243218E+01  0.54367103604E+02  0.40000044286E+02 0.  0.
        -12    1    3    3    0    0  0.97253274999E+01  0.35363204976E+02 -0.32619243218E+01  0.36820896396E+02  0.00000000000E+00 0.  1.
         11    1    4    4    0    0 -0.43480647694E+01  0.18926563598E+01  0.23608537357E+01  0.52973055375E+01  0.51100000000E-03 0. -1.
        -11    1    4    4    0    0 -0.83397639881E+01  0.27314457506E+01  0.18198183208E+01  0.89623768191E+01  0.51100000000E-03 0.  1.
        -12    1    4    4    0    0  0.29625012576E+01 -0.39987307086E+02 -0.91874773467E+00  0.40107421247E+02  0.00000000000E+00 0.  1.
</event>
<event>
 8    1  0.2433390E-006  0.9118800E+02  0.7816164E-02  0.1184000E+00
        -11   -1    0    0    0    0  0.00000000000E+00  0.00000000000E+00  0.45593999997E+02  0.45594000000E+02  0.51100000000E-03 0.  1.
         11   -1    0    0    0    0 -0.00000000000E+00 -0.00000000000E+00 -0.45593999997E+02  0.45594000000E+02  0.51100000000E-03 0. -1.
         23    2    1    2    0    0  0.00000000000E+00 -0.35527136788E-14 -0.35527136788E-14  0.91188000000E+02  0.91188000000E+02 0.  0.
    9900012    2    3    3    0    0 -0.14676687226E+02 -0.22910259984E+02  0.24809093072E+02  0.54367132825E+02  0.40000110901E+02 0.  0.
         12    1    3    3    0    0  0.14676687226E+02  0.22910259984E+02 -0.24809093072E+02  0.36820867175E+02  0.00000000000E+00 0. -1.
         11    1    4    4    0    0 -0.14634556378E+02 -0.15909576809E+02 -0.84315014096E+00  0.21633210049E+02  0.51100000000E-03 0. -1.
        -11    1    4    4    0    0 -0.13776668622E+01 -0.13050483771E+02  0.21779786694E+02  0.25427784043E+02  0.51100000000E-03 0.  1.
         12    1    4    4    0    0  0.13355360137E+01  0.60498005959E+01  0.38724565189E+01  0.73061387329E+01  0.00000000000E+00 0. -1.
</event>
<event>
 8    1  0.2433390E-006  0.9118800E+02  0.7816164E-02  0.1184000E+00
        -11   -1    0    0    0    0  0.00000000000E+00  0.00000000000E+00  0.45593999997E+02  0.45594000000E+02  0.51100000000E-03 0.  1.
         11   -1    0    0    0    0 -0.00000000000E+00 -0.00000000000E+00 -0.45593999997E+02  0.45594000000E+02  0.51100000000E-03 0. -1.
         23    2    1    2    0    0  0.00000000000E+00  0.71054273576E-14 -0.53290705182E-14  0.91188000000E+02  0.91188000000E+02 0.  0.
    9900012    2    3    3    0    0 -0.98075064845E+01  0.34399141547E+02 -0.87344683986E+01  0.54367094786E+02  0.40000024183E+02 0.  0.
         12    1    3    3    0    0  0.98075064845E+01 -0.34399141547E+02  0.87344683986E+01  0.36820905214E+02  0.00000000000E+00 0. -1.
         11    1    4    4    0    0 -0.14870991505E+02  0.16563517810E+02  0.10782701055E+02  0.24733846302E+02  0.51100000000E-03 0. -1.
        -11    1    4    4    0    0 -0.12363499908E+01  0.25115785604E+01  0.12506339368E+01  0.30660518048E+01  0.51100000000E-03 0.  1.
         12    1    4    4    0    0  0.62998350111E+01  0.15324045176E+02 -0.20767803390E+02  0.26567196679E+02  0.00000000000E+00 0. -1.
</event>
<event>
 8    1  0.2433390E-006  0.9118800E+02  0.7816164E-02  0.1184000E+00
        -11   -1    0    0    0    0  0.00000000000E+00  0.00000000000E+00  0.45593999997E+02  0.45594000000E+02  0.51100000000E-03 0. -1.
         11   -1    0    0    0    0 -0.00000000000E+00 -0.00000000000E+00 -0.45593999997E+02  0.45594000000E+02  0.51100000000E-03 0.  1.
         23    2    1    2    0    0 -0.17763568394E-14  0.00000000000E+00  0.00000000000E+00  0.91188000000E+02  0.91188000000E+02 0.  0.
    9900012    2    3    3    0    0  0.13031021154E+02  0.16645545455E+02 -0.30147931962E+02  0.54367088857E+02  0.40000010668E+02 0.  0.
         12    1    3    3    0    0 -0.13031021154E+02 -0.16645545455E+02  0.30147931962E+02  0.36820911143E+02  0.00000000000E+00 0. -1.
         11    1    4    4    0    0 -0.54995417631E+01 -0.81368729170E+00 -0.99024329620E+01  0.11356285724E+02  0.51100000000E-03 0. -1.
        -11    1    4    4    0    0  0.10509528589E+01  0.74480996914E+00 -0.18734533315E+02  0.18778764139E+02  0.51100000000E-03 0.  1.
         12    1    4    4    0    0  0.17479610058E+02  0.16714422777E+02 -0.15109656853E+01  0.24232038995E+02  0.00000000000E+00 0. -1.
</event>
<event>
 8    1  0.2433390E-006  0.9118800E+02  0.7816164E-02  0.1184000E+00
        -11   -1    0    0    0    0  0.00000000000E+00  0.00000000000E+00  0.45593999997E+02  0.45594000000E+02  0.51100000000E-03 0.  1.
         11   -1    0    0    0    0 -0.00000000000E+00 -0.00000000000E+00 -0.45593999997E+02  0.45594000000E+02  0.51100000000E-03 0. -1.
         23    2    1    2    0    0  0.00000000000E+00  0.17763568394E-14  0.00000000000E+00  0.91188000000E+02  0.91188000000E+02 0.  0.
    9900012    2    3    3    0    0 -0.28490548718E+02 -0.14287884002E+02 -0.18437047206E+02  0.54367086035E+02  0.40000004234E+02 0.  0.
         12    1    3    3    0    0  0.28490548718E+02  0.14287884002E+02  0.18437047206E+02  0.36820913965E+02  0.00000000000E+00 0. -1.
         11    1    4    4    0    0 -0.80380516735E+01  0.37182258731E+01 -0.87441035674E+01  0.12445674984E+02  0.51100000000E-03 0. -1.
        -11    1    4    4    0    0 -0.17945201939E+02 -0.25226096117E+02 -0.13021756148E+02  0.33585001584E+02  0.51100000000E-03 0.  1.
        -12    1    4    4    0    0 -0.25072951060E+01  0.72199862424E+01  0.33288125091E+01  0.83364094675E+01  0.00000000000E+00 0.  1.
</event>
<event>
 8    1  0.2433390E-006  0.9118800E+02  0.7816164E-02  0.1184000E+00
        -11   -1    0    0    0    0  0.00000000000E+00  0.00000000000E+00  0.45593999997E+02  0.45594000000E+02  0.51100000000E-03 0. -1.
         11   -1    0    0    0    0 -0.00000000000E+00 -0.00000000000E+00 -0.45593999997E+02  0.45594000000E+02  0.51100000000E-03 0.  1.
         23    2    1    2    0    0  0.00000000000E+00  0.17763568394E-14 -0.35527136788E-14  0.91188000000E+02  0.91188000000E+02 0.  0.
    9900012    2    3    3    0    0 -0.18123964515E+02  0.14789860108E+02  0.28435220072E+02  0.54367084852E+02  0.40000001537E+02 0.  0.
        -12    1    3    3    0    0  0.18123964515E+02 -0.14789860108E+02 -0.28435220072E+02  0.36820915148E+02  0.00000000000E+00 0.  1.
         11    1    4    4    0    0 -0.90359994805E+01 -0.64771787684E+01  0.19493769583E+02  0.22441260754E+02  0.51100000000E-03 0. -1.
        -11    1    4    4    0    0  0.58652304660E+01  0.38406211809E+01 -0.64945773079E+00  0.70408163646E+01  0.51100000000E-03 0.  1.
         12    1    4    4    0    0 -0.14953195501E+02  0.17426417696E+02  0.95909082198E+01  0.24885007733E+02  0.00000000000E+00 0. -1.
</event>
<event>
 8    1  0.2433390E-006  0.9118800E+02  0.7816164E-02  0.1184000E+00
        -11   -1    0    0    0    0  0.00000000000E+00  0.00000000000E+00  0.45593999997E+02  0.45594000000E+02  0.51100000000E-03 0.  1.
         11   -1    0    0    0    0 -0.00000000000E+00 -0.00000000000E+00 -0.45593999997E+02  0.45594000000E+02  0.51100000000E-03 0. -1.
         23    2    1    2    0    0  0.00000000000E+00  0.71054273576E-14 -0.17763568394E-14  0.91188000000E+02  0.91188000000E+02 0.  0.
    9900012    2    3    3    0    0  0.82499176161E+01 -0.33013841485E+02  0.14064407999E+02  0.54367048863E+02  0.39999919493E+02 0.  0.
         12    1    3    3    0    0 -0.82499176161E+01  0.33013841485E+02 -0.14064407999E+02  0.36820951137E+02  0.00000000000E+00 0. -1.
         11    1    4    4    0    0 -0.27878154448E+01  0.13045817239E+01  0.93088008603E+01  0.98044694985E+01  0.51100000000E-03 0. -1.
        -11    1    4    4    0    0  0.74578076580E+01  0.20440122854E+01  0.14131414518E+00  0.77341354550E+01  0.51100000000E-03 0.  1.
         12    1    4    4    0    0  0.35799254028E+01 -0.36362435494E+02  0.46142929936E+01  0.36828443910E+02  0.00000000000E+00 0. -1.
</event>
<event>
 8    1  0.2433390E-006  0.9118800E+02  0.7816164E-02  0.1184000E+00
        -11   -1    0    0    0    0  0.00000000000E+00  0.00000000000E+00  0.45593999997E+02  0.45594000000E+02  0.51100000000E-03 0. -1.
         11   -1    0    0    0    0 -0.00000000000E+00 -0.00000000000E+00 -0.45593999997E+02  0.45594000000E+02  0.51100000000E-03 0.  1.
         23    2    1    2    0    0 -0.71054273576E-14 -0.17763568394E-14  0.00000000000E+00  0.91188000000E+02  0.91188000000E+02 0.  0.
    9900012    2    3    3    0    0 -0.34868631095E+02 -0.95220339285E+01  0.70206329865E+01  0.54367084040E+02  0.39999999687E+02 0.  0.
         12    1    3    3    0    0  0.34868631095E+02  0.95220339285E+01 -0.70206329865E+01  0.36820915960E+02  0.00000000000E+00 0. -1.
         11    1    4    4    0    0  0.34961443746E+01  0.31779092271E+01  0.15882351708E+01  0.49844381591E+01  0.51100000000E-03 0. -1.
        -11    1    4    4    0    0  0.98108238246E+00 -0.85729897786E+01  0.46743642442E+01  0.98136821700E+01  0.51100000000E-03 0.  1.
         12    1    4    4    0    0 -0.39345857852E+02 -0.41269533770E+01  0.75803357156E+00  0.39568963711E+02  0.00000000000E+00 0. -1.
</event>
<event>
 8    1  0.2433390E-006  0.9118800E+02  0.7816164E-02  0.1184000E+00
        -11   -1    0    0    0    0  0.00000000000E+00  0.00000000000E+00  0.45593999997E+02  0.45594000000E+02  0.51100000000E-03 0. -1.
         11   -1    0    0    0    0 -0.00000000000E+00 -0.00000000000E+00 -0.45593999997E+02  0.45594000000E+02  0.51100000000E-03 0.  1.
         23    2    1    2    0    0  0.00000000000E+00  0.71054273576E-14 -0.35527136788E-14  0.91188000000E+02  0.91188000000E+02 0.  0.
    9900012    2    3    3    0    0  0.21435121933E+02 -0.18563388315E+02  0.23488789785E+02  0.54366985843E+02  0.39999775826E+02 0.  0.
        -12    1    3    3    0    0 -0.21435121933E+02  0.18563388315E+02 -0.23488789785E+02  0.36821014157E+02  0.00000000000E+00 0.  1.
         11    1    4    4    0    0  0.10549676374E+02 -0.22479960095E+02  0.28617439600E+02  0.37889340545E+02  0.51100000000E-03 0. -1.
        -11    1    4    4    0    0  0.30192028683E+01  0.65293579209E+01 -0.11556648411E+01  0.72858535742E+01  0.51100000000E-03 0.  1.
        -12    1    4    4    0    0  0.78662426907E+01 -0.26127861409E+01 -0.39729849742E+01  0.91917917237E+01  0.00000000000E+00 0.  1.
</event>
<event>
 8    1  0.2433390E-006  0.9118800E+02  0.7816164E-02  0.1184000E+00
        -11   -1    0    0    0    0  0.00000000000E+00  0.00000000000E+00  0.45593999997E+02  0.45594000000E+02  0.51100000000E-03 0.  1.
         11   -1    0    0    0    0 -0.00000000000E+00 -0.00000000000E+00 -0.45593999997E+02  0.45594000000E+02  0.51100000000E-03 0. -1.
         23    2    1    2    0    0  0.00000000000E+00 -0.35527136788E-14  0.00000000000E+00  0.91188000000E+02  0.91188000000E+02 0.  0.
    9900012    2    3    3    0    0  0.20507132274E+02 -0.28024065015E+02 -0.12242862788E+02  0.54367103985E+02  0.40000045155E+02 0.  0.
         12    1    3    3    0    0 -0.20507132274E+02  0.28024065015E+02  0.12242862788E+02  0.36820896015E+02  0.00000000000E+00 0. -1.
         11    1    4    4    0    0  0.11483843019E+02 -0.11014382132E+02 -0.12206632519E+02  0.20054853326E+02  0.51100000000E-03 0. -1.
        -11    1    4    4    0    0  0.13828525861E+02  0.19281411990E+01  0.36456512072E+01  0.14430406403E+02  0.51100000000E-03 0.  1.
         12    1    4    4    0    0 -0.48052366052E+01 -0.18937824082E+02 -0.36818814763E+01  0.19881844256E+02  0.00000000000E+00 0. -1.
</event>
<event>
 8    1  0.2433390E-006  0.9118800E+02  0.7816164E-02  0.1184000E+00
        -11   -1    0    0    0    0  0.00000000000E+00  0.00000000000E+00  0.45593999997E+02  0.45594000000E+02  0.51100000000E-03 0. -1.
         11   -1    0    0    0    0 -0.00000000000E+00 -0.00000000000E+00 -0.45593999997E+02  0.45594000000E+02  0.51100000000E-03 0.  1.
         23    2    1    2    0    0  0.00000000000E+00 -0.17763568394E-14 -0.35527136788E-14  0.91188000000E+02  0.91188000000E+02 0.  0.
    9900012    2    3    3    0    0  0.22314419391E+02 -0.12103388447E+02  0.26671233564E+02  0.54367081700E+02  0.39999994351E+02 0.  0.
        -12    1    3    3    0    0 -0.22314419391E+02  0.12103388447E+02 -0.26671233564E+02  0.36820918300E+02  0.00000000000E+00 0.  1.
         11    1    4    4    0    0  0.20391797244E+02 -0.13787315817E+02  0.73323918048E+01  0.25684225550E+02  0.51100000000E-03 0. -1.
        -11    1    4    4    0    0 -0.94870925917E+01  0.22064542590E+01  0.82672430225E+01  0.12775784661E+02  0.51100000000E-03 0.  1.
        -12    1    4    4    0    0  0.11409714739E+02 -0.52252688908E+00  0.11071598737E+02  0.15907071489E+02  0.00000000000E+00 0.  1.
</event>
<event>
 8    1  0.2433390E-006  0.9118800E+02  0.7816164E-02  0.1184000E+00
        -11   -1    0    0    0    0  0.00000000000E+00  0.00000000000E+00  0.45593999997E+02  0.45594000000E+02  0.51100000000E-03 0. -1.
         11   -1    0    0    0    0 -0.00000000000E+00 -0.00000000000E+00 -0.45593999997E+02  0.45594000000E+02  0.51100000000E-03 0.  1.
         23    2    1    2    0    0  0.00000000000E+00 -0.53290705182E-14  0.00000000000E+00  0.91188000000E+02  0.91188000000E+02 0.  0.
    9900012    2    3    3    0    0 -0.25109595324E+02 -0.15093999664E+02  0.22303805951E+02  0.54367077102E+02  0.39999983868E+02 0.  0.
        -12    1    3    3    0    0  0.25109595324E+02  0.15093999664E+02 -0.22303805951E+02  0.36820922898E+02  0.00000000000E+00 0.  1.
         11    1    4    4    0    0 -0.46180493271E-01 -0.19428360936E+02  0.12552765402E+02  0.23130829228E+02  0.51100000000E-03 0. -1.
        -11    1    4    4    0    0 -0.24406558823E+02  0.78471135033E+01  0.10284590395E+02  0.27622999543E+02  0.51100000000E-03 0.  1.
        -12    1    4    4    0    0 -0.65685600747E+00 -0.35127522317E+01 -0.53354984620E+00  0.36132483300E+01  0.00000000000E+00 0.  1.
</event>
<event>
 8    1  0.2433390E-006  0.9118800E+02  0.7816164E-02  0.1184000E+00
        -11   -1    0    0    0    0  0.00000000000E+00  0.00000000000E+00  0.45593999997E+02  0.45594000000E+02  0.51100000000E-03 0.  1.
         11   -1    0    0    0    0 -0.00000000000E+00 -0.00000000000E+00 -0.45593999997E+02  0.45594000000E+02  0.51100000000E-03 0. -1.
         23    2    1    2    0    0 -0.88817841970E-15  0.00000000000E+00  0.00000000000E+00  0.91188000000E+02  0.91188000000E+02 0.  0.
    9900012    2    3    3    0    0  0.49123326643E+01  0.29786865813E+02  0.21080770485E+02  0.54366983292E+02  0.39999770010E+02 0.  0.
         12    1    3    3    0    0 -0.49123326643E+01 -0.29786865813E+02 -0.21080770485E+02  0.36821016708E+02  0.00000000000E+00 0. -1.
         11    1    4    4    0    0  0.13676143767E+01 -0.21107291300E+00  0.59838310690E+01  0.61417550734E+01  0.51100000000E-03 0. -1.
        -11    1    4    4    0    0  0.15768502709E+02  0.21794094348E+02  0.19073394908E+02  0.32976091639E+02  0.51100000000E-03 0.  1.
         12    1    4    4    0    0 -0.12223784422E+02  0.82038443774E+01 -0.39764554922E+01  0.15249136580E+02  0.00000000000E+00 0. -1.
</event>
<event>
 8    1  0.2433390E-006  0.9118800E+02  0.7816164E-02  0.1184000E+00
        -11   -1    0    0    0    0  0.00000000000E+00  0.00000000000E+00  0.45593999997E+02  0.45594000000E+02  0.51100000000E-03 0. -1.
         11   -1    0    0    0    0 -0.00000000000E+00 -0.00000000000E+00 -0.45593999997E+02  0.45594000000E+02  0.51100000000E-03 0.  1.
         23    2    1    2    0    0 -0.17763568394E-14 -0.17763568394E-14  0.00000000000E+00  0.91188000000E+02  0.91188000000E+02 0.  0.
    9900012    2    3    3    0    0  0.14323339579E+02  0.43134656487E+01 -0.33645311064E+02  0.54367204256E+02  0.40000273741E+02 0.  0.
         12    1    3    3    0    0 -0.14323339579E+02 -0.43134656487E+01  0.33645311064E+02  0.36820795744E+02  0.00000000000E+00 0. -1.
         11    1    4    4    0    0  0.81268666793E+01 -0.99729399294E+01 -0.18976076258E+02  0.22925901580E+02  0.51100000000E-03 0. -1.
        -11    1    4    4    0    0  0.40517126596E+01  0.11050935339E+02  0.39548823265E+01  0.12416949779E+02  0.51100000000E-03 0.  1.
        -12    1    4    4    0    0  0.21447602406E+01  0.32354702393E+01 -0.18624117133E+02  0.19024352896E+02  0.00000000000E+00 0.  1.
</event>
<event>
 8    1  0.2433390E-006  0.9118800E+02  0.7816164E-02  0.1184000E+00
        -11   -1    0    0    0    0  0.00000000000E+00  0.00000000000E+00  0.45593999997E+02  0.45594000000E+02  0.51100000000E-03 0.  1.
         11   -1    0    0    0    0 -0.00000000000E+00 -0.00000000000E+00 -0.45593999997E+02  0.45594000000E+02  0.51100000000E-03 0. -1.
         23    2    1    2    0    0  0.17763568394E-14  0.10658141036E-13  0.00000000000E+00  0.91188000000E+02  0.91188000000E+02 0.  0.
    9900012    2    3    3    0    0 -0.10845968052E+02 -0.29618726043E+02  0.18996764255E+02  0.54367068350E+02  0.39999963918E+02 0.  0.
         12    1    3    3    0    0  0.10845968052E+02  0.29618726043E+02 -0.18996764255E+02  0.36820931650E+02  0.00000000000E+00 0. -1.
         11    1    4    4    0    0 -0.15702175691E+01  0.13985519408E+01 -0.72755767359E+01  0.75733445615E+01  0.51100000000E-03 0. -1.
        -11    1    4    4    0    0 -0.74483137073E+01 -0.11081016428E+01  0.10529240259E+02  0.12944889610E+02  0.51100000000E-03 0.  1.
        -12    1    4    4    0    0 -0.18274367755E+01 -0.29909176341E+02  0.15743100732E+02  0.33848834179E+02  0.00000000000E+00 0.  1.
</event>
<event>
 8    1  0.2433390E-006  0.9118800E+02  0.7816164E-02  0.1184000E+00
        -11   -1    0    0    0    0  0.00000000000E+00  0.00000000000E+00  0.45593999997E+02  0.45594000000E+02  0.51100000000E-03 0.  1.
         11   -1    0    0    0    0 -0.00000000000E+00 -0.00000000000E+00 -0.45593999997E+02  0.45594000000E+02  0.51100000000E-03 0. -1.
         23    2    1    2    0    0 -0.71054273576E-14  0.00000000000E+00  0.00000000000E+00  0.91188000000E+02  0.91188000000E+02 0.  0.
    9900012    2    3    3    0    0 -0.32112235592E+02  0.15778635639E+02 -0.86958555142E+01  0.54367096692E+02  0.40000028528E+02 0.  0.
         12    1    3    3    0    0  0.32112235592E+02 -0.15778635639E+02  0.86958555142E+01  0.36820903308E+02  0.00000000000E+00 0. -1.
         11    1    4    4    0    0 -0.30727699907E+01  0.69436343667E+01  0.15892344560E+01  0.77576826469E+01  0.51100000000E-03 0. -1.
        -11    1    4    4    0    0 -0.18386873719E+02 -0.12059765139E+02 -0.43225238396E+01  0.22409803055E+02  0.51100000000E-03 0.  1.
        -12    1    4    4    0    0 -0.10652591883E+02  0.20894766411E+02 -0.59625661306E+01  0.24199610990E+02  0.00000000000E+00 0.  1.
</event>
<event>
 8    1  0.2433390E-006  0.9118800E+02  0.7816164E-02  0.1184000E+00
        -11   -1    0    0    0    0  0.00000000000E+00  0.00000000000E+00  0.45593999997E+02  0.45594000000E+02  0.51100000000E-03 0. -1.
         11   -1    0    0    0    0 -0.00000000000E+00 -0.00000000000E+00 -0.45593999997E+02  0.45594000000E+02  0.51100000000E-03 0.  1.
         23    2    1    2    0    0  0.00000000000E+00  0.35527136788E-14  0.00000000000E+00  0.91188000000E+02  0.91188000000E+02 0.  0.
    9900012    2    3    3    0    0  0.64240688140E+01  0.20964196741E+02  0.29580626325E+02  0.54367086663E+02  0.40000005666E+02 0.  0.
        -12    1    3    3    0    0 -0.64240688140E+01 -0.20964196741E+02 -0.29580626325E+02  0.36820913337E+02  0.00000000000E+00 0.  1.
         11    1    4    4    0    0  0.10429454041E+01  0.71467498340E+01 -0.71550864011E+01  0.10166564315E+02  0.51100000000E-03 0. -1.
        -11    1    4    4    0    0 -0.55229238343E+01 -0.60800470394E+00  0.14575584016E+02  0.15598718122E+02  0.51100000000E-03 0.  1.
        -12    1    4    4    0    0  0.10904047244E+02  0.14425451611E+02  0.22160128711E+02  0.28601804226E+02  0.00000000000E+00 0.  1.
</event>
<event>
 8    1  0.2433390E-006  0.9118800E+02  0.7816164E-02  0.1184000E+00
        -11   -1    0    0    0    0  0.00000000000E+00  0.00000000000E+00  0.45593999997E+02  0.45594000000E+02  0.51100000000E-03 0.  1.
         11   -1    0    0    0    0 -0.00000000000E+00 -0.00000000000E+00 -0.45593999997E+02  0.45594000000E+02  0.51100000000E-03 0. -1.
         23    2    1    2    0    0  0.00000000000E+00  0.00000000000E+00  0.22204460493E-15  0.91188000000E+02  0.91188000000E+02 0.  0.
    9900012    2    3    3    0    0 -0.31109820615E+02 -0.19649527304E+02  0.13622821953E+01  0.54367072870E+02  0.39999974222E+02 0.  0.
        -12    1    3    3    0    0  0.31109820615E+02  0.19649527304E+02 -0.13622821953E+01  0.36820927130E+02  0.00000000000E+00 0.  1.
         11    1    4    4    0    0 -0.86150046551E+01 -0.64528524877E+01 -0.28537615445E+00  0.10767499721E+02  0.51100000000E-03 0. -1.
        -11    1    4    4    0    0 -0.19344948285E+02 -0.93295551880E+01 -0.15015754936E+02  0.26205734501E+02  0.51100000000E-03 0.  1.
        -12    1    4    4    0    0 -0.31498676742E+01 -0.38671196278E+01  0.16663413286E+02  0.17393838648E+02  0.00000000000E+00 0.  1.
</event>
<event>
 8    1  0.2433390E-006  0.9118800E+02  0.7816164E-02  0.1184000E+00
        -11   -1    0    0    0    0  0.00000000000E+00  0.00000000000E+00  0.45593999997E+02  0.45594000000E+02  0.51100000000E-03 0.  1.
         11   -1    0    0    0    0 -0.00000000000E+00 -0.00000000000E+00 -0.45593999997E+02  0.45594000000E+02  0.51100000000E-03 0. -1.
         23    2    1    2    0    0  0.00000000000E+00  0.00000000000E+00  0.17763568394E-14  0.91188000000E+02  0.91188000000E+02 0.  0.
    9900012    2    3    3    0    0  0.19894056481E+02 -0.27499166574E+02 -0.14275938748E+02  0.54367081045E+02  0.39999992859E+02 0.  0.
        -12    1    3    3    0    0 -0.19894056481E+02  0.27499166574E+02  0.14275938748E+02  0.36820918955E+02  0.00000000000E+00 0.  1.
         11    1    4    4    0    0  0.17293979304E+02 -0.84437228551E+01 -0.25335025029E+01  0.19411254751E+02  0.51100000000E-03 0. -1.
        -11    1    4    4    0    0  0.13918486930E+02 -0.54541700745E+01 -0.76559835176E+01  0.16795425970E+02  0.51100000000E-03 0.  1.
         12    1    4    4    0    0 -0.11318409752E+02 -0.13601273644E+02 -0.40864527274E+01  0.18160400325E+02  0.00000000000E+00 0. -1.
</event>
<event>
 8    1  0.2433390E-006  0.9118800E+02  0.7816164E-02  0.1184000E+00
        -11   -1    0    0    0    0  0.00000000000E+00  0.00000000000E+00  0.45593999997E+02  0.45594000000E+02  0.51100000000E-03 0. -1.
         11   -1    0    0    0    0 -0.00000000000E+00 -0.00000000000E+00 -0.45593999997E+02  0.45594000000E+02  0.51100000000E-03 0.  1.
         23    2    1    2    0    0 -0.44408920985E-15 -0.44408920985E-15 -0.71054273576E-14  0.91188000000E+02  0.91188000000E+02 0.  0.
    9900012    2    3    3    0    0 -0.11694088174E+01 -0.26258306192E+01 -0.36708541297E+02  0.54367088718E+02  0.40000010351E+02 0.  0.
         12    1    3    3    0    0  0.11694088174E+01  0.26258306192E+01  0.36708541297E+02  0.36820911282E+02  0.00000000000E+00 0. -1.
         11    1    4    4    0    0  0.10157481782E+01 -0.92702000065E+01  0.10798393830E+01  0.93879926436E+01  0.51100000000E-03 0. -1.
        -11    1    4    4    0    0 -0.87398919424E+01  0.63274384042E+01 -0.56541093584E+01  0.12181590242E+02  0.51100000000E-03 0.  1.
        -12    1    4    4    0    0  0.65547349469E+01  0.31693098313E+00 -0.32134271322E+02  0.32797505833E+02  0.00000000000E+00 0.  1.
</event>
<event>
 8    1  0.2433390E-006  0.9118800E+02  0.7816164E-02  0.1184000E+00
        -11   -1    0    0    0    0  0.00000000000E+00  0.00000000000E+00  0.45593999997E+02  0.45594000000E+02  0.51100000000E-03 0.  1.
         11   -1    0    0    0    0 -0.00000000000E+00 -0.00000000000E+00 -0.45593999997E+02  0.45594000000E+02  0.51100000000E-03 0. -1.
         23    2    1    2    0    0  0.35527136788E-14 -0.35527136788E-14  0.17763568394E-14  0.91188000000E+02  0.91188000000E+02 0.  0.
    9900012    2    3    3    0    0 -0.27583075778E+02  0.22225241830E+02  0.10049438833E+02  0.54367100165E+02  0.40000036447E+02 0.  0.
         12    1    3    3    0    0  0.27583075778E+02 -0.22225241830E+02 -0.10049438833E+02  0.36820899835E+02  0.00000000000E+00 0. -1.
         11    1    4    4    0    0 -0.85688208969E+01  0.10015391971E+02  0.48514213694E+01  0.14045250352E+02  0.51100000000E-03 0. -1.
        -11    1    4    4    0    0 -0.10708793382E+02  0.11056047791E+02  0.18828126783E+02  0.24318980383E+02  0.51100000000E-03 0.  1.
         12    1    4    4    0    0 -0.83054614988E+01  0.11538020682E+01 -0.13630109319E+02  0.16002869430E+02  0.00000000000E+00 0. -1.
</event>
<event>
 8    1  0.2433390E-006  0.9118800E+02  0.7816164E-02  0.1184000E+00
        -11   -1    0    0    0    0  0.00000000000E+00  0.00000000000E+00  0.45593999997E+02  0.45594000000E+02  0.51100000000E-03 0.  1.
         11   -1    0    0    0    0 -0.00000000000E+00 -0.00000000000E+00 -0.45593999997E+02  0.45594000000E+02  0.51100000000E-03 0. -1.
         23    2    1    2    0    0 -0.88817841970E-15  0.00000000000E+00  0.35527136788E-14  0.91188000000E+02  0.91188000000E+02 0.  0.
    9900012    2    3    3    0    0  0.32969133229E+01  0.27496048918E+02 -0.24266719932E+02  0.54367135808E+02  0.40000117702E+02 0.  0.
        -12    1    3    3    0    0 -0.32969133229E+01 -0.27496048918E+02  0.24266719932E+02  0.36820864192E+02  0.00000000000E+00 0.  1.
         11    1    4    4    0    0 -0.18156305840E+01  0.35591220727E+01  0.20163617352E+00  0.40005651792E+01  0.51100000000E-03 0. -1.
        -11    1    4    4    0    0  0.19348203997E+02  0.44605998167E+01 -0.99321335855E+01  0.22201288847E+02  0.51100000000E-03 0.  1.
         12    1    4    4    0    0 -0.14235660090E+02  0.19476327028E+02 -0.14536222520E+02  0.28165281782E+02  0.00000000000E+00 0. -1.
</event>
<event>
 8    1  0.2433390E-006  0.9118800E+02  0.7816164E-02  0.1184000E+00
        -11   -1    0    0    0    0  0.00000000000E+00  0.00000000000E+00  0.45593999997E+02  0.45594000000E+02  0.51100000000E-03 0.  1.
         11   -1    0    0    0    0 -0.00000000000E+00 -0.00000000000E+00 -0.45593999997E+02  0.45594000000E+02  0.51100000000E-03 0. -1.
         23    2    1    2    0    0  0.00000000000E+00  0.00000000000E+00 -0.53290705182E-14  0.91188000000E+02  0.91188000000E+02 0.  0.
    9900012    2    3    3    0    0 -0.22328914601E+02  0.28420444875E+02  0.70339754756E+01  0.54367096628E+02  0.40000028382E+02 0.  0.
         12    1    3    3    0    0  0.22328914601E+02 -0.28420444875E+02 -0.70339754756E+01  0.36820903372E+02  0.00000000000E+00 0. -1.
         11    1    4    4    0    0  0.20078759300E+01  0.12320565080E+02  0.72551632085E+00  0.12504169858E+02  0.51100000000E-03 0. -1.
        -11    1    4    4    0    0 -0.47872643592E+01  0.51841035438E+01 -0.11337926761E+02  0.13354452931E+02  0.51100000000E-03 0.  1.
        -12    1    4    4    0    0 -0.19549526172E+02  0.10915776252E+02  0.17646385916E+02  0.28508473838E+02  0.00000000000E+00 0.  1.
</event>
<event>
 8    1  0.2433390E-006  0.9118800E+02  0.7816164E-02  0.1184000E+00
        -11   -1    0    0    0    0  0.00000000000E+00  0.00000000000E+00  0.45593999997E+02  0.45594000000E+02  0.51100000000E-03 0. -1.
         11   -1    0    0    0    0 -0.00000000000E+00 -0.00000000000E+00 -0.45593999997E+02  0.45594000000E+02  0.51100000000E-03 0.  1.
         23    2    1    2    0    0  0.00000000000E+00 -0.22204460493E-14  0.00000000000E+00  0.91188000000E+02  0.91188000000E+02 0.  0.
    9900012    2    3    3    0    0 -0.12161087933E+02  0.28106827372E+01  0.34640825052E+02  0.54367098905E+02  0.40000033573E+02 0.  0.
        -12    1    3    3    0    0  0.12161087933E+02 -0.28106827372E+01 -0.34640825052E+02  0.36820901095E+02  0.00000000000E+00 0.  1.
         11    1    4    4    0    0 -0.15072921222E+02 -0.13349863985E+02  0.19773796013E+02  0.28220822660E+02  0.51100000000E-03 0. -1.
        -11    1    4    4    0    0 -0.32225452539E+01  0.11593417301E+02  0.13982778658E+02  0.18447499069E+02  0.51100000000E-03 0.  1.
         12    1    4    4    0    0  0.61343785432E+01  0.45671294215E+01  0.88425038164E+00  0.76987771758E+01  0.00000000000E+00 0. -1.
</event>
<event>
 8    1  0.2433390E-006  0.9118800E+02  0.7816164E-02  0.1184000E+00
        -11   -1    0    0    0    0  0.00000000000E+00  0.00000000000E+00  0.45593999997E+02  0.45594000000E+02  0.51100000000E-03 0.  1.
         11   -1    0    0    0    0 -0.00000000000E+00 -0.00000000000E+00 -0.45593999997E+02  0.45594000000E+02  0.51100000000E-03 0. -1.
         23    2    1    2    0    0  0.35527136788E-14 -0.17763568394E-14  0.00000000000E+00  0.91188000000E+02  0.91188000000E+02 0.  0.
    9900012    2    3    3    0    0  0.24433210328E+02 -0.13522281132E+02 -0.23998892410E+02  0.54367072651E+02  0.39999973722E+02 0.  0.
        -12    1    3    3    0    0 -0.24433210328E+02  0.13522281132E+02  0.23998892410E+02  0.36820927349E+02  0.00000000000E+00 0.  1.
         11    1    4    4    0    0  0.17095389786E+02  0.56883093546E+01 -0.19302904432E+02  0.26404759704E+02  0.51100000000E-03 0. -1.
        -11    1    4    4    0    0 -0.29036645429E+01 -0.76455588462E+01  0.51300147901E+01  0.96541643790E+01  0.51100000000E-03 0.  1.
         12    1    4    4    0    0  0.10241485085E+02 -0.11565031641E+02 -0.98260027680E+01  0.18308148568E+02  0.00000000000E+00 0. -1.
</event>
<event>
 8    1  0.2433390E-006  0.9118800E+02  0.7816164E-02  0.1184000E+00
        -11   -1    0    0    0    0  0.00000000000E+00  0.00000000000E+00  0.45593999997E+02  0.45594000000E+02  0.51100000000E-03 0. -1.
         11   -1    0    0    0    0 -0.00000000000E+00 -0.00000000000E+00 -0.45593999997E+02  0.45594000000E+02  0.51100000000E-03 0.  1.
         23    2    1    2    0    0 -0.17763568394E-14  0.71054273576E-14 -0.35527136788E-14  0.91188000000E+02  0.91188000000E+02 0.  0.
    9900012    2    3    3    0    0 -0.91484356335E+01  0.25508346658E+02 -0.24928122777E+02  0.54367069418E+02  0.39999966352E+02 0.  0.
         12    1    3    3    0    0  0.91484356335E+01 -0.25508346658E+02  0.24928122777E+02  0.36820930582E+02  0.00000000000E+00 0. -1.
         11    1    4    4    0    0  0.61405555503E+01  0.11594692931E+02  0.47286190366E+01  0.13946439147E+02  0.51100000000E-03 0. -1.
        -11    1    4    4    0    0 -0.24019077479E+00  0.87831249397E+01 -0.19932919610E+02  0.21783531847E+02  0.51100000000E-03 0.  1.
        -12    1    4    4    0    0 -0.15048800409E+02  0.51305287874E+01 -0.97238222036E+01  0.18637098423E+02  0.00000000000E+00 0.  1.
</event>
<event>
 8    1  0.2433390E-006  0.9118800E+02  0.7816164E-02  0.1184000E+00
        -11   -1    0    0    0    0  0.00000000000E+00  0.00000000000E+00  0.45593999997E+02  0.45594000000E+02  0.51100000000E-03 0.  1.
         11   -1    0    0    0    0 -0.00000000000E+00 -0.00000000000E+00 -0.45593999997E+02  0.45594000000E+02  0.51100000000E-03 0. -1.
         23    2    1    2    0    0 -0.35527136788E-14  0.35527136788E-14  0.44408920985E-14  0.91188000000E+02  0.91188000000E+02 0.  0.
    9900012    2    3    3    0    0  0.28628975263E+02 -0.21778069615E+02 -0.78662381797E+01  0.54367078720E+02  0.39999987559E+02 0.  0.
        -12    1    3    3    0    0 -0.28628975263E+02  0.21778069615E+02  0.78662381797E+01  0.36820921280E+02  0.00000000000E+00 0.  1.
         11    1    4    4    0    0  0.16297907325E+02 -0.20416239130E+02 -0.12667290393E+02  0.29032823657E+02  0.51100000000E-03 0. -1.
        -11    1    4    4    0    0  0.21623666149E+00  0.20740662623E+01  0.11071946235E+02  0.11266610087E+02  0.51100000000E-03 0.  1.
        -12    1    4    4    0    0  0.12114831277E+02 -0.34358967477E+01 -0.62708940220E+01  0.14067644976E+02  0.00000000000E+00 0.  1.
</event>
<event>
 8    1  0.2433390E-006  0.9118800E+02  0.7816164E-02  0.1184000E+00
        -11   -1    0    0    0    0  0.00000000000E+00  0.00000000000E+00  0.45593999997E+02  0.45594000000E+02  0.51100000000E-03 0. -1.
         11   -1    0    0    0    0 -0.00000000000E+00 -0.00000000000E+00 -0.45593999997E+02  0.45594000000E+02  0.51100000000E-03 0.  1.
         23    2    1    2    0    0  0.17763568394E-14  0.17763568394E-14  0.00000000000E+00  0.91188000000E+02  0.91188000000E+02 0.  0.
    9900012    2    3    3    0    0 -0.78655936471E+01 -0.15438081436E+02 -0.32489657908E+02  0.54367084845E+02  0.40000001522E+02 0.  0.
         12    1    3    3    0    0  0.78655936471E+01  0.15438081436E+02  0.32489657908E+02  0.36820915155E+02  0.00000000000E+00 0. -1.
         11    1    4    4    0    0  0.33214108541E+01 -0.81272234235E+01  0.62895471993E+01  0.10800089577E+02  0.51100000000E-03 0. -1.
        -11    1    4    4    0    0 -0.66660676541E+01  0.39275119330E+01 -0.15604387846E+02  0.17417196338E+02  0.51100000000E-03 0.  1.
         12    1    4    4    0    0 -0.45209368471E+01 -0.11238369945E+02 -0.23174817261E+02  0.26149798931E+02  0.00000000000E+00 0. -1.
</event>
<event>
 8    1  0.2433390E-006  0.9118800E+02  0.7816164E-02  0.1184000E+00
        -11   -1    0    0    0    0  0.00000000000E+00  0.00000000000E+00  0.45593999997E+02  0.45594000000E+02  0.51100000000E-03 0.  1.
         11   -1    0    0    0    0 -0.00000000000E+00 -0.00000000000E+00 -0.45593999997E+02  0.45594000000E+02  0.51100000000E-03 0. -1.
         23    2    1    2    0    0  0.88817841970E-15  0.00000000000E+00 -0.35527136788E-14  0.91188000000E+02  0.91188000000E+02 0.  0.
    9900012    2    3    3    0    0 -0.77605120635E+01  0.23933780822E+02  0.26883604938E+02  0.54367087105E+02  0.40000006674E+02 0.  0.
         12    1    3    3    0    0  0.77605120635E+01 -0.23933780822E+02 -0.26883604938E+02  0.36820912895E+02  0.00000000000E+00 0. -1.
         11    1    4    4    0    0  0.19559086548E+01  0.62221432873E+01  0.26728982983E+02  0.27513254575E+02  0.51100000000E-03 0. -1.
        -11    1    4    4    0    0 -0.53449551688E+00  0.53349793171E+01  0.79458117668E+01  0.95855941217E+01  0.51100000000E-03 0.  1.
         12    1    4    4    0    0 -0.91819252014E+01  0.12376658218E+02 -0.77911898120E+01  0.17268238408E+02  0.00000000000E+00 0. -1.
</event>
<event>
 8    1  0.2433390E-006  0.9118800E+02  0.7816164E-02  0.1184000E+00
        -11   -1    0    0    0    0  0.00000000000E+00  0.00000000000E+00  0.45593999997E+02  0.45594000000E+02  0.51100000000E-03 0. -1.
         11   -1    0    0    0    0 -0.00000000000E+00 -0.00000000000E+00 -0.45593999997E+02  0.45594000000E+02  0.51100000000E-03 0.  1.
         23    2    1    2    0    0  0.13322676296E-14  0.00000000000E+00  0.35527136788E-14  0.91188000000E+02  0.91188000000E+02 0.  0.
    9900012    2    3    3    0    0 -0.25638373982E+01 -0.24483342589E+02  0.27381982560E+02  0.54367078020E+02  0.39999985961E+02 0.  0.
        -12    1    3    3    0    0  0.25638373982E+01  0.24483342589E+02 -0.27381982560E+02  0.36820921980E+02  0.00000000000E+00 0.  1.
         11    1    4    4    0    0  0.12433767265E+02 -0.15112860897E+02  0.12069685445E+02  0.22992921517E+02  0.51100000000E-03 0. -1.
        -11    1    4    4    0    0 -0.16631243131E+02 -0.85150482871E+01  0.29989329765E+01  0.18923474699E+02  0.51100000000E-03 0.  1.
        -12    1    4    4    0    0  0.16336384686E+01 -0.85543340503E+00  0.12313364139E+02  0.12450681803E+02  0.00000000000E+00 0.  1.
</event>
<event>
 8    1  0.2433390E-006  0.9118800E+02  0.7816164E-02  0.1184000E+00
        -11   -1    0    0    0    0  0.00000000000E+00  0.00000000000E+00  0.45593999997E+02  0.45594000000E+02  0.51100000000E-03 0.  1.
         11   -1    0    0    0    0 -0.00000000000E+00 -0.00000000000E+00 -0.45593999997E+02  0.45594000000E+02  0.51100000000E-03 0. -1.
         23    2    1    2    0    0  0.00000000000E+00 -0.17763568394E-14  0.00000000000E+00  0.91188000000E+02  0.91188000000E+02 0.  0.
    9900012    2    3    3    0    0  0.26408307002E+02 -0.93990243675E+01  0.23875448168E+02  0.54367117840E+02  0.40000076741E+02 0.  0.
         12    1    3    3    0    0 -0.26408307002E+02  0.93990243675E+01 -0.23875448168E+02  0.36820882160E+02  0.00000000000E+00 0. -1.
         11    1    4    4    0    0 -0.78202889302E+00 -0.28880313535E+01 -0.16722124636E+01  0.34276214891E+01  0.51100000000E-03 0. -1.
        -11    1    4    4    0    0  0.40362621227E+01 -0.17800245522E+02  0.93126488765E+01  0.20490621805E+02  0.51100000000E-03 0.  1.
         12    1    4    4    0    0  0.23154073773E+02  0.11289252508E+02  0.16235011755E+02  0.30448874547E+02  0.00000000000E+00 0. -1.
</event>
<event>
 8    1  0.2433390E-006  0.9118800E+02  0.7816164E-02  0.1184000E+00
        -11   -1    0    0    0    0  0.00000000000E+00  0.00000000000E+00  0.45593999997E+02  0.45594000000E+02  0.51100000000E-03 0. -1.
         11   -1    0    0    0    0 -0.00000000000E+00 -0.00000000000E+00 -0.45593999997E+02  0.45594000000E+02  0.51100000000E-03 0.  1.
         23    2    1    2    0    0  0.00000000000E+00  0.00000000000E+00  0.21094237468E-14  0.91188000000E+02  0.91188000000E+02 0.  0.
    9900012    2    3    3    0    0  0.32589180039E+02 -0.17131775790E+02  0.47440786141E+00  0.54367116521E+02  0.40000073733E+02 0.  0.
         12    1    3    3    0    0 -0.32589180039E+02  0.17131775790E+02 -0.47440786141E+00  0.36820883479E+02  0.00000000000E+00 0. -1.
         11    1    4    4    0    0 -0.20127749128E+01  0.28052491271E+01 -0.32098168871E+00  0.34675228939E+01  0.51100000000E-03 0. -1.
        -11    1    4    4    0    0  0.96945434937E+01  0.33308663344E+01  0.11276828211E+02  0.15239609537E+02  0.51100000000E-03 0.  1.
        -12    1    4    4    0    0  0.24907411458E+02 -0.23267891252E+02 -0.10481438661E+02  0.35659984090E+02  0.00000000000E+00 0.  1.
</event>
<event>
 8    1  0.2433390E-006  0.9118800E+02  0.7816164E-02  0.1184000E+00
        -11   -1    0    0    0    0  0.00000000000E+00  0.00000000000E+00  0.45593999997E+02  0.45594000000E+02  0.51100000000E-03 0.  1.
         11   -1    0    0    0    0 -0.00000000000E+00 -0.00000000000E+00 -0.45593999997E+02  0.45594000000E+02  0.51100000000E-03 0. -1.
         23    2    1    2    0    0  0.00000000000E+00 -0.17763568394E-14 -0.18873791419E-14  0.91188000000E+02  0.91188000000E+02 0.  0.
    9900012    2    3    3    0    0 -0.34947880584E+02 -0.11593084126E+02  0.15916001264E+00  0.54367091690E+02  0.40000017125E+02 0.  0.
         12    1    3    3    0    0  0.34947880584E+02  0.11593084126E+02 -0.15916001264E+00  0.36820908310E+02  0.00000000000E+00 0. -1.
         11    1    4    4    0    0 -0.99987071569E+00  0.16855898318E+01 -0.84140493258E+01  0.86392812691E+01  0.51100000000E-03 0. -1.
        -11    1    4    4    0    0 -0.16927215461E+02 -0.45399126903E+01  0.17364952286E+02  0.24671501751E+02  0.51100000000E-03 0.  1.
        -12    1    4    4    0    0 -0.17020794407E+02 -0.87387612671E+01 -0.87917429472E+01  0.21056308670E+02  0.00000000000E+00 0.  1.
</event>
<event>
 8    1  0.2433390E-006  0.9118800E+02  0.7816164E-02  0.1184000E+00
        -11   -1    0    0    0    0  0.00000000000E+00  0.00000000000E+00  0.45593999997E+02  0.45594000000E+02  0.51100000000E-03 0. -1.
         11   -1    0    0    0    0 -0.00000000000E+00 -0.00000000000E+00 -0.45593999997E+02  0.45594000000E+02  0.51100000000E-03 0.  1.
         23    2    1    2    0    0  0.35527136788E-14 -0.35527136788E-14 -0.35527136788E-14  0.91188000000E+02  0.91188000000E+02 0.  0.
    9900012    2    3    3    0    0 -0.24609224505E+02  0.22915857044E+02  0.15000982918E+02  0.54367083074E+02  0.39999997483E+02 0.  0.
         12    1    3    3    0    0  0.24609224505E+02 -0.22915857044E+02 -0.15000982918E+02  0.36820916926E+02  0.00000000000E+00 0. -1.
         11    1    4    4    0    0 -0.19439143920E+02 -0.73577185381E+00 -0.63863114940E+01  0.20474536657E+02  0.51100000000E-03 0. -1.
        -11    1    4    4    0    0 -0.78277295153E+01  0.14718412672E+02  0.11191032280E+02  0.20078451750E+02  0.51100000000E-03 0.  1.
         12    1    4    4    0    0  0.26576489305E+01  0.89332162262E+01  0.10196262132E+02  0.13814094666E+02  0.00000000000E+00 0. -1.
</event>
<event>
 8    1  0.2433390E-006  0.9118800E+02  0.7816164E-02  0.1184000E+00
        -11   -1    0    0    0    0  0.00000000000E+00  0.00000000000E+00  0.45593999997E+02  0.45594000000E+02  0.51100000000E-03 0.  1.
         11   -1    0    0    0    0 -0.00000000000E+00 -0.00000000000E+00 -0.45593999997E+02  0.45594000000E+02  0.51100000000E-03 0. -1.
         23    2    1    2    0    0 -0.17763568394E-14  0.17763568394E-14  0.00000000000E+00  0.91188000000E+02  0.91188000000E+02 0.  0.
    9900012    2    3    3    0    0 -0.88067681202E+01  0.14671114600E+02 -0.32603364680E+02  0.54367079903E+02  0.39999990254E+02 0.  0.
        -12    1    3    3    0    0  0.88067681202E+01 -0.14671114600E+02  0.32603364680E+02  0.36820920097E+02  0.00000000000E+00 0.  1.
         11    1    4    4    0    0 -0.10858606671E+02  0.89817871499E+01 -0.31275822134E+02  0.34303919450E+02  0.51100000000E-03 0. -1.
        -11    1    4    4    0    0  0.86085526158E+01  0.16285743458E+01 -0.63845152820E+01  0.10840731903E+02  0.51100000000E-03 0.  1.
        -12    1    4    4    0    0 -0.65567140653E+01  0.40607531046E+01  0.50569727354E+01  0.92224285499E+01  0.00000000000E+00 0.  1.
</event>
<event>
 8    1  0.2433390E-006  0.9118800E+02  0.7816164E-02  0.1184000E+00
        -11   -1    0    0    0    0  0.00000000000E+00  0.00000000000E+00  0.45593999997E+02  0.45594000000E+02  0.51100000000E-03 0. -1.
         11   -1    0    0    0    0 -0.00000000000E+00 -0.00000000000E+00 -0.45593999997E+02  0.45594000000E+02  0.51100000000E-03 0.  1.
         23    2    1    2    0    0  0.88817841970E-15  0.44408920985E-15  0.71054273576E-14  0.91188000000E+02  0.91188000000E+02 0.  0.
    9900012    2    3    3    0    0 -0.47351760138E+01 -0.34651269625E+01  0.36350399359E+02  0.54367074831E+02  0.39999978691E+02 0.  0.
        -12    1    3    3    0    0  0.47351760138E+01  0.34651269625E+01 -0.36350399359E+02  0.36820925169E+02  0.00000000000E+00 0.  1.
         11    1    4    4    0    0  0.47679111371E+01 -0.90054422144E+01  0.34404742865E+02  0.35881991276E+02  0.51100000000E-03 0. -1.
        -11    1    4    4    0    0 -0.12267833092E+01  0.30703598082E+00  0.72425863275E+01  0.73521646713E+01  0.51100000000E-03 0.  1.
        -12    1    4    4    0    0 -0.82763038417E+01  0.52332792711E+01 -0.52969298327E+01  0.11132918883E+02  0.00000000000E+00 0.  1.
</event>
<event>
 8    1  0.2433390E-006  0.9118800E+02  0.7816164E-02  0.1184000E+00
        -11   -1    0    0    0    0  0.00000000000E+00  0.00000000000E+00  0.45593999997E+02  0.45594000000E+02  0.51100000000E-03 0.  1.
         11   -1    0    0    0    0 -0.00000000000E+00 -0.00000000000E+00 -0.45593999997E+02  0.45594000000E+02  0.51100000000E-03 0. -1.
         23    2    1    2    0    0  0.00000000000E+00  0.00000000000E+00  0.00000000000E+00  0.91188000000E+02  0.91188000000E+02 0.  0.
    9900012    2    3    3    0    0 -0.19677409122E+02  0.13708659275E+02  0.27940148422E+02  0.54367086612E+02  0.40000005549E+02 0.  0.
         12    1    3    3    0    0  0.19677409122E+02 -0.13708659275E+02 -0.27940148422E+02  0.36820913388E+02  0.00000000000E+00 0. -1.
         11    1    4    4    0    0 -0.11893625986E+00 -0.19979042929E+01  0.26445760869E+02  0.26521388267E+02  0.51100000000E-03 0. -1.
        -11    1    4    4    0    0 -0.99561536566E+01  0.14738502847E+02  0.31229159370E+01  0.18058268633E+02  0.51100000000E-03 0.  1.
         12    1    4    4    0    0 -0.96023192056E+01  0.96806072060E+00 -0.16285283834E+01  0.97874297126E+01  0.00000000000E+00 0. -1.
</event>
<event>
 8    1  0.2433390E-006  0.9118800E+02  0.7816164E-02  0.1184000E+00
        -11   -1    0    0    0    0  0.00000000000E+00  0.00000000000E+00  0.45593999997E+02  0.45594000000E+02  0.51100000000E-03 0. -1.
         11   -1    0    0    0    0 -0.00000000000E+00 -0.00000000000E+00 -0.45593999997E+02  0.45594000000E+02  0.51100000000E-03 0.  1.
         23    2    1    2    0    0  0.00000000000E+00 -0.35527136788E-14 -0.35527136788E-14  0.91188000000E+02  0.91188000000E+02 0.  0.
    9900012    2    3    3    0    0 -0.24335716465E+02 -0.21562206749E+02 -0.17280760071E+02  0.54367074911E+02  0.39999978875E+02 0.  0.
         12    1    3    3    0    0  0.24335716465E+02  0.21562206749E+02  0.17280760071E+02  0.36820925089E+02  0.00000000000E+00 0. -1.
         11    1    4    4    0    0 -0.86793967682E+01 -0.13846699591E+02 -0.13608051946E+02  0.21265984479E+02  0.51100000000E-03 0. -1.
        -11    1    4    4    0    0  0.95747962094E+00 -0.87130917160E+01 -0.11702731119E+02  0.14621513273E+02  0.51100000000E-03 0.  1.
         12    1    4    4    0    0 -0.16613799317E+02  0.99758455793E+00  0.80300229939E+01  0.18479577159E+02  0.00000000000E+00 0. -1.
</event>
<event>
 8    1  0.2433390E-006  0.9118800E+02  0.7816164E-02  0.1184000E+00
        -11   -1    0    0    0    0  0.00000000000E+00  0.00000000000E+00  0.45593999997E+02  0.45594000000E+02  0.51100000000E-03 0. -1.
         11   -1    0    0    0    0 -0.00000000000E+00 -0.00000000000E+00 -0.45593999997E+02  0.45594000000E+02  0.51100000000E-03 0.  1.
         23    2    1    2    0    0  0.00000000000E+00  0.00000000000E+00 -0.22204460493E-15  0.91188000000E+02  0.91188000000E+02 0.  0.
    9900012    2    3    3    0    0  0.23923606090E+02  0.27919225860E+02 -0.19890223487E+01  0.54367104969E+02  0.40000047397E+02 0.  0.
        -12    1    3    3    0    0 -0.23923606090E+02 -0.27919225860E+02  0.19890223487E+01  0.36820895031E+02  0.00000000000E+00 0.  1.
         11    1    4    4    0    0  0.25375732494E+02  0.54211942924E+01  0.69278231990E+01  0.26857250077E+02  0.51100000000E-03 0. -1.
        -11    1    4    4    0    0  0.50536781166E+01  0.65688056286E+01 -0.55567243900E+01  0.99782792154E+01  0.51100000000E-03 0.  1.
        -12    1    4    4    0    0 -0.65058045207E+01  0.15929225939E+02 -0.33601211576E+01  0.17531575676E+02  0.00000000000E+00 0.  1.
</event>
<event>
 8    1  0.2433390E-006  0.9118800E+02  0.7816164E-02  0.1184000E+00
        -11   -1    0    0    0    0  0.00000000000E+00  0.00000000000E+00  0.45593999997E+02  0.45594000000E+02  0.51100000000E-03 0.  1.
         11   -1    0    0    0    0 -0.00000000000E+00 -0.00000000000E+00 -0.45593999997E+02  0.45594000000E+02  0.51100000000E-03 0. -1.
         23    2    1    2    0    0  0.00000000000E+00  0.35527136788E-14 -0.88817841970E-15  0.91188000000E+02  0.91188000000E+02 0.  0.
    9900012    2    3    3    0    0  0.31932790253E+02  0.18063196491E+02 -0.31301222898E+01  0.54367084390E+02  0.40000000484E+02 0.  0.
        -12    1    3    3    0    0 -0.31932790253E+02 -0.18063196491E+02  0.31301222898E+01  0.36820915610E+02  0.00000000000E+00 0.  1.
         11    1    4    4    0    0  0.23047772854E+02  0.15107087822E+02 -0.45448632532E+01  0.27929907236E+02  0.51100000000E-03 0. -1.
        -11    1    4    4    0    0 -0.22875519415E+01  0.10613307235E+02  0.56586379769E+01  0.12243176400E+02  0.51100000000E-03 0.  1.
        -12    1    4    4    0    0  0.11172569340E+02 -0.76571985656E+01 -0.42438970136E+01  0.14194000754E+02  0.00000000000E+00 0.  1.
</event>
<event>
 8    1  0.2433390E-006  0.9118800E+02  0.7816164E-02  0.1184000E+00
        -11   -1    0    0    0    0  0.00000000000E+00  0.00000000000E+00  0.45593999997E+02  0.45594000000E+02  0.51100000000E-03 0.  1.
         11   -1    0    0    0    0 -0.00000000000E+00 -0.00000000000E+00 -0.45593999997E+02  0.45594000000E+02  0.51100000000E-03 0. -1.
         23    2    1    2    0    0  0.35527136788E-14 -0.25500435097E-15  0.00000000000E+00  0.91188000000E+02  0.91188000000E+02 0.  0.
    9900012    2    3    3    0    0  0.28378743095E+02 -0.12066108704E-01 -0.23461193689E+02  0.54367070971E+02  0.39999969892E+02 0.  0.
         12    1    3    3    0    0 -0.28378743095E+02  0.12066108704E-01  0.23461193689E+02  0.36820929029E+02  0.00000000000E+00 0. -1.
         11    1    4    4    0    0  0.24106299243E+02  0.41801131010E+01 -0.81266904839E+00  0.24479531041E+02  0.51100000000E-03 0. -1.
        -11    1    4    4    0    0 -0.21816769424E+01 -0.30926166561E+01  0.20719714688E+01  0.43147489024E+01  0.51100000000E-03 0.  1.
         12    1    4    4    0    0  0.64541207940E+01 -0.10995625537E+01 -0.24720496110E+02  0.25572791028E+02  0.00000000000E+00 0. -1.
</event>
<event>
 8    1  0.2433390E-006  0.9118800E+02  0.7816164E-02  0.1184000E+00
        -11   -1    0    0    0    0  0.00000000000E+00  0.00000000000E+00  0.45593999997E+02  0.45594000000E+02  0.51100000000E-03 0. -1.
         11   -1    0    0    0    0 -0.00000000000E+00 -0.00000000000E+00 -0.45593999997E+02  0.45594000000E+02  0.51100000000E-03 0.  1.
         23    2    1    2    0    0  0.00000000000E+00  0.00000000000E+00 -0.35527136788E-14  0.91188000000E+02  0.91188000000E+02 0.  0.
    9900012    2    3    3    0    0  0.37070942630E+01 -0.24573754474E+02 -0.27169241617E+02  0.54367086827E+02  0.40000006040E+02 0.  0.
         12    1    3    3    0    0 -0.37070942630E+01  0.24573754474E+02  0.27169241617E+02  0.36820913173E+02  0.00000000000E+00 0. -1.
         11    1    4    4    0    0  0.33256772576E+01 -0.16157294508E+02 -0.10256100996E+02  0.19424363643E+02  0.51100000000E-03 0. -1.
        -11    1    4    4    0    0 -0.27987204512E+01 -0.18363721633E+02 -0.15898357082E+02  0.24450293793E+02  0.51100000000E-03 0.  1.
         12    1    4    4    0    0  0.31801374567E+01  0.99472616668E+01 -0.10147835399E+01  0.10492429392E+02  0.00000000000E+00 0. -1.
</event>
<event>
 8    1  0.2433390E-006  0.9118800E+02  0.7816164E-02  0.1184000E+00
        -11   -1    0    0    0    0  0.00000000000E+00  0.00000000000E+00  0.45593999997E+02  0.45594000000E+02  0.51100000000E-03 0.  1.
         11   -1    0    0    0    0 -0.00000000000E+00 -0.00000000000E+00 -0.45593999997E+02  0.45594000000E+02  0.51100000000E-03 0. -1.
         23    2    1    2    0    0  0.00000000000E+00 -0.44408920985E-15  0.00000000000E+00  0.91188000000E+02  0.91188000000E+02 0.  0.
    9900012    2    3    3    0    0 -0.23795164508E+02 -0.21603342571E+01 -0.28016119507E+02  0.54367084065E+02  0.39999999743E+02 0.  0.
        -12    1    3    3    0    0  0.23795164508E+02  0.21603342571E+01  0.28016119507E+02  0.36820915935E+02  0.00000000000E+00 0.  1.
         11    1    4    4    0    0  0.51935007634E+01 -0.22701148913E+01 -0.85451820607E+01  0.10254072777E+02  0.51100000000E-03 0. -1.
        -11    1    4    4    0    0  0.41475438232E+01 -0.35266631080E+01  0.12334037718E+00  0.54456115867E+01  0.51100000000E-03 0.  1.
        -12    1    4    4    0    0 -0.33136209095E+02  0.36364437422E+01 -0.19594277823E+02  0.38667399702E+02  0.00000000000E+00 0.  1.
</event>
<event>
 8    1  0.2433390E-006  0.9118800E+02  0.7816164E-02  0.1184000E+00
        -11   -1    0    0    0    0  0.00000000000E+00  0.00000000000E+00  0.45593999997E+02  0.45594000000E+02  0.51100000000E-03 0.  1.
         11   -1    0    0    0    0 -0.00000000000E+00 -0.00000000000E+00 -0.45593999997E+02  0.45594000000E+02  0.51100000000E-03 0. -1.
         23    2    1    2    0    0  0.88817841970E-15 -0.35527136788E-14  0.35527136788E-14  0.91188000000E+02  0.91188000000E+02 0.  0.
    9900012    2    3    3    0    0 -0.66370144859E+01  0.27063440352E+02 -0.24068647144E+02  0.54367088274E+02  0.40000009338E+02 0.  0.
        -12    1    3    3    0    0  0.66370144859E+01 -0.27063440352E+02  0.24068647144E+02  0.36820911726E+02  0.00000000000E+00 0.  1.
         11    1    4    4    0    0 -0.13622738985E+02  0.62728631904E+01 -0.11594648745E+02  0.18956890827E+02  0.51100000000E-03 0. -1.
        -11    1    4    4    0    0  0.97216720461E+01  0.23152862492E+01 -0.13393278883E+02  0.16710816177E+02  0.51100000000E-03 0.  1.
         12    1    4    4    0    0 -0.27359475473E+01  0.18475290913E+02  0.91928048356E+00  0.18699381270E+02  0.00000000000E+00 0. -1.
</event>
<event>
 8    1  0.2433390E-006  0.9118800E+02  0.7816164E-02  0.1184000E+00
        -11   -1    0    0    0    0  0.00000000000E+00  0.00000000000E+00  0.45593999997E+02  0.45594000000E+02  0.51100000000E-03 0.  1.
         11   -1    0    0    0    0 -0.00000000000E+00 -0.00000000000E+00 -0.45593999997E+02  0.45594000000E+02  0.51100000000E-03 0. -1.
         23    2    1    2    0    0 -0.88817841970E-15  0.44408920985E-15 -0.71054273576E-14  0.91188000000E+02  0.91188000000E+02 0.  0.
    9900012    2    3    3    0    0  0.76391911670E+01 -0.32267550320E+01 -0.35874938699E+02  0.54367076378E+02  0.39999982219E+02 0.  0.
        -12    1    3    3    0    0 -0.76391911670E+01  0.32267550320E+01  0.35874938699E+02  0.36820923622E+02  0.00000000000E+00 0.  1.
         11    1    4    4    0    0 -0.55408941789E+01  0.63381016757E+01 -0.32814001247E+02  0.33876713525E+02  0.51100000000E-03 0. -1.
        -11    1    4    4    0    0  0.12553358764E+02 -0.58225304616E+01  0.21918198258E+01  0.14010451514E+02  0.51100000000E-03 0.  1.
        -12    1    4    4    0    0  0.62672658227E+00 -0.37423262460E+01 -0.52527572778E+01  0.64799113389E+01  0.00000000000E+00 0.  1.
</event>
<event>
 8    1  0.2433390E-006  0.9118800E+02  0.7816164E-02  0.1184000E+00
        -11   -1    0    0    0    0  0.00000000000E+00  0.00000000000E+00  0.45593999997E+02  0.45594000000E+02  0.51100000000E-03 0. -1.
         11   -1    0    0    0    0 -0.00000000000E+00 -0.00000000000E+00 -0.45593999997E+02  0.45594000000E+02  0.51100000000E-03 0.  1.
         23    2    1    2    0    0  0.00000000000E+00 -0.88817841970E-15  0.00000000000E+00  0.91188000000E+02  0.91188000000E+02 0.  0.
    9900012    2    3    3    0    0  0.96304015030E+01 -0.31514007824E+01 -0.35399220657E+02  0.54367071397E+02  0.39999970865E+02 0.  0.
         12    1    3    3    0    0 -0.96304015030E+01  0.31514007824E+01  0.35399220657E+02  0.36820928603E+02  0.00000000000E+00 0. -1.
         11    1    4    4    0    0  0.76950232404E+01 -0.95638696986E+01 -0.48640964262E+01  0.13203803262E+02  0.51100000000E-03 0. -1.
        -11    1    4    4    0    0 -0.52580026637E+01 -0.64609094309E+01 -0.23285845639E+02  0.24730963388E+02  0.51100000000E-03 0.  1.
         12    1    4    4    0    0  0.71933809263E+01  0.12873378347E+02 -0.72492785920E+01  0.16432304748E+02  0.00000000000E+00 0. -1.
</event>
<event>
 8    1  0.2433390E-006  0.9118800E+02  0.7816164E-02  0.1184000E+00
        -11   -1    0    0    0    0  0.00000000000E+00  0.00000000000E+00  0.45593999997E+02  0.45594000000E+02  0.51100000000E-03 0.  1.
         11   -1    0    0    0    0 -0.00000000000E+00 -0.00000000000E+00 -0.45593999997E+02  0.45594000000E+02  0.51100000000E-03 0. -1.
         23    2    1    2    0    0 -0.88817841970E-15  0.66613381478E-15 -0.71054273576E-14  0.91188000000E+02  0.91188000000E+02 0.  0.
    9900012    2    3    3    0    0  0.63629454932E+01  0.63280737736E+00 -0.36261456155E+02  0.54367072214E+02  0.39999972727E+02 0.  0.
        -12    1    3    3    0    0 -0.63629454932E+01 -0.63280737736E+00  0.36261456155E+02  0.36820927786E+02  0.00000000000E+00 0.  1.
         11    1    4    4    0    0  0.89670146534E+00  0.88523249605E+01 -0.16610597311E+02  0.18843557891E+02  0.51100000000E-03 0. -1.
        -11    1    4    4    0    0 -0.10277978409E+02 -0.44409085320E+01 -0.14922694118E+02  0.18655972469E+02  0.51100000000E-03 0.  1.
        -12    1    4    4    0    0  0.15744222437E+02 -0.37786090511E+01 -0.47281647268E+01  0.16867541854E+02  0.00000000000E+00 0.  1.
</event>
<event>
 8    1  0.2433390E-006  0.9118800E+02  0.7816164E-02  0.1184000E+00
        -11   -1    0    0    0    0  0.00000000000E+00  0.00000000000E+00  0.45593999997E+02  0.45594000000E+02  0.51100000000E-03 0.  1.
         11   -1    0    0    0    0 -0.00000000000E+00 -0.00000000000E+00 -0.45593999997E+02  0.45594000000E+02  0.51100000000E-03 0. -1.
         23    2    1    2    0    0  0.88817841970E-15  0.00000000000E+00  0.00000000000E+00  0.91188000000E+02  0.91188000000E+02 0.  0.
    9900012    2    3    3    0    0  0.64866653077E+01 -0.19434847902E+02 -0.30593961082E+02  0.54367073960E+02  0.39999976706E+02 0.  0.
        -12    1    3    3    0    0 -0.64866653077E+01  0.19434847902E+02  0.30593961082E+02  0.36820926040E+02  0.00000000000E+00 0.  1.
         11    1    4    4    0    0  0.40016105815E+01 -0.17821116326E+02 -0.39840475855E+02  0.43827714873E+02  0.51100000000E-03 0. -1.
        -11    1    4    4    0    0 -0.83141414986E-01  0.12253052853E+01  0.21459173600E+01  0.24724981525E+01  0.51100000000E-03 0.  1.
         12    1    4    4    0    0  0.25681961412E+01 -0.28390368611E+01  0.71005974131E+01  0.80668609348E+01  0.00000000000E+00 0. -1.
</event>
<event>
 8    1  0.2433390E-006  0.9118800E+02  0.7816164E-02  0.1184000E+00
        -11   -1    0    0    0    0  0.00000000000E+00  0.00000000000E+00  0.45593999997E+02  0.45594000000E+02  0.51100000000E-03 0. -1.
         11   -1    0    0    0    0 -0.00000000000E+00 -0.00000000000E+00 -0.45593999997E+02  0.45594000000E+02  0.51100000000E-03 0.  1.
         23    2    1    2    0    0  0.00000000000E+00  0.00000000000E+00  0.00000000000E+00  0.91188000000E+02  0.91188000000E+02 0.  0.
    9900012    2    3    3    0    0 -0.31460653434E+02  0.12305768067E+02  0.14648375293E+02  0.54367088266E+02  0.40000009320E+02 0.  0.
        -12    1    3    3    0    0  0.31460653434E+02 -0.12305768067E+02 -0.14648375293E+02  0.36820911734E+02  0.00000000000E+00 0.  1.
         11    1    4    4    0    0 -0.72230133023E+01 -0.60904755979E+01  0.22878189184E+01  0.97211074389E+01  0.51100000000E-03 0. -1.
        -11    1    4    4    0    0 -0.76545556876E+01 -0.83740390366E+01  0.43675603508E+01  0.12156987137E+02  0.51100000000E-03 0.  1.
         12    1    4    4    0    0 -0.16583084444E+02  0.26770282701E+02  0.79929960243E+01  0.32488993690E+02  0.00000000000E+00 0. -1.
</event>
<event>
 8    1  0.2433390E-006  0.9118800E+02  0.7816164E-02  0.1184000E+00
        -11   -1    0    0    0    0  0.00000000000E+00  0.00000000000E+00  0.45593999997E+02  0.45594000000E+02  0.51100000000E-03 0.  1.
         11   -1    0    0    0    0 -0.00000000000E+00 -0.00000000000E+00 -0.45593999997E+02  0.45594000000E+02  0.51100000000E-03 0. -1.
         23    2    1    2    0    0  0.35527136788E-14 -0.71054273576E-14  0.35527136788E-14  0.91188000000E+02  0.91188000000E+02 0.  0.
    9900012    2    3    3    0    0  0.23099866629E+02 -0.27035689086E+02  0.95523865731E+01  0.54367076439E+02  0.39999982359E+02 0.  0.
         12    1    3    3    0    0 -0.23099866629E+02  0.27035689086E+02 -0.95523865731E+01  0.36820923561E+02  0.00000000000E+00 0. -1.
         11    1    4    4    0    0  0.89282493916E+00 -0.65255498069E+00 -0.47320023886E+01  0.48595073044E+01  0.51100000000E-03 0. -1.
        -11    1    4    4    0    0  0.27442821008E+02 -0.21996418278E+02  0.17270439246E+01  0.35212689800E+02  0.51100000000E-03 0.  1.
         12    1    4    4    0    0 -0.52357793190E+01 -0.43867158277E+01  0.12557345037E+02  0.14294879335E+02  0.00000000000E+00 0. -1.
</event>
<event>
 8    1  0.2433390E-006  0.9118800E+02  0.7816164E-02  0.1184000E+00
        -11   -1    0    0    0    0  0.00000000000E+00  0.00000000000E+00  0.45593999997E+02  0.45594000000E+02  0.51100000000E-03 0. -1.
         11   -1    0    0    0    0 -0.00000000000E+00 -0.00000000000E+00 -0.45593999997E+02  0.45594000000E+02  0.51100000000E-03 0.  1.
         23    2    1    2    0    0  0.00000000000E+00 -0.17763568394E-14  0.71054273576E-14  0.91188000000E+02  0.91188000000E+02 0.  0.
    9900012    2    3    3    0    0  0.13066386604E+02  0.38029873676E+01 -0.34213841585E+02  0.54367080297E+02  0.39999991153E+02 0.  0.
         12    1    3    3    0    0 -0.13066386604E+02 -0.38029873676E+01  0.34213841585E+02  0.36820919703E+02  0.00000000000E+00 0. -1.
         11    1    4    4    0    0  0.28179395316E+01  0.71562872440E+01  0.24130624699E+01  0.80607754632E+01  0.51100000000E-03 0. -1.
        -11    1    4    4    0    0 -0.66682418036E+01  0.55820198055E+01 -0.15734645298E+02  0.17977860184E+02  0.51100000000E-03 0.  1.
        -12    1    4    4    0    0  0.16916688876E+02 -0.89353196819E+01 -0.20892258756E+02  0.28328444650E+02  0.00000000000E+00 0.  1.
</event>
<event>
 8    1  0.2433390E-006  0.9118800E+02  0.7816164E-02  0.1184000E+00
        -11   -1    0    0    0    0  0.00000000000E+00  0.00000000000E+00  0.45593999997E+02  0.45594000000E+02  0.51100000000E-03 0.  1.
         11   -1    0    0    0    0 -0.00000000000E+00 -0.00000000000E+00 -0.45593999997E+02  0.45594000000E+02  0.51100000000E-03 0. -1.
         23    2    1    2    0    0 -0.88817841970E-15  0.88817841970E-15 -0.71054273576E-14  0.91188000000E+02  0.91188000000E+02 0.  0.
    9900012    2    3    3    0    0 -0.12496752148E+01  0.65429471136E+01 -0.36213392089E+02  0.54367060147E+02  0.39999945218E+02 0.  0.
        -12    1    3    3    0    0  0.12496752148E+01 -0.65429471136E+01  0.36213392089E+02  0.36820939853E+02  0.00000000000E+00 0.  1.
         11    1    4    4    0    0  0.12995088875E+02  0.55063558333E+01 -0.12680308941E+02  0.18973205436E+02  0.51100000000E-03 0. -1.
        -11    1    4    4    0    0 -0.57848629204E+01 -0.10524026300E+02 -0.12290455401E+02  0.17183569559E+02  0.51100000000E-03 0.  1.
         12    1    4    4    0    0 -0.84599011695E+01  0.11560617581E+02 -0.11242627747E+02  0.18210285152E+02  0.00000000000E+00 0. -1.
</event>
<event>
 8    1  0.2433390E-006  0.9118800E+02  0.7816164E-02  0.1184000E+00
        -11   -1    0    0    0    0  0.00000000000E+00  0.00000000000E+00  0.45593999997E+02  0.45594000000E+02  0.51100000000E-03 0.  1.
         11   -1    0    0    0    0 -0.00000000000E+00 -0.00000000000E+00 -0.45593999997E+02  0.45594000000E+02  0.51100000000E-03 0. -1.
         23    2    1    2    0    0  0.00000000000E+00  0.00000000000E+00 -0.17763568394E-14  0.91188000000E+02  0.91188000000E+02 0.  0.
    9900012    2    3    3    0    0  0.10132394830E+02  0.32489839544E+02 -0.14054349225E+02  0.54367084330E+02  0.40000000348E+02 0.  0.
        -12    1    3    3    0    0 -0.10132394830E+02 -0.32489839544E+02  0.14054349225E+02  0.36820915670E+02  0.00000000000E+00 0.  1.
         11    1    4    4    0    0 -0.29235410197E+00  0.16723971552E+02 -0.85078169148E+01  0.18765917092E+02  0.51100000000E-03 0. -1.
        -11    1    4    4    0    0  0.89338658403E+01 -0.42302562872E+01 -0.11032122676E+02  0.14812722846E+02  0.51100000000E-03 0.  1.
        -12    1    4    4    0    0  0.14908830913E+01  0.19996124279E+02  0.54855903654E+01  0.20788444392E+02  0.00000000000E+00 0.  1.
</event>
<event>
 8    1  0.2433390E-006  0.9118800E+02  0.7816164E-02  0.1184000E+00
        -11   -1    0    0    0    0  0.00000000000E+00  0.00000000000E+00  0.45593999997E+02  0.45594000000E+02  0.51100000000E-03 0.  1.
         11   -1    0    0    0    0 -0.00000000000E+00 -0.00000000000E+00 -0.45593999997E+02  0.45594000000E+02  0.51100000000E-03 0. -1.
         23    2    1    2    0    0 -0.35527136788E-14 -0.35527136788E-14  0.00000000000E+00  0.91188000000E+02  0.91188000000E+02 0.  0.
    9900012    2    3    3    0    0  0.30548523782E+02  0.17584272205E+02 -0.10647034060E+02  0.54367105545E+02  0.40000048710E+02 0.  0.
         12    1    3    3    0    0 -0.30548523782E+02 -0.17584272205E+02  0.10647034060E+02  0.36820894455E+02  0.00000000000E+00 0. -1.
         11    1    4    4    0    0  0.14491877928E+02  0.12852745902E+02  0.91498778096E+01  0.21422601786E+02  0.51100000000E-03 0.  1.
        -11    1    4    4    0    0  0.36606112228E+00  0.55654077153E+01 -0.15765281133E+02  0.16722794421E+02  0.51100000000E-03 0. -1.
        -12    1    4    4    0    0  0.15690584732E+02 -0.83388141231E+00 -0.40316307361E+01  0.16221709337E+02  0.00000000000E+00 0.  1.
</event>
<event>
 8    1  0.2433390E-006  0.9118800E+02  0.7816164E-02  0.1184000E+00
        -11   -1    0    0    0    0  0.00000000000E+00  0.00000000000E+00  0.45593999997E+02  0.45594000000E+02  0.51100000000E-03 0.  1.
         11   -1    0    0    0    0 -0.00000000000E+00 -0.00000000000E+00 -0.45593999997E+02  0.45594000000E+02  0.51100000000E-03 0. -1.
         23    2    1    2    0    0 -0.35527136788E-14  0.00000000000E+00  0.00000000000E+00  0.91188000000E+02  0.91188000000E+02 0.  0.
    9900012    2    3    3    0    0 -0.20186495518E+02  0.82006003366E+01  0.29682305203E+02  0.54367031933E+02  0.39999880899E+02 0.  0.
         12    1    3    3    0    0  0.20186495518E+02 -0.82006003366E+01 -0.29682305203E+02  0.36820968067E+02  0.00000000000E+00 0. -1.
         11    1    4    4    0    0 -0.17504990258E+02  0.14132287793E+02  0.21700313324E+02  0.31257796481E+02  0.51100000000E-03 0. -1.
        -11    1    4    4    0    0 -0.84996045233E+01 -0.10993377569E+02  0.60709283988E+01  0.15164227620E+02  0.51100000000E-03 0.  1.
         12    1    4    4    0    0  0.58180992631E+01  0.50616901129E+01  0.19110634802E+01  0.79450078326E+01  0.00000000000E+00 0. -1.
</event>
<event>
 8    1  0.2433390E-006  0.9118800E+02  0.7816164E-02  0.1184000E+00
        -11   -1    0    0    0    0  0.00000000000E+00  0.00000000000E+00  0.45593999997E+02  0.45594000000E+02  0.51100000000E-03 0.  1.
         11   -1    0    0    0    0 -0.00000000000E+00 -0.00000000000E+00 -0.45593999997E+02  0.45594000000E+02  0.51100000000E-03 0. -1.
         23    2    1    2    0    0  0.00000000000E+00  0.88817841970E-15  0.35527136788E-14  0.91188000000E+02  0.91188000000E+02 0.  0.
    9900012    2    3    3    0    0 -0.30189954173E+02 -0.78780131253E+01  0.19552057879E+02  0.54367090301E+02  0.40000013960E+02 0.  0.
         12    1    3    3    0    0  0.30189954173E+02  0.78780131253E+01 -0.19552057879E+02  0.36820909699E+02  0.00000000000E+00 0. -1.
         11    1    4    4    0    0 -0.19495101237E+02 -0.37094817809E+00 -0.73441693817E+00  0.19512456107E+02  0.51100000000E-03 0. -1.
        -11    1    4    4    0    0 -0.95192724495E+01  0.54776401525E+01  0.18745726020E+02  0.21726097991E+02  0.51100000000E-03 0.  1.
         12    1    4    4    0    0 -0.11755804857E+01 -0.12984705100E+02  0.15407487965E+01  0.13128536204E+02  0.00000000000E+00 0. -1.
</event>
<event>
 8    1  0.2433390E-006  0.9118800E+02  0.7816164E-02  0.1184000E+00
        -11   -1    0    0    0    0  0.00000000000E+00  0.00000000000E+00  0.45593999997E+02  0.45594000000E+02  0.51100000000E-03 0.  1.
         11   -1    0    0    0    0 -0.00000000000E+00 -0.00000000000E+00 -0.45593999997E+02  0.45594000000E+02  0.51100000000E-03 0. -1.
         23    2    1    2    0    0  0.00000000000E+00  0.00000000000E+00  0.00000000000E+00  0.91188000000E+02  0.91188000000E+02 0.  0.
    9900012    2    3    3    0    0  0.26959099196E+02 -0.17736559906E+02 -0.17731364192E+02  0.54367083895E+02  0.39999999354E+02 0.  0.
         12    1    3    3    0    0 -0.26959099196E+02  0.17736559906E+02  0.17731364192E+02  0.36820916105E+02  0.00000000000E+00 0. -1.
         11    1    4    4    0    0  0.61545114912E+01 -0.14295589294E+02 -0.24140204451E+02  0.28722662762E+02  0.51100000000E-03 0. -1.
        -11    1    4    4    0    0  0.39813226124E+01  0.13917023489E+01  0.69532034979E+01  0.81323308047E+01  0.51100000000E-03 0.  1.
         12    1    4    4    0    0  0.16823265092E+02 -0.48326729604E+01 -0.54436323877E+00  0.17512090328E+02  0.00000000000E+00 0. -1.
</event>
<event>
 8    1  0.2433390E-006  0.9118800E+02  0.7816164E-02  0.1184000E+00
        -11   -1    0    0    0    0  0.00000000000E+00  0.00000000000E+00  0.45593999997E+02  0.45594000000E+02  0.51100000000E-03 0. -1.
         11   -1    0    0    0    0 -0.00000000000E+00 -0.00000000000E+00 -0.45593999997E+02  0.45594000000E+02  0.51100000000E-03 0.  1.
         23    2    1    2    0    0  0.77715611724E-15  0.00000000000E+00 -0.35527136788E-14  0.91188000000E+02  0.91188000000E+02 0.  0.
    9900012    2    3    3    0    0 -0.22216514085E+00  0.29556348542E+02 -0.21957971392E+02  0.54367087408E+02  0.40000007363E+02 0.  0.
         12    1    3    3    0    0  0.22216514085E+00 -0.29556348542E+02  0.21957971392E+02  0.36820912592E+02  0.00000000000E+00 0. -1.
         11    1    4    4    0    0  0.42709262883E+01  0.17600890912E+00 -0.58599451579E+01  0.72533266858E+01  0.51100000000E-03 0. -1.
        -11    1    4    4    0    0  0.71116045016E+01  0.86950619724E+01  0.76181894951E+01  0.13572613335E+02  0.51100000000E-03 0.  1.
         12    1    4    4    0    0 -0.11604695931E+02  0.20685277660E+02 -0.23716215729E+02  0.33541147387E+02  0.00000000000E+00 0. -1.
</event>
<event>
 8    1  0.2433390E-006  0.9118800E+02  0.7816164E-02  0.1184000E+00
        -11   -1    0    0    0    0  0.00000000000E+00  0.00000000000E+00  0.45593999997E+02  0.45594000000E+02  0.51100000000E-03 0.  1.
         11   -1    0    0    0    0 -0.00000000000E+00 -0.00000000000E+00 -0.45593999997E+02  0.45594000000E+02  0.51100000000E-03 0. -1.
         23    2    1    2    0    0  0.71054273576E-14  0.31086244690E-14  0.00000000000E+00  0.91188000000E+02  0.91188000000E+02 0.  0.
    9900012    2    3    3    0    0 -0.34365057550E+02  0.10632936789E+01 -0.13179261569E+02  0.54367072399E+02  0.39999973149E+02 0.  0.
        -12    1    3    3    0    0  0.34365057550E+02 -0.10632936789E+01  0.13179261569E+02  0.36820927601E+02  0.00000000000E+00 0.  1.
         11    1    4    4    0    0 -0.29001426617E+01  0.12676481593E+02  0.43712240531E+01  0.13719023763E+02  0.51100000000E-03 0. -1.
        -11    1    4    4    0    0  0.49485795960E+00 -0.17492699013E+01  0.13182106230E+01  0.22455531825E+01  0.51100000000E-03 0.  1.
         12    1    4    4    0    0 -0.31959772848E+02 -0.98639180128E+01 -0.18868696245E+02  0.38402495453E+02  0.00000000000E+00 0. -1.
</event>
<event>
 8    1  0.2433390E-006  0.9118800E+02  0.7816164E-02  0.1184000E+00
        -11   -1    0    0    0    0  0.00000000000E+00  0.00000000000E+00  0.45593999997E+02  0.45594000000E+02  0.51100000000E-03 0.  1.
         11   -1    0    0    0    0 -0.00000000000E+00 -0.00000000000E+00 -0.45593999997E+02  0.45594000000E+02  0.51100000000E-03 0. -1.
         23    2    1    2    0    0  0.17763568394E-14  0.00000000000E+00  0.00000000000E+00  0.91188000000E+02  0.91188000000E+02 0.  0.
    9900012    2    3    3    0    0 -0.14680869645E+02  0.17567217563E+02  0.28838258119E+02  0.54367079346E+02  0.39999988986E+02 0.  0.
         12    1    3    3    0    0  0.14680869645E+02 -0.17567217563E+02 -0.28838258119E+02  0.36820920654E+02  0.00000000000E+00 0. -1.
         11    1    4    4    0    0 -0.56096626574E+01 -0.28395557914E+00 -0.47946029996E+01  0.73849281706E+01  0.51100000000E-03 0. -1.
        -11    1    4    4    0    0  0.17635716623E+01  0.15007102939E+02  0.32352664901E+02  0.35707397694E+02  0.51100000000E-03 0.  1.
        -12    1    4    4    0    0 -0.10834778650E+02  0.28440702033E+01  0.12801962178E+01  0.11274753482E+02  0.00000000000E+00 0.  1.
</event>
<event>
 8    1  0.2433390E-006  0.9118800E+02  0.7816164E-02  0.1184000E+00
        -11   -1    0    0    0    0  0.00000000000E+00  0.00000000000E+00  0.45593999997E+02  0.45594000000E+02  0.51100000000E-03 0.  1.
         11   -1    0    0    0    0 -0.00000000000E+00 -0.00000000000E+00 -0.45593999997E+02  0.45594000000E+02  0.51100000000E-03 0. -1.
         23    2    1    2    0    0  0.00000000000E+00  0.00000000000E+00  0.00000000000E+00  0.91188000000E+02  0.91188000000E+02 0.  0.
    9900012    2    3    3    0    0 -0.28471510564E+02 -0.21120100909E+02  0.99546540023E+01  0.54367072357E+02  0.39999973052E+02 0.  0.
         12    1    3    3    0    0  0.28471510564E+02  0.21120100909E+02 -0.99546540023E+01  0.36820927643E+02  0.00000000000E+00 0. -1.
         11    1    4    4    0    0 -0.74611205097E+01  0.29739369230E+01 -0.39736015145E+01  0.89611455372E+01  0.51100000000E-03 0. -1.
        -11    1    4    4    0    0 -0.40617643602E+01 -0.16654131548E+02  0.19607643386E+02  0.26044533145E+02  0.51100000000E-03 0.  1.
        -12    1    4    4    0    0 -0.16948625694E+02 -0.74399062843E+01 -0.56793878697E+01  0.19361393674E+02  0.00000000000E+00 0.  1.
</event>
<event>
 8    1  0.2433390E-006  0.9118800E+02  0.7816164E-02  0.1184000E+00
        -11   -1    0    0    0    0  0.00000000000E+00  0.00000000000E+00  0.45593999997E+02  0.45594000000E+02  0.51100000000E-03 0.  1.
         11   -1    0    0    0    0 -0.00000000000E+00 -0.00000000000E+00 -0.45593999997E+02  0.45594000000E+02  0.51100000000E-03 0. -1.
         23    2    1    2    0    0 -0.88817841970E-15  0.00000000000E+00  0.71054273576E-14  0.91188000000E+02  0.91188000000E+02 0.  0.
    9900012    2    3    3    0    0 -0.65989022360E+01 -0.11999536664E+02  0.34179605643E+02  0.54367084303E+02  0.40000000286E+02 0.  0.
         12    1    3    3    0    0  0.65989022360E+01  0.11999536664E+02 -0.34179605643E+02  0.36820915697E+02  0.00000000000E+00 0. -1.
         11    1    4    4    0    0 -0.33755733420E+01 -0.59439008650E+01  0.48624684485E-02  0.68355304684E+01  0.51100000000E-03 0. -1.
        -11    1    4    4    0    0 -0.55134774456E+00 -0.19337183630E+02  0.22245193870E+02  0.29480151045E+02  0.51100000000E-03 0.  1.
         12    1    4    4    0    0 -0.26719811495E+01  0.13281547831E+02  0.11929549305E+02  0.18051402789E+02  0.00000000000E+00 0. -1.
</event>
<event>
 8    1  0.2433390E-006  0.9118800E+02  0.7816164E-02  0.1184000E+00
        -11   -1    0    0    0    0  0.00000000000E+00  0.00000000000E+00  0.45593999997E+02  0.45594000000E+02  0.51100000000E-03 0.  1.
         11   -1    0    0    0    0 -0.00000000000E+00 -0.00000000000E+00 -0.45593999997E+02  0.45594000000E+02  0.51100000000E-03 0. -1.
         23    2    1    2    0    0  0.17763568394E-14 -0.88817841970E-15  0.00000000000E+00  0.91188000000E+02  0.91188000000E+02 0.  0.
    9900012    2    3    3    0    0  0.87413437358E+01 -0.53781295848E+01  0.35361601632E+02  0.54367105957E+02  0.40000049650E+02 0.  0.
         12    1    3    3    0    0 -0.87413437358E+01  0.53781295848E+01 -0.35361601632E+02  0.36820894043E+02  0.00000000000E+00 0. -1.
         11    1    4    4    0    0  0.52666648535E+01 -0.21586968078E+01  0.10566013763E+00  0.56928810732E+01  0.51100000000E-03 0. -1.
        -11    1    4    4    0    0  0.15925126915E+02  0.50646327081E+01  0.26546300580E+02  0.31368236266E+02  0.51100000000E-03 0.  1.
         12    1    4    4    0    0 -0.12450448033E+02 -0.82840654851E+01  0.87096409147E+01  0.17305988618E+02  0.00000000000E+00 0. -1.
</event>
<event>
 8    1  0.2433390E-006  0.9118800E+02  0.7816164E-02  0.1184000E+00
        -11   -1    0    0    0    0  0.00000000000E+00  0.00000000000E+00  0.45593999997E+02  0.45594000000E+02  0.51100000000E-03 0.  1.
         11   -1    0    0    0    0 -0.00000000000E+00 -0.00000000000E+00 -0.45593999997E+02  0.45594000000E+02  0.51100000000E-03 0. -1.
         23    2    1    2    0    0  0.00000000000E+00  0.00000000000E+00  0.00000000000E+00  0.91188000000E+02  0.91188000000E+02 0.  0.
    9900012    2    3    3    0    0  0.11909150243E+02  0.33205005198E+02 -0.10553745118E+02  0.54367058055E+02  0.39999940448E+02 0.  0.
        -12    1    3    3    0    0 -0.11909150243E+02 -0.33205005198E+02  0.10553745118E+02  0.36820941945E+02  0.00000000000E+00 0.  1.
         11    1    4    4    0    0  0.11931190528E+01  0.29842367896E+02 -0.10735758349E+02  0.31737154288E+02  0.51100000000E-03 0. -1.
        -11    1    4    4    0    0 -0.56342402374E+01  0.24688229900E+01 -0.91234345403E+00  0.62186912488E+01  0.51100000000E-03 0.  1.
         12    1    4    4    0    0  0.16350271427E+02  0.89381431172E+00  0.10943566846E+01  0.16411212518E+02  0.00000000000E+00 0. -1.
</event>
<event>
 8    1  0.2433390E-006  0.9118800E+02  0.7816164E-02  0.1184000E+00
        -11   -1    0    0    0    0  0.00000000000E+00  0.00000000000E+00  0.45593999997E+02  0.45594000000E+02  0.51100000000E-03 0. -1.
         11   -1    0    0    0    0 -0.00000000000E+00 -0.00000000000E+00 -0.45593999997E+02  0.45594000000E+02  0.51100000000E-03 0.  1.
         23    2    1    2    0    0 -0.11102230246E-15  0.71054273576E-14  0.00000000000E+00  0.91188000000E+02  0.91188000000E+02 0.  0.
    9900012    2    3    3    0    0 -0.71833274767E+00  0.36205447149E+02 -0.66656039010E+01  0.54367072790E+02  0.39999974040E+02 0.  0.
         12    1    3    3    0    0  0.71833274767E+00 -0.36205447149E+02  0.66656039010E+01  0.36820927210E+02  0.00000000000E+00 0. -1.
         11    1    4    4    0    0 -0.31469345610E+00  0.14802385168E+01 -0.12784717592E+02  0.12873971501E+02  0.51100000000E-03 0.  1.
        -11    1    4    4    0    0 -0.20578268063E+01 -0.20057627124E+01  0.36453172986E+01  0.46417748428E+01  0.51100000000E-03 0. -1.
         12    1    4    4    0    0  0.16541875147E+01  0.36730971345E+02  0.24737963922E+01  0.36851326447E+02  0.00000000000E+00 0. -1.
</event>
<event>
 8    1  0.2433390E-006  0.9118800E+02  0.7816164E-02  0.1184000E+00
        -11   -1    0    0    0    0  0.00000000000E+00  0.00000000000E+00  0.45593999997E+02  0.45594000000E+02  0.51100000000E-03 0.  1.
         11   -1    0    0    0    0 -0.00000000000E+00 -0.00000000000E+00 -0.45593999997E+02  0.45594000000E+02  0.51100000000E-03 0. -1.
         23    2    1    2    0    0 -0.35527136788E-14  0.00000000000E+00 -0.35527136788E-14  0.91188000000E+02  0.91188000000E+02 0.  0.
    9900012    2    3    3    0    0  0.26956697185E+02 -0.20597141623E+02  0.14313447508E+02  0.54367074622E+02  0.39999978215E+02 0.  0.
         12    1    3    3    0    0 -0.26956697185E+02  0.20597141623E+02 -0.14313447508E+02  0.36820925378E+02  0.00000000000E+00 0. -1.
         11    1    4    4    0    0  0.63530632578E+01  0.12575845126E+00  0.12340299871E+01  0.64730254298E+01  0.51100000000E-03 0. -1.
        -11    1    4    4    0    0 -0.69274291214E+01 -0.16081618921E+02  0.11968590984E+01  0.17551074421E+02  0.51100000000E-03 0.  1.
        -12    1    4    4    0    0  0.27531063048E+02 -0.46412811529E+01  0.11882558423E+02  0.30342974771E+02  0.00000000000E+00 0.  1.
</event>
<event>
 8    1  0.2433390E-006  0.9118800E+02  0.7816164E-02  0.1184000E+00
        -11   -1    0    0    0    0  0.00000000000E+00  0.00000000000E+00  0.45593999997E+02  0.45594000000E+02  0.51100000000E-03 0. -1.
         11   -1    0    0    0    0 -0.00000000000E+00 -0.00000000000E+00 -0.45593999997E+02  0.45594000000E+02  0.51100000000E-03 0.  1.
         23    2    1    2    0    0  0.35527136788E-14  0.00000000000E+00  0.35527136788E-14  0.91188000000E+02  0.91188000000E+02 0.  0.
    9900012    2    3    3    0    0 -0.25138849976E+02 -0.20628994189E+02 -0.17270656611E+02  0.54366908773E+02  0.39999600127E+02 0.  0.
         12    1    3    3    0    0  0.25138849976E+02  0.20628994189E+02  0.17270656611E+02  0.36821091227E+02  0.00000000000E+00 0. -1.
         11    1    4    4    0    0  0.33899416203E+00 -0.28091748496E+00  0.24000805720E+01  0.24401267771E+01  0.51100000000E-03 0. -1.
        -11    1    4    4    0    0  0.28054409191E+01 -0.15759134171E+02 -0.16679921407E+02  0.23117971083E+02  0.51100000000E-03 0.  1.
         12    1    4    4    0    0 -0.28283285057E+02 -0.45889425328E+01 -0.29908157760E+01  0.28808810913E+02  0.00000000000E+00 0. -1.
</event>
<event>
 8    1  0.2433390E-006  0.9118800E+02  0.7816164E-02  0.1184000E+00
        -11   -1    0    0    0    0  0.00000000000E+00  0.00000000000E+00  0.45593999997E+02  0.45594000000E+02  0.51100000000E-03 0.  1.
         11   -1    0    0    0    0 -0.00000000000E+00 -0.00000000000E+00 -0.45593999997E+02  0.45594000000E+02  0.51100000000E-03 0. -1.
         23    2    1    2    0    0  0.00000000000E+00  0.35527136788E-14  0.00000000000E+00  0.91188000000E+02  0.91188000000E+02 0.  0.
    9900012    2    3    3    0    0  0.17695466807E+02  0.17117344465E+02  0.27379684036E+02  0.54367080335E+02  0.39999991240E+02 0.  0.
         12    1    3    3    0    0 -0.17695466807E+02 -0.17117344465E+02 -0.27379684036E+02  0.36820919665E+02  0.00000000000E+00 0. -1.
         11    1    4    4    0    0 -0.15644325311E+01  0.79274043769E-02 -0.19375377453E+01  0.24902941119E+01  0.51100000000E-03 0. -1.
        -11    1    4    4    0    0  0.70135599339E+01 -0.40083035886E+01 -0.51943902144E+01  0.96040726031E+01  0.51100000000E-03 0.  1.
        -12    1    4    4    0    0  0.12246339404E+02  0.21117720649E+02  0.34511611996E+02  0.42272713620E+02  0.00000000000E+00 0.  1.
</event>
<event>
 8    1  0.2433390E-006  0.9118800E+02  0.7816164E-02  0.1184000E+00
        -11   -1    0    0    0    0  0.00000000000E+00  0.00000000000E+00  0.45593999997E+02  0.45594000000E+02  0.51100000000E-03 0. -1.
         11   -1    0    0    0    0 -0.00000000000E+00 -0.00000000000E+00 -0.45593999997E+02  0.45594000000E+02  0.51100000000E-03 0.  1.
         23    2    1    2    0    0  0.00000000000E+00  0.35527136788E-14  0.17763568394E-14  0.91188000000E+02  0.91188000000E+02 0.  0.
    9900012    2    3    3    0    0  0.20667015146E+02 -0.25989066516E+02  0.15912976458E+02  0.54367083211E+02  0.39999997796E+02 0.  0.
        -12    1    3    3    0    0 -0.20667015146E+02  0.25989066516E+02 -0.15912976458E+02  0.36820916789E+02  0.00000000000E+00 0.  1.
         11    1    4    4    0    0  0.65724514523E+01 -0.18072593223E+02 -0.84836161987E+01  0.21018741351E+02  0.51100000000E-03 0. -1.
        -11    1    4    4    0    0  0.13234384546E+01  0.44181979302E+01  0.77008361942E+01  0.89763489596E+01  0.51100000000E-03 0.  1.
         12    1    4    4    0    0  0.12771125239E+02 -0.12334671223E+02  0.16695756463E+02  0.24371992900E+02  0.00000000000E+00 0. -1.
</event>
<event>
 8    1  0.2433390E-006  0.9118800E+02  0.7816164E-02  0.1184000E+00
        -11   -1    0    0    0    0  0.00000000000E+00  0.00000000000E+00  0.45593999997E+02  0.45594000000E+02  0.51100000000E-03 0. -1.
         11   -1    0    0    0    0 -0.00000000000E+00 -0.00000000000E+00 -0.45593999997E+02  0.45594000000E+02  0.51100000000E-03 0.  1.
         23    2    1    2    0    0 -0.71054273576E-14  0.66613381478E-15 -0.22204460493E-14  0.91188000000E+02  0.91188000000E+02 0.  0.
    9900012    2    3    3    0    0  0.36749825308E+02  0.16054296244E+01  0.16287085026E+01  0.54367085348E+02  0.40000002668E+02 0.  0.
         12    1    3    3    0    0 -0.36749825308E+02 -0.16054296244E+01 -0.16287085026E+01  0.36820914652E+02  0.00000000000E+00 0. -1.
         11    1    4    4    0    0  0.14362697163E+02  0.26166854820E+01  0.10753969654E+02  0.18132346133E+02  0.51100000000E-03 0. -1.
        -11    1    4    4    0    0  0.25309772574E+01 -0.96215471042E+01 -0.10605487129E+02  0.14541539535E+02  0.51100000000E-03 0.  1.
        -12    1    4    4    0    0  0.19856150888E+02  0.86102912466E+01  0.14802259774E+01  0.21693199680E+02  0.00000000000E+00 0.  1.
</event>
<event>
 8    1  0.2433390E-006  0.9118800E+02  0.7816164E-02  0.1184000E+00
        -11   -1    0    0    0    0  0.00000000000E+00  0.00000000000E+00  0.45593999997E+02  0.45594000000E+02  0.51100000000E-03 0.  1.
         11   -1    0    0    0    0 -0.00000000000E+00 -0.00000000000E+00 -0.45593999997E+02  0.45594000000E+02  0.51100000000E-03 0. -1.
         23    2    1    2    0    0  0.00000000000E+00  0.00000000000E+00 -0.35527136788E-14  0.91188000000E+02  0.91188000000E+02 0.  0.
    9900012    2    3    3    0    0 -0.29398785702E+02 -0.22375453256E+01  0.22056399808E+02  0.54367082272E+02  0.39999995656E+02 0.  0.
         12    1    3    3    0    0  0.29398785702E+02  0.22375453256E+01 -0.22056399808E+02  0.36820917728E+02  0.00000000000E+00 0. -1.
         11    1    4    4    0    0 -0.20166949020E+02  0.98811072338E+01  0.15093719689E+02  0.27058501201E+02  0.51100000000E-03 0. -1.
        -11    1    4    4    0    0 -0.10233879909E+02 -0.43697173878E+01  0.13233283875E+02  0.17290070284E+02  0.51100000000E-03 0.  1.
        -12    1    4    4    0    0  0.10020432271E+01 -0.77489351716E+01 -0.62706037564E+01  0.10018510787E+02  0.00000000000E+00 0.  1.
</event>
<event>
 8    1  0.2433390E-006  0.9118800E+02  0.7816164E-02  0.1184000E+00
        -11   -1    0    0    0    0  0.00000000000E+00  0.00000000000E+00  0.45593999997E+02  0.45594000000E+02  0.51100000000E-03 0.  1.
         11   -1    0    0    0    0 -0.00000000000E+00 -0.00000000000E+00 -0.45593999997E+02  0.45594000000E+02  0.51100000000E-03 0. -1.
         23    2    1    2    0    0  0.17763568394E-14  0.00000000000E+00  0.00000000000E+00  0.91188000000E+02  0.91188000000E+02 0.  0.
    9900012    2    3    3    0    0 -0.12931065082E+02 -0.95773411836E+01  0.33118600583E+02  0.54367087289E+02  0.40000007092E+02 0.  0.
         12    1    3    3    0    0  0.12931065082E+02  0.95773411836E+01 -0.33118600583E+02  0.36820912711E+02  0.00000000000E+00 0. -1.
         11    1    4    4    0    0  0.10457147832E+01  0.29181734387E+01 -0.26305355414E+01  0.40655839829E+01  0.51100000000E-03 0. -1.
        -11    1    4    4    0    0 -0.22060143047E+02 -0.87032924032E+01  0.15942911520E+02  0.28575752622E+02  0.51100000000E-03 0.  1.
         12    1    4    4    0    0  0.80833631822E+01 -0.37922222190E+01  0.19806224604E+02  0.21725750684E+02  0.00000000000E+00 0. -1.
</event>
<event>
 8    1  0.2433390E-006  0.9118800E+02  0.7816164E-02  0.1184000E+00
        -11   -1    0    0    0    0  0.00000000000E+00  0.00000000000E+00  0.45593999997E+02  0.45594000000E+02  0.51100000000E-03 0. -1.
         11   -1    0    0    0    0 -0.00000000000E+00 -0.00000000000E+00 -0.45593999997E+02  0.45594000000E+02  0.51100000000E-03 0.  1.
         23    2    1    2    0    0 -0.17763568394E-14 -0.17763568394E-14  0.00000000000E+00  0.91188000000E+02  0.91188000000E+02 0.  0.
    9900012    2    3    3    0    0 -0.12324499539E+02  0.40852695362E+01  0.34455743996E+02  0.54367068312E+02  0.39999963831E+02 0.  0.
        -12    1    3    3    0    0  0.12324499539E+02 -0.40852695362E+01 -0.34455743996E+02  0.36820931688E+02  0.00000000000E+00 0.  1.
         11    1    4    4    0    0  0.56081411150E+01 -0.20974863486E+01  0.29654623385E+02  0.30253055781E+02  0.51100000000E-03 0. -1.
        -11    1    4    4    0    0 -0.27349475893E+01 -0.90026458129E+00 -0.41933248705E+01  0.50866873664E+01  0.51100000000E-03 0.  1.
         12    1    4    4    0    0 -0.15197693065E+02  0.70830204661E+01  0.89944454814E+01  0.19027325165E+02  0.00000000000E+00 0. -1.
</event>
<event>
 8    1  0.2433390E-006  0.9118800E+02  0.7816164E-02  0.1184000E+00
        -11   -1    0    0    0    0  0.00000000000E+00  0.00000000000E+00  0.45593999997E+02  0.45594000000E+02  0.51100000000E-03 0.  1.
         11   -1    0    0    0    0 -0.00000000000E+00 -0.00000000000E+00 -0.45593999997E+02  0.45594000000E+02  0.51100000000E-03 0. -1.
         23    2    1    2    0    0  0.35527136788E-14 -0.22204460493E-15  0.00000000000E+00  0.91188000000E+02  0.91188000000E+02 0.  0.
    9900012    2    3    3    0    0  0.31803746846E+02 -0.48837874814E+00  0.18548949060E+02  0.54367077436E+02  0.39999984630E+02 0.  0.
         12    1    3    3    0    0 -0.31803746846E+02  0.48837874814E+00 -0.18548949060E+02  0.36820922564E+02  0.00000000000E+00 0. -1.
         11    1    4    4    0    0  0.81379870642E+01  0.15306729608E+02  0.88812676151E+01  0.19478185734E+02  0.51100000000E-03 0. -1.
        -11    1    4    4    0    0 -0.10532699341E+01 -0.81535876193E+00  0.55328737993E+01  0.56909472151E+01  0.51100000000E-03 0.  1.
        -12    1    4    4    0    0  0.24719029716E+02 -0.14979749595E+02  0.41348076460E+01  0.29197944487E+02  0.00000000000E+00 0.  1.
</event>
<event>
 8    1  0.2433390E-006  0.9118800E+02  0.7816164E-02  0.1184000E+00
        -11   -1    0    0    0    0  0.00000000000E+00  0.00000000000E+00  0.45593999997E+02  0.45594000000E+02  0.51100000000E-03 0. -1.
         11   -1    0    0    0    0 -0.00000000000E+00 -0.00000000000E+00 -0.45593999997E+02  0.45594000000E+02  0.51100000000E-03 0.  1.
         23    2    1    2    0    0 -0.22204460493E-15  0.17763568394E-14  0.00000000000E+00  0.91188000000E+02  0.91188000000E+02 0.  0.
    9900012    2    3    3    0    0 -0.18515342567E+01 -0.10065122815E+02 -0.35370113066E+02  0.54367085092E+02  0.40000002084E+02 0.  0.
         12    1    3    3    0    0  0.18515342567E+01  0.10065122815E+02  0.35370113066E+02  0.36820914908E+02  0.00000000000E+00 0. -1.
         11    1    4    4    0    0 -0.10923344326E+02  0.54286926989E+01  0.12304531040E+01  0.12259860146E+02  0.51100000000E-03 0. -1.
        -11    1    4    4    0    0  0.28361995377E+01 -0.34605654305E+01 -0.19132292387E+01  0.48662087190E+01  0.51100000000E-03 0.  1.
         12    1    4    4    0    0  0.62356105321E+01 -0.12033250084E+02 -0.34687336931E+02  0.37241016227E+02  0.00000000000E+00 0. -1.
</event>
<event>
 8    1  0.2433390E-006  0.9118800E+02  0.7816164E-02  0.1184000E+00
        -11   -1    0    0    0    0  0.00000000000E+00  0.00000000000E+00  0.45593999997E+02  0.45594000000E+02  0.51100000000E-03 0. -1.
         11   -1    0    0    0    0 -0.00000000000E+00 -0.00000000000E+00 -0.45593999997E+02  0.45594000000E+02  0.51100000000E-03 0.  1.
         23    2    1    2    0    0  0.44408920985E-15  0.00000000000E+00 -0.17763568394E-14  0.91188000000E+02  0.91188000000E+02 0.  0.
    9900012    2    3    3    0    0 -0.17644912386E+01 -0.33174594286E+02 -0.15878287812E+02  0.54366984815E+02  0.39999773482E+02 0.  0.
         12    1    3    3    0    0  0.17644912386E+01  0.33174594286E+02  0.15878287812E+02  0.36821015185E+02  0.00000000000E+00 0. -1.
         11    1    4    4    0    0  0.63448833666E+01 -0.13763236379E+01  0.16603033410E+01  0.67013744215E+01  0.51100000000E-03 0. -1.
        -11    1    4    4    0    0  0.61016191439E+01 -0.26994237641E+02 -0.50190355979E+01  0.28126666006E+02  0.51100000000E-03 0.  1.
         12    1    4    4    0    0 -0.14210993749E+02 -0.48040330073E+01 -0.12519555556E+02  0.19538944388E+02  0.00000000000E+00 0. -1.
</event>
<event>
 8    1  0.2433390E-006  0.9118800E+02  0.7816164E-02  0.1184000E+00
        -11   -1    0    0    0    0  0.00000000000E+00  0.00000000000E+00  0.45593999997E+02  0.45594000000E+02  0.51100000000E-03 0.  1.
         11   -1    0    0    0    0 -0.00000000000E+00 -0.00000000000E+00 -0.45593999997E+02  0.45594000000E+02  0.51100000000E-03 0. -1.
         23    2    1    2    0    0  0.00000000000E+00 -0.88817841970E-15 -0.35527136788E-14  0.91188000000E+02  0.91188000000E+02 0.  0.
    9900012    2    3    3    0    0 -0.17038176225E+02 -0.78079797345E+01 -0.31694073405E+02  0.54367105312E+02  0.40000048180E+02 0.  0.
        -12    1    3    3    0    0  0.17038176225E+02  0.78079797345E+01  0.31694073405E+02  0.36820894688E+02  0.00000000000E+00 0.  1.
         11    1    4    4    0    0 -0.11308216401E+01  0.29006608662E+00 -0.10285646791E+02  0.10351687113E+02  0.51100000000E-03 0. -1.
        -11    1    4    4    0    0  0.77753320576E+01  0.11809693470E+00 -0.16821321914E+02  0.18531772896E+02  0.51100000000E-03 0.  1.
        -12    1    4    4    0    0 -0.23682686642E+02 -0.82161427558E+01 -0.45871047001E+01  0.25483645303E+02  0.00000000000E+00 0.  1.
</event>
<event>
 8    1  0.2433390E-006  0.9118800E+02  0.7816164E-02  0.1184000E+00
        -11   -1    0    0    0    0  0.00000000000E+00  0.00000000000E+00  0.45593999997E+02  0.45594000000E+02  0.51100000000E-03 0. -1.
         11   -1    0    0    0    0 -0.00000000000E+00 -0.00000000000E+00 -0.45593999997E+02  0.45594000000E+02  0.51100000000E-03 0.  1.
         23    2    1    2    0    0 -0.88817841970E-15  0.00000000000E+00  0.26645352591E-14  0.91188000000E+02  0.91188000000E+02 0.  0.
    9900012    2    3    3    0    0  0.54983860842E+01 -0.35747183437E+02  0.69055554974E+01  0.54367081082E+02  0.39999992943E+02 0.  0.
         12    1    3    3    0    0 -0.54983860842E+01  0.35747183437E+02 -0.69055554974E+01  0.36820918918E+02  0.00000000000E+00 0. -1.
         11    1    4    4    0    0  0.13164499589E+02 -0.11484415260E+02  0.11967348455E+02  0.21175770885E+02  0.51100000000E-03 0. -1.
        -11    1    4    4    0    0 -0.24996033162E+01 -0.97322678366E+01  0.81080445441E+01  0.12911446107E+02  0.51100000000E-03 0.  1.
         12    1    4    4    0    0 -0.51665101887E+01 -0.14530500341E+02 -0.13169837501E+02  0.20279864090E+02  0.00000000000E+00 0. -1.
</event>
<event>
 8    1  0.2433390E-006  0.9118800E+02  0.7816164E-02  0.1184000E+00
        -11   -1    0    0    0    0  0.00000000000E+00  0.00000000000E+00  0.45593999997E+02  0.45594000000E+02  0.51100000000E-03 0. -1.
         11   -1    0    0    0    0 -0.00000000000E+00 -0.00000000000E+00 -0.45593999997E+02  0.45594000000E+02  0.51100000000E-03 0.  1.
         23    2    1    2    0    0  0.00000000000E+00  0.00000000000E+00  0.00000000000E+00  0.91188000000E+02  0.91188000000E+02 0.  0.
    9900012    2    3    3    0    0 -0.30608318169E+02  0.14843773049E+02 -0.14091517930E+02  0.54367114391E+02  0.40000068876E+02 0.  0.
         12    1    3    3    0    0  0.30608318169E+02 -0.14843773049E+02  0.14091517930E+02  0.36820885609E+02  0.00000000000E+00 0. -1.
         11    1    4    4    0    0  0.53809013362E+00  0.95109935496E+01 -0.67584070994E+01  0.11680094438E+02  0.51100000000E-03 0.  1.
        -11    1    4    4    0    0 -0.15535542376E+02  0.13314168867E+01  0.10386473269E+02  0.18735116095E+02  0.51100000000E-03 0. -1.
         12    1    4    4    0    0 -0.15610865927E+02  0.40013626130E+01 -0.17719584100E+02  0.23951903858E+02  0.00000000000E+00 0. -1.
</event>
<event>
 8    1  0.2433390E-006  0.9118800E+02  0.7816164E-02  0.1184000E+00
        -11   -1    0    0    0    0  0.00000000000E+00  0.00000000000E+00  0.45593999997E+02  0.45594000000E+02  0.51100000000E-03 0. -1.
         11   -1    0    0    0    0 -0.00000000000E+00 -0.00000000000E+00 -0.45593999997E+02  0.45594000000E+02  0.51100000000E-03 0.  1.
         23    2    1    2    0    0 -0.17763568394E-14  0.88817841970E-15  0.00000000000E+00  0.91188000000E+02  0.91188000000E+02 0.  0.
    9900012    2    3    3    0    0 -0.41212353442E+01 -0.61970664594E+01  0.36060946040E+02  0.54367081451E+02  0.39999993784E+02 0.  0.
        -12    1    3    3    0    0  0.41212353442E+01  0.61970664594E+01 -0.36060946040E+02  0.36820918549E+02  0.00000000000E+00 0.  1.
         11    1    4    4    0    0  0.13034678669E+02 -0.68632911269E+00  0.17710009019E+02  0.22000416254E+02  0.51100000000E-03 0. -1.
        -11    1    4    4    0    0 -0.13067254258E+02 -0.10783205953E+02  0.53720947015E+01  0.17773296436E+02  0.51100000000E-03 0.  1.
         12    1    4    4    0    0 -0.40886597553E+01  0.52724686064E+01  0.12978842320E+02  0.14593368760E+02  0.00000000000E+00 0. -1.
</event>
<event>
 8    1  0.2433390E-006  0.9118800E+02  0.7816164E-02  0.1184000E+00
        -11   -1    0    0    0    0  0.00000000000E+00  0.00000000000E+00  0.45593999997E+02  0.45594000000E+02  0.51100000000E-03 0. -1.
         11   -1    0    0    0    0 -0.00000000000E+00 -0.00000000000E+00 -0.45593999997E+02  0.45594000000E+02  0.51100000000E-03 0.  1.
         23    2    1    2    0    0  0.00000000000E+00  0.00000000000E+00 -0.35527136788E-14  0.91188000000E+02  0.91188000000E+02 0.  0.
    9900012    2    3    3    0    0  0.26564268859E+02  0.14071794208E+02  0.21262751440E+02  0.54367076993E+02  0.39999983622E+02 0.  0.
        -12    1    3    3    0    0 -0.26564268859E+02 -0.14071794208E+02 -0.21262751440E+02  0.36820923007E+02  0.00000000000E+00 0.  1.
         11    1    4    4    0    0 -0.22388495768E+00  0.74702474844E+01 -0.15247331328E+01  0.76275509399E+01  0.51100000000E-03 0. -1.
        -11    1    4    4    0    0  0.62164748615E+00  0.12700528826E+02  0.22314624879E+01  0.12910046598E+02  0.51100000000E-03 0.  1.
        -12    1    4    4    0    0  0.26166506331E+02 -0.60989821029E+01  0.20556022085E+02  0.33829479455E+02  0.00000000000E+00 0.  1.
</event>
<event>
 8    1  0.2433390E-006  0.9118800E+02  0.7816164E-02  0.1184000E+00
        -11   -1    0    0    0    0  0.00000000000E+00  0.00000000000E+00  0.45593999997E+02  0.45594000000E+02  0.51100000000E-03 0. -1.
         11   -1    0    0    0    0 -0.00000000000E+00 -0.00000000000E+00 -0.45593999997E+02  0.45594000000E+02  0.51100000000E-03 0.  1.
         23    2    1    2    0    0  0.35527136788E-14  0.00000000000E+00  0.00000000000E+00  0.91188000000E+02  0.91188000000E+02 0.  0.
    9900012    2    3    3    0    0 -0.26993006395E+02 -0.40381339962E+01  0.24715397750E+02  0.54367084662E+02  0.40000001103E+02 0.  0.
        -12    1    3    3    0    0  0.26993006395E+02  0.40381339962E+01 -0.24715397750E+02  0.36820915338E+02  0.00000000000E+00 0.  1.
         11    1    4    4    0    0 -0.11787529144E+02  0.49507346790E+01  0.11125337243E+02  0.16947824232E+02  0.51100000000E-03 0. -1.
        -11    1    4    4    0    0 -0.11714718094E+01 -0.21863834054E+01 -0.93535972191E+01  0.96769003195E+01  0.51100000000E-03 0.  1.
        -12    1    4    4    0    0 -0.14034005441E+02 -0.68024852698E+01  0.22943657727E+02  0.27742360110E+02  0.00000000000E+00 0.  1.
</event>
<event>
 8    1  0.2433390E-006  0.9118800E+02  0.7816164E-02  0.1184000E+00
        -11   -1    0    0    0    0  0.00000000000E+00  0.00000000000E+00  0.45593999997E+02  0.45594000000E+02  0.51100000000E-03 0.  1.
         11   -1    0    0    0    0 -0.00000000000E+00 -0.00000000000E+00 -0.45593999997E+02  0.45594000000E+02  0.51100000000E-03 0. -1.
         23    2    1    2    0    0 -0.35527136788E-14 -0.88817841970E-15  0.00000000000E+00  0.91188000000E+02  0.91188000000E+02 0.  0.
    9900012    2    3    3    0    0  0.24277687367E+02  0.67042962537E+01 -0.26859389386E+02  0.54367075374E+02  0.39999979929E+02 0.  0.
        -12    1    3    3    0    0 -0.24277687367E+02 -0.67042962537E+01  0.26859389386E+02  0.36820924626E+02  0.00000000000E+00 0.  1.
         11    1    4    4    0    0 -0.32620207353E+01 -0.11390428104E+01 -0.23700796916E+01  0.41899255133E+01  0.51100000000E-03 0. -1.
        -11    1    4    4    0    0  0.22616373487E+02  0.15435365690E+02 -0.38622386056E+01  0.27652626476E+02  0.51100000000E-03 0.  1.
        -12    1    4    4    0    0  0.49233346153E+01 -0.75920266256E+01 -0.20627071089E+02  0.22524523385E+02  0.00000000000E+00 0.  1.
</event>
<event>
 8    1  0.2433390E-006  0.9118800E+02  0.7816164E-02  0.1184000E+00
        -11   -1    0    0    0    0  0.00000000000E+00  0.00000000000E+00  0.45593999997E+02  0.45594000000E+02  0.51100000000E-03 0.  1.
         11   -1    0    0    0    0 -0.00000000000E+00 -0.00000000000E+00 -0.45593999997E+02  0.45594000000E+02  0.51100000000E-03 0. -1.
         23    2    1    2    0    0 -0.44408920985E-15  0.00000000000E+00  0.00000000000E+00  0.91188000000E+02  0.91188000000E+02 0.  0.
    9900012    2    3    3    0    0 -0.24158832864E+01 -0.73845600315E+01  0.35991827207E+02  0.54367084142E+02  0.39999999919E+02 0.  0.
         12    1    3    3    0    0  0.24158832864E+01  0.73845600315E+01 -0.35991827207E+02  0.36820915858E+02  0.00000000000E+00 0. -1.
         11    1    4    4    0    0 -0.42177430471E+01 -0.46996131861E+01 -0.41192681993E+01  0.75395020571E+01  0.51100000000E-03 0. -1.
        -11    1    4    4    0    0 -0.10586131842E+02 -0.24472816789E+01  0.25185905483E+02  0.27429641089E+02  0.51100000000E-03 0.  1.
         12    1    4    4    0    0  0.12387991602E+02 -0.23766516649E+00  0.14925189923E+02  0.19397940997E+02  0.00000000000E+00 0. -1.
</event>
<event>
 8    1  0.2433390E-006  0.9118800E+02  0.7816164E-02  0.1184000E+00
        -11   -1    0    0    0    0  0.00000000000E+00  0.00000000000E+00  0.45593999997E+02  0.45594000000E+02  0.51100000000E-03 0. -1.
         11   -1    0    0    0    0 -0.00000000000E+00 -0.00000000000E+00 -0.45593999997E+02  0.45594000000E+02  0.51100000000E-03 0.  1.
         23    2    1    2    0    0  0.00000000000E+00 -0.17763568394E-14  0.00000000000E+00  0.91188000000E+02  0.91188000000E+02 0.  0.
    9900012    2    3    3    0    0 -0.15170281577E+02  0.99955256686E+01  0.32027041664E+02  0.54367090529E+02  0.40000014479E+02 0.  0.
        -12    1    3    3    0    0  0.15170281577E+02 -0.99955256686E+01 -0.32027041664E+02  0.36820909471E+02  0.00000000000E+00 0.  1.
         11    1    4    4    0    0  0.34252051683E+01  0.56826519671E+01  0.77534771587E+01  0.10204948414E+02  0.51100000000E-03 0.  1.
        -11    1    4    4    0    0  0.68567255160E+01 -0.25921224894E+01  0.14107597001E+02  0.15898367124E+02  0.51100000000E-03 0. -1.
        -12    1    4    4    0    0 -0.25452212262E+02  0.69049961908E+01  0.10165967504E+02  0.28263774990E+02  0.00000000000E+00 0.  1.
</event>
<event>
 8    1  0.2433390E-006  0.9118800E+02  0.7816164E-02  0.1184000E+00
        -11   -1    0    0    0    0  0.00000000000E+00  0.00000000000E+00  0.45593999997E+02  0.45594000000E+02  0.51100000000E-03 0. -1.
         11   -1    0    0    0    0 -0.00000000000E+00 -0.00000000000E+00 -0.45593999997E+02  0.45594000000E+02  0.51100000000E-03 0.  1.
         23    2    1    2    0    0  0.00000000000E+00  0.44408920985E-15  0.35527136788E-14  0.91188000000E+02  0.91188000000E+02 0.  0.
    9900012    2    3    3    0    0  0.35519813182E+02  0.53762420582E+00 -0.96866887903E+01  0.54367107724E+02  0.40000053678E+02 0.  0.
        -12    1    3    3    0    0 -0.35519813182E+02 -0.53762420582E+00  0.96866887903E+01  0.36820892276E+02  0.00000000000E+00 0.  1.
         11    1    4    4    0    0  0.67183559738E+01 -0.56515049797E+01 -0.82985426755E+00  0.88184167452E+01  0.51100000000E-03 0.  1.
        -11    1    4    4    0    0 -0.47935062014E+01 -0.17671628667E-01 -0.10293564422E+02  0.11354976123E+02  0.51100000000E-03 0. -1.
         12    1    4    4    0    0  0.33594963410E+02  0.62068008141E+01  0.14367298989E+01  0.34193714856E+02  0.00000000000E+00 0. -1.
</event>
<event>
 8    1  0.2433390E-006  0.9118800E+02  0.7816164E-02  0.1184000E+00
        -11   -1    0    0    0    0  0.00000000000E+00  0.00000000000E+00  0.45593999997E+02  0.45594000000E+02  0.51100000000E-03 0.  1.
         11   -1    0    0    0    0 -0.00000000000E+00 -0.00000000000E+00 -0.45593999997E+02  0.45594000000E+02  0.51100000000E-03 0. -1.
         23    2    1    2    0    0  0.00000000000E+00 -0.22204460493E-15  0.00000000000E+00  0.91188000000E+02  0.91188000000E+02 0.  0.
    9900012    2    3    3    0    0  0.33518532425E+02 -0.88546181306E+00 -0.15215236094E+02  0.54367089257E+02  0.40000011578E+02 0.  0.
         12    1    3    3    0    0 -0.33518532425E+02  0.88546181306E+00  0.15215236094E+02  0.36820910743E+02  0.00000000000E+00 0. -1.
         11    1    4    4    0    0  0.43391349700E+01 -0.80309563356E+01 -0.12383260441E+02  0.15384066152E+02  0.51100000000E-03 0. -1.
        -11    1    4    4    0    0  0.29377531306E+02  0.77964417707E+01 -0.98357327628E+01  0.31946290695E+02  0.51100000000E-03 0.  1.
        -12    1    4    4    0    0 -0.19813385050E+00 -0.65094724814E+00  0.70037571105E+01  0.70367324097E+01  0.00000000000E+00 0.  1.
</event>
<event>
 8    1  0.2433390E-006  0.9118800E+02  0.7816164E-02  0.1184000E+00
        -11   -1    0    0    0    0  0.00000000000E+00  0.00000000000E+00  0.45593999997E+02  0.45594000000E+02  0.51100000000E-03 0.  1.
         11   -1    0    0    0    0 -0.00000000000E+00 -0.00000000000E+00 -0.45593999997E+02  0.45594000000E+02  0.51100000000E-03 0. -1.
         23    2    1    2    0    0  0.00000000000E+00 -0.88817841970E-15 -0.35527136788E-14  0.91188000000E+02  0.91188000000E+02 0.  0.
    9900012    2    3    3    0    0  0.27616975674E+02 -0.20860682311E+01  0.24263790761E+02  0.54367074317E+02  0.39999977520E+02 0.  0.
         12    1    3    3    0    0 -0.27616975674E+02  0.20860682311E+01 -0.24263790761E+02  0.36820925683E+02  0.00000000000E+00 0. -1.
         11    1    4    4    0    0  0.21178365767E+02 -0.16634066643E+02  0.53989131480E+01  0.27465680641E+02  0.51100000000E-03 0. -1.
        -11    1    4    4    0    0  0.83404030786E+01  0.10983745889E+02  0.18155462218E+02  0.22799688723E+02  0.51100000000E-03 0.  1.
         12    1    4    4    0    0 -0.19017931718E+01  0.35642525227E+01  0.70941539576E+00  0.41017049525E+01  0.00000000000E+00 0. -1.
</event>
<event>
 8    1  0.2433390E-006  0.9118800E+02  0.7816164E-02  0.1184000E+00
        -11   -1    0    0    0    0  0.00000000000E+00  0.00000000000E+00  0.45593999997E+02  0.45594000000E+02  0.51100000000E-03 0.  1.
         11   -1    0    0    0    0 -0.00000000000E+00 -0.00000000000E+00 -0.45593999997E+02  0.45594000000E+02  0.51100000000E-03 0. -1.
         23    2    1    2    0    0 -0.88817841970E-15 -0.17763568394E-14  0.00000000000E+00  0.91188000000E+02  0.91188000000E+02 0.  0.
    9900012    2    3    3    0    0  0.56479889265E+01  0.25822353215E+01 -0.36293411420E+02  0.54367089763E+02  0.40000012732E+02 0.  0.
        -12    1    3    3    0    0 -0.56479889265E+01 -0.25822353215E+01  0.36293411420E+02  0.36820910237E+02  0.00000000000E+00 0.  1.
         11    1    4    4    0    0  0.82107830971E+00 -0.90880393484E+01 -0.12146614736E+02  0.15192329597E+02  0.51100000000E-03 0. -1.
        -11    1    4    4    0    0 -0.82257327230E+01  0.98636980443E+01 -0.22483267363E+02  0.25893098106E+02  0.51100000000E-03 0.  1.
        -12    1    4    4    0    0  0.13052643340E+02  0.18065766256E+01 -0.16635293214E+01  0.13281662060E+02  0.00000000000E+00 0.  1.
</event>
<event>
 8    1  0.2433390E-006  0.9118800E+02  0.7816164E-02  0.1184000E+00
        -11   -1    0    0    0    0  0.00000000000E+00  0.00000000000E+00  0.45593999997E+02  0.45594000000E+02  0.51100000000E-03 0.  1.
         11   -1    0    0    0    0 -0.00000000000E+00 -0.00000000000E+00 -0.45593999997E+02  0.45594000000E+02  0.51100000000E-03 0. -1.
         23    2    1    2    0    0  0.00000000000E+00 -0.33306690739E-15  0.00000000000E+00  0.91188000000E+02  0.91188000000E+02 0.  0.
    9900012    2    3    3    0    0  0.27801777739E+02  0.63623024425E+00 -0.24133727776E+02  0.54367075911E+02  0.39999981155E+02 0.  0.
        -12    1    3    3    0    0 -0.27801777739E+02 -0.63623024425E+00  0.24133727776E+02  0.36820924089E+02  0.00000000000E+00 0.  1.
         11    1    4    4    0    0  0.20381599807E+02  0.40939452711E+01 -0.33760735245E+02  0.39647916000E+02  0.51100000000E-03 0. -1.
        -11    1    4    4    0    0  0.25088969492E+01  0.51740673464E+00  0.76977036063E+01  0.81127624581E+01  0.51100000000E-03 0.  1.
         12    1    4    4    0    0  0.49112809833E+01 -0.39751217615E+01  0.19293038632E+01  0.66063974534E+01  0.00000000000E+00 0. -1.
</event>
<event>
 8    1  0.2433390E-006  0.9118800E+02  0.7816164E-02  0.1184000E+00
        -11   -1    0    0    0    0  0.00000000000E+00  0.00000000000E+00  0.45593999997E+02  0.45594000000E+02  0.51100000000E-03 0. -1.
         11   -1    0    0    0    0 -0.00000000000E+00 -0.00000000000E+00 -0.45593999997E+02  0.45594000000E+02  0.51100000000E-03 0.  1.
         23    2    1    2    0    0  0.35527136788E-14  0.00000000000E+00 -0.35527136788E-14  0.91188000000E+02  0.91188000000E+02 0.  0.
    9900012    2    3    3    0    0  0.24684311441E+02  0.16350013773E+02 -0.21889320878E+02  0.54367074561E+02  0.39999978077E+02 0.  0.
         12    1    3    3    0    0 -0.24684311441E+02 -0.16350013773E+02  0.21889320878E+02  0.36820925439E+02  0.00000000000E+00 0. -1.
         11    1    4    4    0    0  0.12662467355E+02  0.91118328834E+01 -0.54730922252E+01  0.16532341539E+02  0.51100000000E-03 0. -1.
        -11    1    4    4    0    0  0.17228682165E+02  0.15911158807E+02 -0.83413065231E+01  0.24891160248E+02  0.51100000000E-03 0.  1.
        -12    1    4    4    0    0 -0.52068380788E+01 -0.86729779178E+01 -0.80749221300E+01  0.12943572774E+02  0.00000000000E+00 0.  1.
</event>
<event>
 8    1  0.2433390E-006  0.9118800E+02  0.7816164E-02  0.1184000E+00
        -11   -1    0    0    0    0  0.00000000000E+00  0.00000000000E+00  0.45593999997E+02  0.45594000000E+02  0.51100000000E-03 0.  1.
         11   -1    0    0    0    0 -0.00000000000E+00 -0.00000000000E+00 -0.45593999997E+02  0.45594000000E+02  0.51100000000E-03 0. -1.
         23    2    1    2    0    0  0.00000000000E+00  0.00000000000E+00  0.00000000000E+00  0.91188000000E+02  0.91188000000E+02 0.  0.
    9900012    2    3    3    0    0 -0.22757209067E+02  0.89199178919E+01  0.27537700079E+02  0.54367076256E+02  0.39999981942E+02 0.  0.
         12    1    3    3    0    0  0.22757209067E+02 -0.89199178919E+01 -0.27537700079E+02  0.36820923744E+02  0.00000000000E+00 0. -1.
         11    1    4    4    0    0 -0.94160474147E+01  0.11278906274E+02  0.76838254632E+01  0.16580616685E+02  0.51100000000E-03 0.  1.
        -11    1    4    4    0    0 -0.18862613098E+02  0.52777868608E-01  0.23960864746E+02  0.30494655237E+02  0.51100000000E-03 0. -1.
         12    1    4    4    0    0  0.55214514459E+01 -0.24117662507E+01 -0.41069901303E+01  0.72918043342E+01  0.00000000000E+00 0. -1.
</event>
<event>
 8    1  0.2433390E-006  0.9118800E+02  0.7816164E-02  0.1184000E+00
        -11   -1    0    0    0    0  0.00000000000E+00  0.00000000000E+00  0.45593999997E+02  0.45594000000E+02  0.51100000000E-03 0.  1.
         11   -1    0    0    0    0 -0.00000000000E+00 -0.00000000000E+00 -0.45593999997E+02  0.45594000000E+02  0.51100000000E-03 0. -1.
         23    2    1    2    0    0  0.35527136788E-14  0.00000000000E+00  0.00000000000E+00  0.91188000000E+02  0.91188000000E+02 0.  0.
    9900012    2    3    3    0    0  0.25898831689E+02 -0.18779209139E+02 -0.18231085463E+02  0.54367073125E+02  0.39999974804E+02 0.  0.
         12    1    3    3    0    0 -0.25898831689E+02  0.18779209139E+02  0.18231085463E+02  0.36820926875E+02  0.00000000000E+00 0. -1.
         11    1    4    4    0    0  0.93201462550E+01  0.12265612932E+02 -0.63235231853E+01  0.16652247072E+02  0.51100000000E-03 0. -1.
        -11    1    4    4    0    0  0.13254536455E+02 -0.19313371557E+02 -0.60790728987E+01  0.24200086469E+02  0.51100000000E-03 0.  1.
         12    1    4    4    0    0  0.33241489793E+01 -0.11731450514E+02 -0.58284893790E+01  0.13514739584E+02  0.00000000000E+00 0. -1.
</event>
<event>
 8    1  0.2433390E-006  0.9118800E+02  0.7816164E-02  0.1184000E+00
        -11   -1    0    0    0    0  0.00000000000E+00  0.00000000000E+00  0.45593999997E+02  0.45594000000E+02  0.51100000000E-03 0.  1.
         11   -1    0    0    0    0 -0.00000000000E+00 -0.00000000000E+00 -0.45593999997E+02  0.45594000000E+02  0.51100000000E-03 0. -1.
         23    2    1    2    0    0  0.00000000000E+00 -0.35527136788E-14  0.35527136788E-14  0.91188000000E+02  0.91188000000E+02 0.  0.
    9900012    2    3    3    0    0  0.16416260336E+02 -0.20641507723E+02  0.25694627540E+02  0.54367091144E+02  0.40000015882E+02 0.  0.
         12    1    3    3    0    0 -0.16416260336E+02  0.20641507723E+02 -0.25694627540E+02  0.36820908856E+02  0.00000000000E+00 0. -1.
         11    1    4    4    0    0 -0.50191582053E+00  0.19263624203E+01 -0.84355391955E+01  0.86672437052E+01  0.51100000000E-03 0. -1.
        -11    1    4    4    0    0  0.33573358635E+01  0.67990596340E+00  0.47426621764E+01  0.58503693046E+01  0.51100000000E-03 0.  1.
         12    1    4    4    0    0  0.13560840293E+02 -0.23247776107E+02  0.29387504559E+02  0.39849478135E+02  0.00000000000E+00 0. -1.
</event>
<event>
 8    1  0.2433390E-006  0.9118800E+02  0.7816164E-02  0.1184000E+00
        -11   -1    0    0    0    0  0.00000000000E+00  0.00000000000E+00  0.45593999997E+02  0.45594000000E+02  0.51100000000E-03 0. -1.
         11   -1    0    0    0    0 -0.00000000000E+00 -0.00000000000E+00 -0.45593999997E+02  0.45594000000E+02  0.51100000000E-03 0.  1.
         23    2    1    2    0    0  0.00000000000E+00  0.00000000000E+00  0.00000000000E+00  0.91188000000E+02  0.91188000000E+02 0.  0.
    9900012    2    3    3    0    0  0.25082319646E+02  0.25944664486E+02 -0.73165258563E+01  0.54367083054E+02  0.39999997439E+02 0.  0.
         12    1    3    3    0    0 -0.25082319646E+02 -0.25944664486E+02  0.73165258563E+01  0.36820916946E+02  0.00000000000E+00 0. -1.
         11    1    4    4    0    0  0.13773025174E+02  0.29218654617E+02 -0.15487854332E+01  0.32339213606E+02  0.51100000000E-03 0. -1.
        -11    1    4    4    0    0  0.72096577627E+01  0.59537618925E+01 -0.72374723804E+01  0.11824020147E+02  0.51100000000E-03 0.  1.
        -12    1    4    4    0    0  0.40996367090E+01 -0.92277520229E+01  0.14697319574E+01  0.10203849302E+02  0.00000000000E+00 0.  1.
</event>
<event>
 8    1  0.2433390E-006  0.9118800E+02  0.7816164E-02  0.1184000E+00
        -11   -1    0    0    0    0  0.00000000000E+00  0.00000000000E+00  0.45593999997E+02  0.45594000000E+02  0.51100000000E-03 0.  1.
         11   -1    0    0    0    0 -0.00000000000E+00 -0.00000000000E+00 -0.45593999997E+02  0.45594000000E+02  0.51100000000E-03 0. -1.
         23    2    1    2    0    0  0.00000000000E+00  0.00000000000E+00 -0.88817841970E-15  0.91188000000E+02  0.91188000000E+02 0.  0.
    9900012    2    3    3    0    0  0.21331891735E+02 -0.29066026590E+02  0.74764856145E+01  0.54367063784E+02  0.39999953508E+02 0.  0.
         12    1    3    3    0    0 -0.21331891735E+02  0.29066026590E+02 -0.74764856145E+01  0.36820936216E+02  0.00000000000E+00 0. -1.
         11    1    4    4    0    0 -0.46510416107E+01 -0.19446739711E+01 -0.88713547606E+01  0.10203669951E+02  0.51100000000E-03 0. -1.
        -11    1    4    4    0    0  0.19652709990E+02 -0.16268821666E+02  0.18369590420E+02  0.31437961461E+02  0.51100000000E-03 0.  1.
        -12    1    4    4    0    0  0.63302233552E+01 -0.10852530953E+02 -0.20217500450E+01  0.12725432372E+02  0.00000000000E+00 0.  1.
</event>
<event>
 8    1  0.2433390E-006  0.9118800E+02  0.7816164E-02  0.1184000E+00
        -11   -1    0    0    0    0  0.00000000000E+00  0.00000000000E+00  0.45593999997E+02  0.45594000000E+02  0.51100000000E-03 0. -1.
         11   -1    0    0    0    0 -0.00000000000E+00 -0.00000000000E+00 -0.45593999997E+02  0.45594000000E+02  0.51100000000E-03 0.  1.
         23    2    1    2    0    0  0.00000000000E+00 -0.35527136788E-14  0.00000000000E+00  0.91188000000E+02  0.91188000000E+02 0.  0.
    9900012    2    3    3    0    0  0.11541097611E+02 -0.17104486641E+02  0.30496211960E+02  0.54367090978E+02  0.40000015502E+02 0.  0.
        -12    1    3    3    0    0 -0.11541097611E+02  0.17104486641E+02 -0.30496211960E+02  0.36820909022E+02  0.00000000000E+00 0.  1.
         11    1    4    4    0    0  0.99354296861E+01  0.19822432894E+00  0.44508964853E+01  0.10888642510E+02  0.51100000000E-03 0. -1.
        -11    1    4    4    0    0  0.91684785945E+01  0.54993701235E+01  0.95644955912E+01  0.14345161124E+02  0.51100000000E-03 0.  1.
         12    1    4    4    0    0 -0.75628106692E+01 -0.22802081094E+02  0.16480819883E+02  0.29133287344E+02  0.00000000000E+00 0. -1.
</event>
<event>
 8    1  0.2433390E-006  0.9118800E+02  0.7816164E-02  0.1184000E+00
        -11   -1    0    0    0    0  0.00000000000E+00  0.00000000000E+00  0.45593999997E+02  0.45594000000E+02  0.51100000000E-03 0.  1.
         11   -1    0    0    0    0 -0.00000000000E+00 -0.00000000000E+00 -0.45593999997E+02  0.45594000000E+02  0.51100000000E-03 0. -1.
         23    2    1    2    0    0 -0.17763568394E-14  0.71054273576E-14  0.00000000000E+00  0.91188000000E+02  0.91188000000E+02 0.  0.
    9900012    2    3    3    0    0  0.84573234448E+01  0.32694090183E+02  0.14674709812E+02  0.54367123302E+02  0.40000089190E+02 0.  0.
         12    1    3    3    0    0 -0.84573234448E+01 -0.32694090183E+02 -0.14674709812E+02  0.36820876698E+02  0.00000000000E+00 0. -1.
         11    1    4    4    0    0  0.44482835580E+01  0.29871102651E+01 -0.12106984518E+02  0.13239680084E+02  0.51100000000E-03 0. -1.
        -11    1    4    4    0    0  0.25848213499E+01  0.27323185132E+02  0.26786753705E+02  0.38350592192E+02  0.51100000000E-03 0.  1.
        -12    1    4    4    0    0  0.14242185369E+01  0.23837947864E+01 -0.50593749309E-02  0.27768510262E+01  0.00000000000E+00 0.  1.
</event>
<event>
 8    1  0.2433390E-006  0.9118800E+02  0.7816164E-02  0.1184000E+00
        -11   -1    0    0    0    0  0.00000000000E+00  0.00000000000E+00  0.45593999997E+02  0.45594000000E+02  0.51100000000E-03 0.  1.
         11   -1    0    0    0    0 -0.00000000000E+00 -0.00000000000E+00 -0.45593999997E+02  0.45594000000E+02  0.51100000000E-03 0. -1.
         23    2    1    2    0    0  0.00000000000E+00  0.00000000000E+00  0.00000000000E+00  0.91188000000E+02  0.91188000000E+02 0.  0.
    9900012    2    3    3    0    0 -0.24238057441E+02  0.14222904343E+02  0.23790891661E+02  0.54367068962E+02  0.39999965313E+02 0.  0.
         12    1    3    3    0    0  0.24238057441E+02 -0.14222904343E+02 -0.23790891661E+02  0.36820931038E+02  0.00000000000E+00 0. -1.
         11    1    4    4    0    0 -0.78640082060E+00  0.14602466650E+02  0.19548861010E+02  0.24413283793E+02  0.51100000000E-03 0.  1.
        -11    1    4    4    0    0 -0.24586267653E+02  0.13064041060E+01 -0.67830875969E+00  0.24630293377E+02  0.51100000000E-03 0. -1.
         12    1    4    4    0    0  0.11346110326E+01 -0.16859664135E+01  0.49203394106E+01  0.53234917919E+01  0.00000000000E+00 0. -1.
</event>
<event>
 8    1  0.2433390E-006  0.9118800E+02  0.7816164E-02  0.1184000E+00
        -11   -1    0    0    0    0  0.00000000000E+00  0.00000000000E+00  0.45593999997E+02  0.45594000000E+02  0.51100000000E-03 0.  1.
         11   -1    0    0    0    0 -0.00000000000E+00 -0.00000000000E+00 -0.45593999997E+02  0.45594000000E+02  0.51100000000E-03 0. -1.
         23    2    1    2    0    0  0.00000000000E+00  0.00000000000E+00 -0.71054273576E-14  0.91188000000E+02  0.91188000000E+02 0.  0.
    9900012    2    3    3    0    0  0.18316270813E+02  0.56417859829E+01 -0.31439862945E+02  0.54367075140E+02  0.39999979397E+02 0.  0.
        -12    1    3    3    0    0 -0.18316270813E+02 -0.56417859829E+01  0.31439862945E+02  0.36820924860E+02  0.00000000000E+00 0.  1.
         11    1    4    4    0    0 -0.28073847269E+01 -0.91032215641E+00 -0.74722193328E+01  0.80339378546E+01  0.51100000000E-03 0. -1.
        -11    1    4    4    0    0 -0.78247465074E+01  0.98704795725E+00 -0.12338507122E+02  0.14643759074E+02  0.51100000000E-03 0.  1.
        -12    1    4    4    0    0  0.28948402047E+02  0.55650601820E+01 -0.11629136490E+02  0.31689378211E+02  0.00000000000E+00 0.  1.
</event>
<event>
 8    1  0.2433390E-006  0.9118800E+02  0.7816164E-02  0.1184000E+00
        -11   -1    0    0    0    0  0.00000000000E+00  0.00000000000E+00  0.45593999997E+02  0.45594000000E+02  0.51100000000E-03 0.  1.
         11   -1    0    0    0    0 -0.00000000000E+00 -0.00000000000E+00 -0.45593999997E+02  0.45594000000E+02  0.51100000000E-03 0. -1.
         23    2    1    2    0    0 -0.35527136788E-14 -0.35527136788E-14 -0.35527136788E-14  0.91188000000E+02  0.91188000000E+02 0.  0.
    9900012    2    3    3    0    0  0.17113914792E+02 -0.26458605576E+02  0.19048244336E+02  0.54367088811E+02  0.40000010561E+02 0.  0.
         12    1    3    3    0    0 -0.17113914792E+02  0.26458605576E+02 -0.19048244336E+02  0.36820911189E+02  0.00000000000E+00 0. -1.
         11    1    4    4    0    0  0.12359380227E+02 -0.40375748245E+00  0.13295907452E+01  0.12437246942E+02  0.51100000000E-03 0. -1.
        -11    1    4    4    0    0  0.13773448099E+02 -0.16562750714E+02  0.22424021532E+01  0.21657815019E+02  0.51100000000E-03 0.  1.
        -12    1    4    4    0    0 -0.90189135339E+01 -0.94920973802E+01  0.15476251438E+02  0.20272026849E+02  0.00000000000E+00 0.  1.
</event>
<event>
 8    1  0.2433390E-006  0.9118800E+02  0.7816164E-02  0.1184000E+00
        -11   -1    0    0    0    0  0.00000000000E+00  0.00000000000E+00  0.45593999997E+02  0.45594000000E+02  0.51100000000E-03 0. -1.
         11   -1    0    0    0    0 -0.00000000000E+00 -0.00000000000E+00 -0.45593999997E+02  0.45594000000E+02  0.51100000000E-03 0.  1.
         23    2    1    2    0    0  0.00000000000E+00  0.17763568394E-14  0.00000000000E+00  0.91188000000E+02  0.91188000000E+02 0.  0.
    9900012    2    3    3    0    0  0.42643975910E+01 -0.82538940529E+01 -0.35629586565E+02  0.54367091637E+02  0.40000017006E+02 0.  0.
         12    1    3    3    0    0 -0.42643975910E+01  0.82538940529E+01  0.35629586565E+02  0.36820908363E+02  0.00000000000E+00 0. -1.
         11    1    4    4    0    0  0.44860939642E+01  0.62842184702E+01 -0.59286284219E+01  0.97347355415E+01  0.51100000000E-03 0. -1.
        -11    1    4    4    0    0 -0.46913455231E+01 -0.22990928399E+01 -0.31092734020E+02  0.31528600664E+02  0.51100000000E-03 0.  1.
         12    1    4    4    0    0  0.44696491498E+01 -0.12239019683E+02  0.13917758769E+01  0.13103755432E+02  0.00000000000E+00 0. -1.
</event>
<event>
 8    1  0.2433390E-006  0.9118800E+02  0.7816164E-02  0.1184000E+00
        -11   -1    0    0    0    0  0.00000000000E+00  0.00000000000E+00  0.45593999997E+02  0.45594000000E+02  0.51100000000E-03 0.  1.
         11   -1    0    0    0    0 -0.00000000000E+00 -0.00000000000E+00 -0.45593999997E+02  0.45594000000E+02  0.51100000000E-03 0. -1.
         23    2    1    2    0    0  0.88817841970E-15  0.00000000000E+00  0.00000000000E+00  0.91188000000E+02  0.91188000000E+02 0.  0.
    9900012    2    3    3    0    0  0.58996008718E+01  0.35347874763E+02  0.84559221442E+01  0.54367079859E+02  0.39999990155E+02 0.  0.
         12    1    3    3    0    0 -0.58996008718E+01 -0.35347874763E+02 -0.84559221442E+01  0.36820920141E+02  0.00000000000E+00 0. -1.
         11    1    4    4    0    0  0.88759720166E+01 -0.46184589114E+01  0.39632837557E+01  0.10762000759E+02  0.51100000000E-03 0. -1.
        -11    1    4    4    0    0 -0.72778192938E+01  0.80262003887E+01  0.34098646905E+01  0.11358420833E+02  0.51100000000E-03 0.  1.
         12    1    4    4    0    0  0.43014481490E+01  0.31940133286E+02  0.10827736980E+01  0.32246658267E+02  0.00000000000E+00 0. -1.
</event>
<event>
 8    1  0.2433390E-006  0.9118800E+02  0.7816164E-02  0.1184000E+00
        -11   -1    0    0    0    0  0.00000000000E+00  0.00000000000E+00  0.45593999997E+02  0.45594000000E+02  0.51100000000E-03 0. -1.
         11   -1    0    0    0    0 -0.00000000000E+00 -0.00000000000E+00 -0.45593999997E+02  0.45594000000E+02  0.51100000000E-03 0.  1.
         23    2    1    2    0    0  0.35527136788E-14  0.00000000000E+00 -0.35527136788E-14  0.91188000000E+02  0.91188000000E+02 0.  0.
    9900012    2    3    3    0    0  0.12118294306E+02 -0.33304997865E+02 -0.99851864510E+01  0.54367083551E+02  0.39999998572E+02 0.  0.
         12    1    3    3    0    0 -0.12118294306E+02  0.33304997865E+02  0.99851864510E+01  0.36820916449E+02  0.00000000000E+00 0. -1.
         11    1    4    4    0    0 -0.83591799887E+01  0.37235097242E+01  0.75084173075E+00  0.91817306820E+01  0.51100000000E-03 0. -1.
        -11    1    4    4    0    0  0.44654573806E+01 -0.13446279418E+02 -0.86599730978E+01  0.16605356790E+02  0.51100000000E-03 0.  1.
         12    1    4    4    0    0  0.16012016914E+02 -0.23582228171E+02 -0.20760550840E+01  0.28579996079E+02  0.00000000000E+00 0. -1.
</event>
<event>
 8    1  0.2433390E-006  0.9118800E+02  0.7816164E-02  0.1184000E+00
        -11   -1    0    0    0    0  0.00000000000E+00  0.00000000000E+00  0.45593999997E+02  0.45594000000E+02  0.51100000000E-03 0. -1.
         11   -1    0    0    0    0 -0.00000000000E+00 -0.00000000000E+00 -0.45593999997E+02  0.45594000000E+02  0.51100000000E-03 0.  1.
         23    2    1    2    0    0 -0.88817841970E-15  0.00000000000E+00  0.00000000000E+00  0.91188000000E+02  0.91188000000E+02 0.  0.
    9900012    2    3    3    0    0 -0.36844950647E+01 -0.99164410638E+01 -0.35268473693E+02  0.54367128964E+02  0.40000102098E+02 0.  0.
         12    1    3    3    0    0  0.36844950647E+01  0.99164410638E+01  0.35268473693E+02  0.36820871036E+02  0.00000000000E+00 0. -1.
         11    1    4    4    0    0 -0.33905369118E+01  0.33440388317E+01 -0.47843865757E+01  0.67504586085E+01  0.51100000000E-03 0. -1.
        -11    1    4    4    0    0 -0.12664702174E+02 -0.14734480970E+02 -0.29226086107E+02  0.35095066890E+02  0.51100000000E-03 0.  1.
        -12    1    4    4    0    0  0.12370744021E+02  0.14740010743E+01 -0.12580010098E+01  0.12521603465E+02  0.00000000000E+00 0.  1.
</event>
<event>
 8    1  0.2433390E-006  0.9118800E+02  0.7816164E-02  0.1184000E+00
        -11   -1    0    0    0    0  0.00000000000E+00  0.00000000000E+00  0.45593999997E+02  0.45594000000E+02  0.51100000000E-03 0. -1.
         11   -1    0    0    0    0 -0.00000000000E+00 -0.00000000000E+00 -0.45593999997E+02  0.45594000000E+02  0.51100000000E-03 0.  1.
         23    2    1    2    0    0  0.00000000000E+00 -0.35527136788E-14  0.00000000000E+00  0.91188000000E+02  0.91188000000E+02 0.  0.
    9900012    2    3    3    0    0  0.12707569834E+02 -0.21432624843E+02  0.27109768219E+02  0.54367091923E+02  0.40000017657E+02 0.  0.
        -12    1    3    3    0    0 -0.12707569834E+02  0.21432624843E+02 -0.27109768219E+02  0.36820908077E+02  0.00000000000E+00 0.  1.
         11    1    4    4    0    0  0.95109936861E+01  0.24946864049E+00  0.18013941471E+02  0.20372121222E+02  0.51100000000E-03 0. -1.
        -11    1    4    4    0    0  0.36095989822E+01  0.14587436382E+01  0.10104400355E+02  0.10828483024E+02  0.51100000000E-03 0.  1.
        -12    1    4    4    0    0 -0.41302283476E+00 -0.23140837122E+02 -0.10085736068E+01  0.23166487677E+02  0.00000000000E+00 0.  1.
</event>
<event>
 8    1  0.2433390E-006  0.9118800E+02  0.7816164E-02  0.1184000E+00
        -11   -1    0    0    0    0  0.00000000000E+00  0.00000000000E+00  0.45593999997E+02  0.45594000000E+02  0.51100000000E-03 0. -1.
         11   -1    0    0    0    0 -0.00000000000E+00 -0.00000000000E+00 -0.45593999997E+02  0.45594000000E+02  0.51100000000E-03 0.  1.
         23    2    1    2    0    0  0.00000000000E+00  0.69388939039E-15  0.00000000000E+00  0.91188000000E+02  0.91188000000E+02 0.  0.
    9900012    2    3    3    0    0 -0.22251067504E+02 -0.14923246156E+00  0.29336813159E+02  0.54367070059E+02  0.39999967814E+02 0.  0.
        -12    1    3    3    0    0  0.22251067504E+02  0.14923246156E+00 -0.29336813159E+02  0.36820929941E+02  0.00000000000E+00 0.  1.
         11    1    4    4    0    0  0.23800642775E+01  0.44466670729E+01 -0.17698359510E+01  0.53450793799E+01  0.51100000000E-03 0.  1.
        -11    1    4    4    0    0 -0.30318526214E+02 -0.69093832110E+01  0.22213002738E+02  0.38214789009E+02  0.51100000000E-03 0. -1.
        -12    1    4    4    0    0  0.56873944319E+01  0.23134836766E+01  0.88936463721E+01  0.10807201670E+02  0.00000000000E+00 0.  1.
</event>
<event>
 8    1  0.2433390E-006  0.9118800E+02  0.7816164E-02  0.1184000E+00
        -11   -1    0    0    0    0  0.00000000000E+00  0.00000000000E+00  0.45593999997E+02  0.45594000000E+02  0.51100000000E-03 0. -1.
         11   -1    0    0    0    0 -0.00000000000E+00 -0.00000000000E+00 -0.45593999997E+02  0.45594000000E+02  0.51100000000E-03 0.  1.
         23    2    1    2    0    0  0.00000000000E+00  0.35527136788E-14  0.35527136788E-14  0.91188000000E+02  0.91188000000E+02 0.  0.
    9900012    2    3    3    0    0  0.81509913499E+01  0.29290051618E+02  0.20770980392E+02  0.54367090041E+02  0.40000013366E+02 0.  0.
        -12    1    3    3    0    0 -0.81509913499E+01 -0.29290051618E+02 -0.20770980392E+02  0.36820909959E+02  0.00000000000E+00 0.  1.
         11    1    4    4    0    0 -0.61388842329E+01  0.36743654728E+01  0.85041503176E+01  0.11113389858E+02  0.51100000000E-03 0. -1.
        -11    1    4    4    0    0 -0.86558741924E+01  0.87389224134E+01  0.74071036305E+01  0.14358206971E+02  0.51100000000E-03 0.  1.
        -12    1    4    4    0    0  0.22945749775E+02  0.16876763732E+02  0.48597264441E+01  0.28895493211E+02  0.00000000000E+00 0.  1.
</event>
<event>
 8    1  0.2433390E-006  0.9118800E+02  0.7816164E-02  0.1184000E+00
        -11   -1    0    0    0    0  0.00000000000E+00  0.00000000000E+00  0.45593999997E+02  0.45594000000E+02  0.51100000000E-03 0.  1.
         11   -1    0    0    0    0 -0.00000000000E+00 -0.00000000000E+00 -0.45593999997E+02  0.45594000000E+02  0.51100000000E-03 0. -1.
         23    2    1    2    0    0  0.17763568394E-14  0.00000000000E+00  0.17763568394E-14  0.91188000000E+02  0.91188000000E+02 0.  0.
    9900012    2    3    3    0    0 -0.60305680931E+00 -0.35386844081E+02  0.10158111810E+02  0.54367086825E+02  0.40000006035E+02 0.  0.
         12    1    3    3    0    0  0.60305680931E+00  0.35386844081E+02 -0.10158111810E+02  0.36820913175E+02  0.00000000000E+00 0. -1.
         11    1    4    4    0    0  0.21810156598E+01 -0.12016840677E+01 -0.16011132563E+01  0.29604793240E+01  0.51100000000E-03 0. -1.
        -11    1    4    4    0    0 -0.11141486292E+02  0.18091542402E+01 -0.28987731042E+01  0.11653696479E+02  0.51100000000E-03 0.  1.
        -12    1    4    4    0    0  0.83574138227E+01 -0.35994314253E+02  0.14657998170E+02  0.39752911022E+02  0.00000000000E+00 0.  1.
</event>
<event>
 8    1  0.2433390E-006  0.9118800E+02  0.7816164E-02  0.1184000E+00
        -11   -1    0    0    0    0  0.00000000000E+00  0.00000000000E+00  0.45593999997E+02  0.45594000000E+02  0.51100000000E-03 0.  1.
         11   -1    0    0    0    0 -0.00000000000E+00 -0.00000000000E+00 -0.45593999997E+02  0.45594000000E+02  0.51100000000E-03 0. -1.
         23    2    1    2    0    0  0.00000000000E+00 -0.35527136788E-14  0.00000000000E+00  0.91188000000E+02  0.91188000000E+02 0.  0.
    9900012    2    3    3    0    0  0.48907775992E+01  0.25579005423E+02  0.26030258752E+02  0.54367087536E+02  0.40000007657E+02 0.  0.
         12    1    3    3    0    0 -0.48907775992E+01 -0.25579005423E+02 -0.26030258752E+02  0.36820912464E+02  0.00000000000E+00 0. -1.
         11    1    4    4    0    0 -0.10983688991E+02  0.58744117388E+01  0.21621831481E+02  0.24953030557E+02  0.51100000000E-03 0. -1.
        -11    1    4    4    0    0  0.15691494234E+02  0.84432328610E+01  0.26575930247E+01  0.18015936650E+02  0.51100000000E-03 0.  1.
         12    1    4    4    0    0  0.18297235601E+00  0.11261360824E+02  0.17508342456E+01  0.11398120329E+02  0.00000000000E+00 0. -1.
</event>
<event>
 8    1  0.2433390E-006  0.9118800E+02  0.7816164E-02  0.1184000E+00
        -11   -1    0    0    0    0  0.00000000000E+00  0.00000000000E+00  0.45593999997E+02  0.45594000000E+02  0.51100000000E-03 0. -1.
         11   -1    0    0    0    0 -0.00000000000E+00 -0.00000000000E+00 -0.45593999997E+02  0.45594000000E+02  0.51100000000E-03 0.  1.
         23    2    1    2    0    0  0.17763568394E-14  0.00000000000E+00 -0.71054273576E-14  0.91188000000E+02  0.91188000000E+02 0.  0.
    9900012    2    3    3    0    0  0.12264259961E+02 -0.12650247229E+02 -0.32331758304E+02  0.54367035559E+02  0.39999889163E+02 0.  0.
         12    1    3    3    0    0 -0.12264259961E+02  0.12650247229E+02  0.32331758304E+02  0.36820964441E+02  0.00000000000E+00 0. -1.
         11    1    4    4    0    0 -0.63236274121E+00  0.53632962875E+01  0.24587707256E+01  0.59338337899E+01  0.51100000000E-03 0. -1.
        -11    1    4    4    0    0  0.13314339201E+02  0.17751536196E+01 -0.10197681671E+02  0.16864623045E+02  0.51100000000E-03 0.  1.
        -12    1    4    4    0    0 -0.41771649921E+00 -0.19788697136E+02 -0.24592847359E+02  0.31568578724E+02  0.00000000000E+00 0.  1.
</event>
<event>
 8    1  0.2433390E-006  0.9118800E+02  0.7816164E-02  0.1184000E+00
        -11   -1    0    0    0    0  0.00000000000E+00  0.00000000000E+00  0.45593999997E+02  0.45594000000E+02  0.51100000000E-03 0.  1.
         11   -1    0    0    0    0 -0.00000000000E+00 -0.00000000000E+00 -0.45593999997E+02  0.45594000000E+02  0.51100000000E-03 0. -1.
         23    2    1    2    0    0  0.17763568394E-14  0.00000000000E+00  0.35527136788E-14  0.91188000000E+02  0.91188000000E+02 0.  0.
    9900012    2    3    3    0    0  0.15742875526E+02  0.10366426251E+02  0.31630351353E+02  0.54367081356E+02  0.39999993568E+02 0.  0.
         12    1    3    3    0    0 -0.15742875526E+02 -0.10366426251E+02 -0.31630351353E+02  0.36820918644E+02  0.00000000000E+00 0. -1.
         11    1    4    4    0    0 -0.49316551316E+00  0.88731077187E+01  0.34217447905E+01  0.95227932081E+01  0.51100000000E-03 0. -1.
        -11    1    4    4    0    0  0.87516030784E+01  0.15964027835E+02  0.18096345407E+02  0.25669407054E+02  0.51100000000E-03 0.  1.
         12    1    4    4    0    0  0.74844379608E+01 -0.14470709302E+02  0.10112261156E+02  0.19174881094E+02  0.00000000000E+00 0. -1.
</event>
<event>
 8    1  0.2433390E-006  0.9118800E+02  0.7816164E-02  0.1184000E+00
        -11   -1    0    0    0    0  0.00000000000E+00  0.00000000000E+00  0.45593999997E+02  0.45594000000E+02  0.51100000000E-03 0. -1.
         11   -1    0    0    0    0 -0.00000000000E+00 -0.00000000000E+00 -0.45593999997E+02  0.45594000000E+02  0.51100000000E-03 0.  1.
         23    2    1    2    0    0 -0.35527136788E-14  0.71054273576E-14 -0.35527136788E-14  0.91188000000E+02  0.91188000000E+02 0.  0.
    9900012    2    3    3    0    0  0.11185462576E+02 -0.33444284459E+02  0.10589857828E+02  0.54367084411E+02  0.40000000532E+02 0.  0.
        -12    1    3    3    0    0 -0.11185462576E+02  0.33444284459E+02 -0.10589857828E+02  0.36820915589E+02  0.00000000000E+00 0.  1.
         11    1    4    4    0    0 -0.17546748473E+01 -0.26869302756E+02 -0.18086633064E+01  0.26987211372E+02  0.51100000000E-03 0. -1.
        -11    1    4    4    0    0 -0.35192174522E+01  0.29795379527E+01 -0.98227417087E-01  0.46121780944E+01  0.51100000000E-03 0.  1.
         12    1    4    4    0    0  0.16459354875E+02 -0.95545196551E+01  0.12496748552E+02  0.22767694945E+02  0.00000000000E+00 0. -1.
</event>
<event>
 8    1  0.2433390E-006  0.9118800E+02  0.7816164E-02  0.1184000E+00
        -11   -1    0    0    0    0  0.00000000000E+00  0.00000000000E+00  0.45593999997E+02  0.45594000000E+02  0.51100000000E-03 0.  1.
         11   -1    0    0    0    0 -0.00000000000E+00 -0.00000000000E+00 -0.45593999997E+02  0.45594000000E+02  0.51100000000E-03 0. -1.
         23    2    1    2    0    0  0.00000000000E+00  0.00000000000E+00 -0.35527136788E-14  0.91188000000E+02  0.91188000000E+02 0.  0.
    9900012    2    3    3    0    0  0.17576007198E+02  0.23316807472E+02 -0.22431907452E+02  0.54367081873E+02  0.39999994747E+02 0.  0.
        -12    1    3    3    0    0 -0.17576007198E+02 -0.23316807472E+02  0.22431907452E+02  0.36820918127E+02  0.00000000000E+00 0.  1.
         11    1    4    4    0    0  0.58985882810E+01  0.42863449841E+01 -0.87546728079E+01  0.11393436412E+02  0.51100000000E-03 0. -1.
        -11    1    4    4    0    0  0.32935767269E+01 -0.99423008646E+01 -0.21989965835E+01  0.10701989552E+02  0.51100000000E-03 0.  1.
        -12    1    4    4    0    0  0.83838421905E+01  0.28972763353E+02 -0.11478238061E+02  0.32271655910E+02  0.00000000000E+00 0.  1.
</event>
<event>
 8    1  0.2433390E-006  0.9118800E+02  0.7816164E-02  0.1184000E+00
        -11   -1    0    0    0    0  0.00000000000E+00  0.00000000000E+00  0.45593999997E+02  0.45594000000E+02  0.51100000000E-03 0. -1.
         11   -1    0    0    0    0 -0.00000000000E+00 -0.00000000000E+00 -0.45593999997E+02  0.45594000000E+02  0.51100000000E-03 0.  1.
         23    2    1    2    0    0  0.35527136788E-14  0.00000000000E+00  0.35527136788E-14  0.91188000000E+02  0.91188000000E+02 0.  0.
    9900012    2    3    3    0    0  0.20113638496E+02 -0.20483268024E+02  0.23057693631E+02  0.54367082602E+02  0.39999996407E+02 0.  0.
        -12    1    3    3    0    0 -0.20113638496E+02  0.20483268024E+02 -0.23057693631E+02  0.36820917398E+02  0.00000000000E+00 0.  1.
         11    1    4    4    0    0  0.22472667281E+02 -0.10695957089E+02  0.50381781035E+01  0.25393060304E+02  0.51100000000E-03 0. -1.
        -11    1    4    4    0    0 -0.12419977088E+00 -0.58754450934E+01 -0.35988830768E+01  0.68911711842E+01  0.51100000000E-03 0.  1.
         12    1    4    4    0    0 -0.22348290137E+01 -0.39118658415E+01  0.21618398604E+02  0.22082851113E+02  0.00000000000E+00 0. -1.
</event>
<event>
 8    1  0.2433390E-006  0.9118800E+02  0.7816164E-02  0.1184000E+00
        -11   -1    0    0    0    0  0.00000000000E+00  0.00000000000E+00  0.45593999997E+02  0.45594000000E+02  0.51100000000E-03 0. -1.
         11   -1    0    0    0    0 -0.00000000000E+00 -0.00000000000E+00 -0.45593999997E+02  0.45594000000E+02  0.51100000000E-03 0.  1.
         23    2    1    2    0    0 -0.35527136788E-14  0.00000000000E+00 -0.17763568394E-14  0.91188000000E+02  0.91188000000E+02 0.  0.
    9900012    2    3    3    0    0  0.12771632292E+02 -0.31013001007E+02  0.15194115452E+02  0.54367055319E+02  0.39999934210E+02 0.  0.
         12    1    3    3    0    0 -0.12771632292E+02  0.31013001007E+02 -0.15194115452E+02  0.36820944681E+02  0.00000000000E+00 0. -1.
         11    1    4    4    0    0 -0.67670637276E+01 -0.38519391649E+00 -0.47589987594E+01  0.82818835599E+01  0.51100000000E-03 0. -1.
        -11    1    4    4    0    0  0.75352463171E+00 -0.77384773183E+01  0.13803262779E+02  0.15842408093E+02  0.51100000000E-03 0.  1.
        -12    1    4    4    0    0  0.18785171388E+02 -0.22889329772E+02  0.61498514317E+01  0.30242763666E+02  0.00000000000E+00 0.  1.
</event>
<event>
 8    1  0.2433390E-006  0.9118800E+02  0.7816164E-02  0.1184000E+00
        -11   -1    0    0    0    0  0.00000000000E+00  0.00000000000E+00  0.45593999997E+02  0.45594000000E+02  0.51100000000E-03 0.  1.
         11   -1    0    0    0    0 -0.00000000000E+00 -0.00000000000E+00 -0.45593999997E+02  0.45594000000E+02  0.51100000000E-03 0. -1.
         23    2    1    2    0    0 -0.17763568394E-14  0.13322676296E-14  0.00000000000E+00  0.91188000000E+02  0.91188000000E+02 0.  0.
    9900012    2    3    3    0    0  0.75368006142E+01 -0.39774332482E+01 -0.35821186127E+02  0.54367072333E+02  0.39999972998E+02 0.  0.
        -12    1    3    3    0    0 -0.75368006142E+01  0.39774332482E+01  0.35821186127E+02  0.36820927667E+02  0.00000000000E+00 0.  1.
         11    1    4    4    0    0  0.12744674536E+02  0.36426587571E+01 -0.12288841668E+02  0.18075157583E+02  0.51100000000E-03 0. -1.
        -11    1    4    4    0    0  0.96011234754E+01 -0.84153909345E+01 -0.11744963031E+02  0.17347752979E+02  0.51100000000E-03 0.  1.
        -12    1    4    4    0    0 -0.14808997397E+02  0.79529892918E+00 -0.11787381427E+02  0.18944161771E+02  0.00000000000E+00 0.  1.
</event>
<event>
 8    1  0.2433390E-006  0.9118800E+02  0.7816164E-02  0.1184000E+00
        -11   -1    0    0    0    0  0.00000000000E+00  0.00000000000E+00  0.45593999997E+02  0.45594000000E+02  0.51100000000E-03 0. -1.
         11   -1    0    0    0    0 -0.00000000000E+00 -0.00000000000E+00 -0.45593999997E+02  0.45594000000E+02  0.51100000000E-03 0.  1.
         23    2    1    2    0    0 -0.35527136788E-14  0.00000000000E+00  0.35527136788E-14  0.91188000000E+02  0.91188000000E+02 0.  0.
    9900012    2    3    3    0    0 -0.26453106712E+02  0.87386968121E+01 -0.24075882182E+02  0.54367085026E+02  0.40000001933E+02 0.  0.
         12    1    3    3    0    0  0.26453106712E+02 -0.87386968121E+01  0.24075882182E+02  0.36820914974E+02  0.00000000000E+00 0. -1.
         11    1    4    4    0    0 -0.80228048894E+01  0.12704138970E+02  0.17771583623E+01  0.15130064024E+02  0.51100000000E-03 0.  1.
        -11    1    4    4    0    0 -0.68982532966E+01 -0.49880411779E+01  0.22818529022E+01  0.88132460686E+01  0.51100000000E-03 0. -1.
        -12    1    4    4    0    0 -0.11532048526E+02  0.10225990204E+01 -0.28134893447E+02  0.30423774934E+02  0.00000000000E+00 0.  1.
</event>
<event>
 8    1  0.2433390E-006  0.9118800E+02  0.7816164E-02  0.1184000E+00
        -11   -1    0    0    0    0  0.00000000000E+00  0.00000000000E+00  0.45593999997E+02  0.45594000000E+02  0.51100000000E-03 0. -1.
         11   -1    0    0    0    0 -0.00000000000E+00 -0.00000000000E+00 -0.45593999997E+02  0.45594000000E+02  0.51100000000E-03 0.  1.
         23    2    1    2    0    0  0.35527136788E-14 -0.17763568394E-14  0.00000000000E+00  0.91188000000E+02  0.91188000000E+02 0.  0.
    9900012    2    3    3    0    0  0.23353812226E+02 -0.12437519186E+02  0.25606393730E+02  0.54367084356E+02  0.40000000407E+02 0.  0.
        -12    1    3    3    0    0 -0.23353812226E+02  0.12437519186E+02 -0.25606393730E+02  0.36820915644E+02  0.00000000000E+00 0.  1.
         11    1    4    4    0    0  0.15304930971E+02  0.56220301145E+01  0.11113701065E+02  0.19732270175E+02  0.51100000000E-03 0. -1.
        -11    1    4    4    0    0  0.10735178450E+02 -0.22286395956E+01 -0.25107012414E+01  0.11247866988E+02  0.51100000000E-03 0.  1.
         12    1    4    4    0    0 -0.26862971947E+01 -0.15830909705E+02  0.17003393906E+02  0.23386947194E+02  0.00000000000E+00 0. -1.
</event>
<event>
 8    1  0.2433390E-006  0.9118800E+02  0.7816164E-02  0.1184000E+00
        -11   -1    0    0    0    0  0.00000000000E+00  0.00000000000E+00  0.45593999997E+02  0.45594000000E+02  0.51100000000E-03 0.  1.
         11   -1    0    0    0    0 -0.00000000000E+00 -0.00000000000E+00 -0.45593999997E+02  0.45594000000E+02  0.51100000000E-03 0. -1.
         23    2    1    2    0    0  0.00000000000E+00  0.00000000000E+00  0.00000000000E+00  0.91188000000E+02  0.91188000000E+02 0.  0.
    9900012    2    3    3    0    0  0.68425915033E+01 -0.26630655295E+02  0.24490148284E+02  0.54367079006E+02  0.39999988209E+02 0.  0.
         12    1    3    3    0    0 -0.68425915033E+01  0.26630655295E+02 -0.24490148284E+02  0.36820920994E+02  0.00000000000E+00 0. -1.
         11    1    4    4    0    0 -0.36537646803E+01 -0.68422134366E+01  0.68175719309E+01  0.10326914754E+02  0.51100000000E-03 0. -1.
        -11    1    4    4    0    0  0.15890027672E+02 -0.12033787941E+02  0.25080041226E+02  0.32036128040E+02  0.51100000000E-03 0.  1.
         12    1    4    4    0    0 -0.53936714889E+01 -0.77546539173E+01 -0.74074648733E+01  0.12004036211E+02  0.00000000000E+00 0. -1.
</event>
<event>
 8    1  0.2433390E-006  0.9118800E+02  0.7816164E-02  0.1184000E+00
        -11   -1    0    0    0    0  0.00000000000E+00  0.00000000000E+00  0.45593999997E+02  0.45594000000E+02  0.51100000000E-03 0.  1.
         11   -1    0    0    0    0 -0.00000000000E+00 -0.00000000000E+00 -0.45593999997E+02  0.45594000000E+02  0.51100000000E-03 0. -1.
         23    2    1    2    0    0 -0.35527136788E-14 -0.17763568394E-14 -0.35527136788E-14  0.91188000000E+02  0.91188000000E+02 0.  0.
    9900012    2    3    3    0    0  0.29440856875E+02 -0.11955013928E+02  0.18603659978E+02  0.54367047050E+02  0.39999915359E+02 0.  0.
         12    1    3    3    0    0 -0.29440856875E+02  0.11955013928E+02 -0.18603659978E+02  0.36820952950E+02  0.00000000000E+00 0. -1.
         11    1    4    4    0    0  0.54445524338E+01 -0.17342035332E+02  0.34807378089E+01  0.18506887275E+02  0.51100000000E-03 0. -1.
        -11    1    4    4    0    0  0.77841624963E+01  0.84075003776E+01  0.15607838351E+02  0.19361917948E+02  0.51100000000E-03 0.  1.
        -12    1    4    4    0    0  0.16212141945E+02 -0.30204789741E+01 -0.48491618146E+00  0.16498241827E+02  0.00000000000E+00 0.  1.
</event>
<event>
 8    1  0.2433390E-006  0.9118800E+02  0.7816164E-02  0.1184000E+00
        -11   -1    0    0    0    0  0.00000000000E+00  0.00000000000E+00  0.45593999997E+02  0.45594000000E+02  0.51100000000E-03 0.  1.
         11   -1    0    0    0    0 -0.00000000000E+00 -0.00000000000E+00 -0.45593999997E+02  0.45594000000E+02  0.51100000000E-03 0. -1.
         23    2    1    2    0    0  0.00000000000E+00  0.00000000000E+00 -0.35527136788E-14  0.91188000000E+02  0.91188000000E+02 0.  0.
    9900012    2    3    3    0    0  0.12159311426E+02 -0.19565370441E+02  0.28725026251E+02  0.54367085998E+02  0.40000004149E+02 0.  0.
         12    1    3    3    0    0 -0.12159311426E+02  0.19565370441E+02 -0.28725026251E+02  0.36820914002E+02  0.00000000000E+00 0. -1.
         11    1    4    4    0    0  0.22915035285E+01 -0.13188710944E+02 -0.52901094503E+01  0.14393691085E+02  0.51100000000E-03 0. -1.
        -11    1    4    4    0    0  0.76370498403E+01  0.32415211995E+01  0.59151545684E+01  0.10189261199E+02  0.51100000000E-03 0.  1.
        -12    1    4    4    0    0  0.22307580574E+01 -0.96181806962E+01  0.28099981133E+02  0.29784133714E+02  0.00000000000E+00 0.  1.
</event>
<event>
 8    1  0.2433390E-006  0.9118800E+02  0.7816164E-02  0.1184000E+00
        -11   -1    0    0    0    0  0.00000000000E+00  0.00000000000E+00  0.45593999997E+02  0.45594000000E+02  0.51100000000E-03 0.  1.
         11   -1    0    0    0    0 -0.00000000000E+00 -0.00000000000E+00 -0.45593999997E+02  0.45594000000E+02  0.51100000000E-03 0. -1.
         23    2    1    2    0    0  0.00000000000E+00  0.00000000000E+00  0.35527136788E-14  0.91188000000E+02  0.91188000000E+02 0.  0.
    9900012    2    3    3    0    0  0.34661286018E+02  0.67233248423E+01 -0.10448512479E+02  0.54367092103E+02  0.40000018067E+02 0.  0.
        -12    1    3    3    0    0 -0.34661286018E+02 -0.67233248423E+01  0.10448512479E+02  0.36820907897E+02  0.00000000000E+00 0.  1.
         11    1    4    4    0    0  0.71687984270E+01 -0.35535787872E+01 -0.42404664157E+01  0.90554485680E+01  0.51100000000E-03 0. -1.
        -11    1    4    4    0    0  0.14272533204E+02 -0.32766293737E+01  0.12083716792E+02  0.18985724002E+02  0.51100000000E-03 0.  1.
        -12    1    4    4    0    0  0.13219954387E+02  0.13553533003E+02 -0.18291762856E+02  0.26325919532E+02  0.00000000000E+00 0.  1.
</event>
<event>
 8    1  0.2433390E-006  0.9118800E+02  0.7816164E-02  0.1184000E+00
        -11   -1    0    0    0    0  0.00000000000E+00  0.00000000000E+00  0.45593999997E+02  0.45594000000E+02  0.51100000000E-03 0.  1.
         11   -1    0    0    0    0 -0.00000000000E+00 -0.00000000000E+00 -0.45593999997E+02  0.45594000000E+02  0.51100000000E-03 0. -1.
         23    2    1    2    0    0  0.00000000000E+00  0.71054273576E-14  0.31086244690E-14  0.91188000000E+02  0.91188000000E+02 0.  0.
    9900012    2    3    3    0    0 -0.87343973123E+01  0.35675407588E+02  0.25994269815E+01  0.54367062700E+02  0.39999951038E+02 0.  0.
        -12    1    3    3    0    0  0.87343973123E+01 -0.35675407588E+02 -0.25994269815E+01  0.36820937300E+02  0.00000000000E+00 0.  1.
         11    1    4    4    0    0 -0.27514857284E+01  0.12282109575E+02 -0.10029250489E+02  0.16093686804E+02  0.51100000000E-03 0. -1.
        -11    1    4    4    0    0 -0.10981294918E+02  0.13252339468E+02  0.18721349656E+02  0.25430341576E+02  0.51100000000E-03 0.  1.
        -12    1    4    4    0    0  0.49983833343E+01  0.10140958545E+02 -0.60926721865E+01  0.12843034320E+02  0.00000000000E+00 0.  1.
</event>
<event>
 8    1  0.2433390E-006  0.9118800E+02  0.7816164E-02  0.1184000E+00
        -11   -1    0    0    0    0  0.00000000000E+00  0.00000000000E+00  0.45593999997E+02  0.45594000000E+02  0.51100000000E-03 0.  1.
         11   -1    0    0    0    0 -0.00000000000E+00 -0.00000000000E+00 -0.45593999997E+02  0.45594000000E+02  0.51100000000E-03 0. -1.
         23    2    1    2    0    0  0.00000000000E+00 -0.35527136788E-14 -0.22204460493E-15  0.91188000000E+02  0.91188000000E+02 0.  0.
    9900012    2    3    3    0    0  0.32498710261E+02 -0.17206826569E+02 -0.18816258772E+01  0.54367060778E+02  0.39999946657E+02 0.  0.
         12    1    3    3    0    0 -0.32498710261E+02  0.17206826569E+02  0.18816258772E+01  0.36820939222E+02  0.00000000000E+00 0. -1.
         11    1    4    4    0    0  0.43515950118E+01  0.62472292911E+01  0.81984303633E+01  0.11188320412E+02  0.51100000000E-03 0. -1.
        -11    1    4    4    0    0  0.12346412160E+02 -0.12416591333E+02  0.55446576217E+01  0.18367059154E+02  0.51100000000E-03 0.  1.
         12    1    4    4    0    0  0.15800703089E+02 -0.11037464527E+02 -0.15624713862E+02  0.24811681212E+02  0.00000000000E+00 0. -1.
</event>
<event>
 8    1  0.2433390E-006  0.9118800E+02  0.7816164E-02  0.1184000E+00
        -11   -1    0    0    0    0  0.00000000000E+00  0.00000000000E+00  0.45593999997E+02  0.45594000000E+02  0.51100000000E-03 0. -1.
         11   -1    0    0    0    0 -0.00000000000E+00 -0.00000000000E+00 -0.45593999997E+02  0.45594000000E+02  0.51100000000E-03 0.  1.
         23    2    1    2    0    0  0.00000000000E+00 -0.17763568394E-14  0.35527136788E-14  0.91188000000E+02  0.91188000000E+02 0.  0.
    9900012    2    3    3    0    0  0.10450201584E+02 -0.15903776877E+02 -0.31522101021E+02  0.54367086312E+02  0.40000004865E+02 0.  0.
         12    1    3    3    0    0 -0.10450201584E+02  0.15903776877E+02  0.31522101021E+02  0.36820913688E+02  0.00000000000E+00 0. -1.
         11    1    4    4    0    0 -0.50409110944E-01  0.98109675077E+01 -0.16469040181E+02  0.19169948077E+02  0.51100000000E-03 0. -1.
        -11    1    4    4    0    0  0.27276307868E+01 -0.12108149734E+02 -0.15074785207E+02  0.19526812566E+02  0.51100000000E-03 0.  1.
         12    1    4    4    0    0  0.77729799078E+01 -0.13606594651E+02  0.21724367136E-01  0.15670325670E+02  0.00000000000E+00 0. -1.
</event>
<event>
 8    1  0.2433390E-006  0.9118800E+02  0.7816164E-02  0.1184000E+00
        -11   -1    0    0    0    0  0.00000000000E+00  0.00000000000E+00  0.45593999997E+02  0.45594000000E+02  0.51100000000E-03 0. -1.
         11   -1    0    0    0    0 -0.00000000000E+00 -0.00000000000E+00 -0.45593999997E+02  0.45594000000E+02  0.51100000000E-03 0.  1.
         23    2    1    2    0    0  0.00000000000E+00  0.00000000000E+00  0.35527136788E-14  0.91188000000E+02  0.91188000000E+02 0.  0.
    9900012    2    3    3    0    0  0.70391215117E+01  0.21794622038E+02  0.28830975239E+02  0.54367083191E+02  0.39999997750E+02 0.  0.
        -12    1    3    3    0    0 -0.70391215117E+01 -0.21794622038E+02 -0.28830975239E+02  0.36820916809E+02  0.00000000000E+00 0.  1.
         11    1    4    4    0    0 -0.10914386354E+02  0.16177201541E+02  0.17973287164E+02  0.26530449128E+02  0.51100000000E-03 0. -1.
        -11    1    4    4    0    0  0.18478387438E+01  0.64895027901E+01 -0.21864849028E+01  0.70928746625E+01  0.51100000000E-03 0.  1.
        -12    1    4    4    0    0  0.16105669122E+02 -0.87208229346E+00  0.13044172978E+02  0.20743759401E+02  0.00000000000E+00 0.  1.
</event>
<event>
 8    1  0.2433390E-006  0.9118800E+02  0.7816164E-02  0.1184000E+00
        -11   -1    0    0    0    0  0.00000000000E+00  0.00000000000E+00  0.45593999997E+02  0.45594000000E+02  0.51100000000E-03 0.  1.
         11   -1    0    0    0    0 -0.00000000000E+00 -0.00000000000E+00 -0.45593999997E+02  0.45594000000E+02  0.51100000000E-03 0. -1.
         23    2    1    2    0    0  0.00000000000E+00  0.00000000000E+00  0.00000000000E+00  0.91188000000E+02  0.91188000000E+02 0.  0.
    9900012    2    3    3    0    0 -0.20839661574E+02 -0.19821607304E+02 -0.22991133956E+02  0.54367084053E+02  0.39999999715E+02 0.  0.
        -12    1    3    3    0    0  0.20839661574E+02  0.19821607304E+02  0.22991133956E+02  0.36820915947E+02  0.00000000000E+00 0.  1.
         11    1    4    4    0    0 -0.44864218050E+00 -0.11337103335E+02 -0.19461209805E+02  0.22527092115E+02  0.51100000000E-03 0.  1.
        -11    1    4    4    0    0 -0.48047859703E+01  0.58256172999E+00 -0.11233380548E+02  0.12231687749E+02  0.51100000000E-03 0. -1.
        -12    1    4    4    0    0 -0.15586233423E+02 -0.90670656989E+01  0.77034563971E+01  0.19608304189E+02  0.00000000000E+00 0.  1.
</event>
<event>
 8    1  0.2433390E-006  0.9118800E+02  0.7816164E-02  0.1184000E+00
        -11   -1    0    0    0    0  0.00000000000E+00  0.00000000000E+00  0.45593999997E+02  0.45594000000E+02  0.51100000000E-03 0. -1.
         11   -1    0    0    0    0 -0.00000000000E+00 -0.00000000000E+00 -0.45593999997E+02  0.45594000000E+02  0.51100000000E-03 0.  1.
         23    2    1    2    0    0  0.35527136788E-14  0.00000000000E+00 -0.35527136788E-14  0.91188000000E+02  0.91188000000E+02 0.  0.
    9900012    2    3    3    0    0 -0.17523447558E+02 -0.16748911129E+02  0.27716104828E+02  0.54367086036E+02  0.40000004236E+02 0.  0.
        -12    1    3    3    0    0  0.17523447558E+02  0.16748911129E+02 -0.27716104828E+02  0.36820913964E+02  0.00000000000E+00 0.  1.
         11    1    4    4    0    0 -0.27452871169E+02 -0.53026852965E+01  0.12127168202E+02  0.30476988297E+02  0.51100000000E-03 0. -1.
        -11    1    4    4    0    0  0.32181733288E+01 -0.18800676835E+01 -0.75064044635E+00  0.38019410055E+01  0.51100000000E-03 0.  1.
         12    1    4    4    0    0  0.67112502816E+01 -0.95661581488E+01  0.16339577072E+02  0.20088156734E+02  0.00000000000E+00 0. -1.
</event>
<event>
 8    1  0.2433390E-006  0.9118800E+02  0.7816164E-02  0.1184000E+00
        -11   -1    0    0    0    0  0.00000000000E+00  0.00000000000E+00  0.45593999997E+02  0.45594000000E+02  0.51100000000E-03 0. -1.
         11   -1    0    0    0    0 -0.00000000000E+00 -0.00000000000E+00 -0.45593999997E+02  0.45594000000E+02  0.51100000000E-03 0.  1.
         23    2    1    2    0    0 -0.35527136788E-14  0.00000000000E+00 -0.71054273576E-14  0.91188000000E+02  0.91188000000E+02 0.  0.
    9900012    2    3    3    0    0 -0.25351746944E+02 -0.17773687513E+02 -0.19928992064E+02  0.54367085215E+02  0.40000002364E+02 0.  0.
         12    1    3    3    0    0  0.25351746944E+02  0.17773687513E+02  0.19928992064E+02  0.36820914785E+02  0.00000000000E+00 0. -1.
         11    1    4    4    0    0 -0.15240709329E+00  0.37643350153E+01  0.17989814455E+01  0.41748988649E+01  0.51100000000E-03 0. -1.
        -11    1    4    4    0    0  0.39549881852E+00 -0.60230295497E+01  0.66266704235E+01  0.89635966796E+01  0.51100000000E-03 0.  1.
        -12    1    4    4    0    0 -0.25594838669E+02 -0.15514992978E+02 -0.28354643933E+02  0.41228589670E+02  0.00000000000E+00 0.  1.
</event>
<event>
 8    1  0.2433390E-006  0.9118800E+02  0.7816164E-02  0.1184000E+00
        -11   -1    0    0    0    0  0.00000000000E+00  0.00000000000E+00  0.45593999997E+02  0.45594000000E+02  0.51100000000E-03 0. -1.
         11   -1    0    0    0    0 -0.00000000000E+00 -0.00000000000E+00 -0.45593999997E+02  0.45594000000E+02  0.51100000000E-03 0.  1.
         23    2    1    2    0    0 -0.17763568394E-14 -0.17763568394E-14  0.00000000000E+00  0.91188000000E+02  0.91188000000E+02 0.  0.
    9900012    2    3    3    0    0  0.81497636036E+01  0.12260466360E+02 -0.33749696235E+02  0.54367086403E+02  0.40000005073E+02 0.  0.
         12    1    3    3    0    0 -0.81497636036E+01 -0.12260466360E+02  0.33749696235E+02  0.36820913597E+02  0.00000000000E+00 0. -1.
         11    1    4    4    0    0 -0.35405406003E+01 -0.79631210867E+01 -0.10610463247E+02  0.13730573760E+02  0.51100000000E-03 0. -1.
        -11    1    4    4    0    0 -0.44526815092E+01  0.14386881313E+02 -0.55259177660E+01  0.16041960415E+02  0.51100000000E-03 0.  1.
        -12    1    4    4    0    0  0.16142985713E+02  0.58367061337E+01 -0.17613315222E+02  0.24594552229E+02  0.00000000000E+00 0.  1.
</event>
<event>
 8    1  0.2433390E-006  0.9118800E+02  0.7816164E-02  0.1184000E+00
        -11   -1    0    0    0    0  0.00000000000E+00  0.00000000000E+00  0.45593999997E+02  0.45594000000E+02  0.51100000000E-03 0.  1.
         11   -1    0    0    0    0 -0.00000000000E+00 -0.00000000000E+00 -0.45593999997E+02  0.45594000000E+02  0.51100000000E-03 0. -1.
         23    2    1    2    0    0  0.17763568394E-14 -0.35527136788E-14  0.00000000000E+00  0.91188000000E+02  0.91188000000E+02 0.  0.
    9900012    2    3    3    0    0 -0.65952378963E+01  0.29495683484E+02 -0.21030626412E+02  0.54367085367E+02  0.40000002711E+02 0.  0.
        -12    1    3    3    0    0  0.65952378963E+01 -0.29495683484E+02  0.21030626412E+02  0.36820914633E+02  0.00000000000E+00 0.  1.
         11    1    4    4    0    0 -0.10510078860E+02  0.17398555003E+02 -0.19634020156E+02  0.28260683318E+02  0.51100000000E-03 0. -1.
        -11    1    4    4    0    0  0.10256781379E+02  0.70422702177E+01 -0.87087313280E+01  0.15186742102E+02  0.51100000000E-03 0.  1.
         12    1    4    4    0    0 -0.63419404152E+01  0.50548582637E+01  0.73121250719E+01  0.10919659947E+02  0.00000000000E+00 0. -1.
</event>
<event>
 8    1  0.2433390E-006  0.9118800E+02  0.7816164E-02  0.1184000E+00
        -11   -1    0    0    0    0  0.00000000000E+00  0.00000000000E+00  0.45593999997E+02  0.45594000000E+02  0.51100000000E-03 0. -1.
         11   -1    0    0    0    0 -0.00000000000E+00 -0.00000000000E+00 -0.45593999997E+02  0.45594000000E+02  0.51100000000E-03 0.  1.
         23    2    1    2    0    0  0.00000000000E+00  0.00000000000E+00  0.00000000000E+00  0.91188000000E+02  0.91188000000E+02 0.  0.
    9900012    2    3    3    0    0  0.73155009718E+01  0.12045232418E+02 -0.34017280790E+02  0.54367087860E+02  0.40000008395E+02 0.  0.
         12    1    3    3    0    0 -0.73155009718E+01 -0.12045232418E+02  0.34017280790E+02  0.36820912140E+02  0.00000000000E+00 0. -1.
         11    1    4    4    0    0 -0.32452724117E+01 -0.33366562039E+00  0.56666500008E+01  0.65386579866E+01  0.51100000000E-03 0. -1.
        -11    1    4    4    0    0  0.15132131756E+02  0.10136247033E+02 -0.18195351021E+02  0.25744819177E+02  0.51100000000E-03 0.  1.
         12    1    4    4    0    0 -0.45713583726E+01  0.22426510048E+01 -0.21488579770E+02  0.22083610697E+02  0.00000000000E+00 0. -1.
</event>
<event>
 8    1  0.2433390E-006  0.9118800E+02  0.7816164E-02  0.1184000E+00
        -11   -1    0    0    0    0  0.00000000000E+00  0.00000000000E+00  0.45593999997E+02  0.45594000000E+02  0.51100000000E-03 0. -1.
         11   -1    0    0    0    0 -0.00000000000E+00 -0.00000000000E+00 -0.45593999997E+02  0.45594000000E+02  0.51100000000E-03 0.  1.
         23    2    1    2    0    0  0.11102230246E-14  0.17763568394E-14  0.00000000000E+00  0.91188000000E+02  0.91188000000E+02 0.  0.
    9900012    2    3    3    0    0  0.16151513947E+01 -0.14213943737E+02  0.33928342973E+02  0.54367117780E+02  0.40000076604E+02 0.  0.
        -12    1    3    3    0    0 -0.16151513947E+01  0.14213943737E+02 -0.33928342973E+02  0.36820882220E+02  0.00000000000E+00 0.  1.
         11    1    4    4    0    0  0.17553344688E+01 -0.25772088638E+01  0.64249195377E+00  0.31837086545E+01  0.51100000000E-03 0. -1.
        -11    1    4    4    0    0 -0.11615163099E+02 -0.16494688777E+02  0.33049504129E+02  0.38720233665E+02  0.51100000000E-03 0.  1.
        -12    1    4    4    0    0  0.11474980025E+02  0.48579539039E+01  0.23634689026E+00  0.12463175461E+02  0.00000000000E+00 0.  1.
</event>
<event>
 8    1  0.2433390E-006  0.9118800E+02  0.7816164E-02  0.1184000E+00
        -11   -1    0    0    0    0  0.00000000000E+00  0.00000000000E+00  0.45593999997E+02  0.45594000000E+02  0.51100000000E-03 0.  1.
         11   -1    0    0    0    0 -0.00000000000E+00 -0.00000000000E+00 -0.45593999997E+02  0.45594000000E+02  0.51100000000E-03 0. -1.
         23    2    1    2    0    0 -0.35527136788E-14  0.17763568394E-14  0.00000000000E+00  0.91188000000E+02  0.91188000000E+02 0.  0.
    9900012    2    3    3    0    0  0.31205935920E+02  0.14808200390E+02  0.12754895127E+02  0.54367074087E+02  0.39999976995E+02 0.  0.
         12    1    3    3    0    0 -0.31205935920E+02 -0.14808200390E+02 -0.12754895127E+02  0.36820925913E+02  0.00000000000E+00 0. -1.
         11    1    4    4    0    0  0.61000252532E+01  0.10627181738E+01 -0.10360864007E+02  0.12070094500E+02  0.51100000000E-03 0. -1.
        -11    1    4    4    0    0  0.25854450918E+02  0.62803862020E+01  0.12756685578E+02  0.29506421510E+02  0.51100000000E-03 0.  1.
        -12    1    4    4    0    0 -0.74854025077E+00  0.74650960139E+01  0.10359073555E+02  0.12790558077E+02  0.00000000000E+00 0.  1.
</event>
<event>
 8    1  0.2433390E-006  0.9118800E+02  0.7816164E-02  0.1184000E+00
        -11   -1    0    0    0    0  0.00000000000E+00  0.00000000000E+00  0.45593999997E+02  0.45594000000E+02  0.51100000000E-03 0. -1.
         11   -1    0    0    0    0 -0.00000000000E+00 -0.00000000000E+00 -0.45593999997E+02  0.45594000000E+02  0.51100000000E-03 0.  1.
         23    2    1    2    0    0  0.00000000000E+00 -0.35527136788E-14  0.22204460493E-15  0.91188000000E+02  0.91188000000E+02 0.  0.
    9900012    2    3    3    0    0  0.23909521614E+02  0.27970243454E+02  0.13341662650E+01  0.54367085531E+02  0.40000003086E+02 0.  0.
         12    1    3    3    0    0 -0.23909521614E+02 -0.27970243454E+02 -0.13341662650E+01  0.36820914469E+02  0.00000000000E+00 0. -1.
         11    1    4    4    0    0 -0.33459027018E+01 -0.72189458657E+01  0.32100215174E+01  0.85797717164E+01  0.51100000000E-03 0. -1.
        -11    1    4    4    0    0  0.13592763153E+02  0.98620744623E+01 -0.26405509592E+01  0.16999889190E+02  0.51100000000E-03 0.  1.
         12    1    4    4    0    0  0.13662661163E+02  0.25327114857E+02  0.76469570688E+00  0.28787424625E+02  0.00000000000E+00 0. -1.
</event>
<event>
 8    1  0.2433390E-006  0.9118800E+02  0.7816164E-02  0.1184000E+00
        -11   -1    0    0    0    0  0.00000000000E+00  0.00000000000E+00  0.45593999997E+02  0.45594000000E+02  0.51100000000E-03 0.  1.
         11   -1    0    0    0    0 -0.00000000000E+00 -0.00000000000E+00 -0.45593999997E+02  0.45594000000E+02  0.51100000000E-03 0. -1.
         23    2    1    2    0    0  0.00000000000E+00  0.00000000000E+00 -0.71054273576E-14  0.91188000000E+02  0.91188000000E+02 0.  0.
    9900012    2    3    3    0    0 -0.14440839619E+02  0.23951361049E+02 -0.23949410851E+02  0.54367084407E+02  0.40000000523E+02 0.  0.
        -12    1    3    3    0    0  0.14440839619E+02 -0.23951361049E+02  0.23949410851E+02  0.36820915593E+02  0.00000000000E+00 0.  1.
         11    1    4    4    0    0 -0.89343353100E+01  0.15520106855E+02 -0.45261209034E+01  0.18471108113E+02  0.51100000000E-03 0. -1.
        -11    1    4    4    0    0 -0.74914697893E+01 -0.86195398707E+00 -0.24137538386E+02  0.25288057337E+02  0.51100000000E-03 0.  1.
         12    1    4    4    0    0  0.19849654803E+01  0.92932081814E+01  0.47142484391E+01  0.10607918957E+02  0.00000000000E+00 0. -1.
</event>
<event>
 8    1  0.2433390E-006  0.9118800E+02  0.7816164E-02  0.1184000E+00
        -11   -1    0    0    0    0  0.00000000000E+00  0.00000000000E+00  0.45593999997E+02  0.45594000000E+02  0.51100000000E-03 0.  1.
         11   -1    0    0    0    0 -0.00000000000E+00 -0.00000000000E+00 -0.45593999997E+02  0.45594000000E+02  0.51100000000E-03 0. -1.
         23    2    1    2    0    0  0.00000000000E+00 -0.71054273576E-14  0.00000000000E+00  0.91188000000E+02  0.91188000000E+02 0.  0.
    9900012    2    3    3    0    0  0.87485100669E+01  0.33389944878E+02 -0.12820104935E+02  0.54367082875E+02  0.39999997031E+02 0.  0.
        -12    1    3    3    0    0 -0.87485100669E+01 -0.33389944878E+02  0.12820104935E+02  0.36820917125E+02  0.00000000000E+00 0.  1.
         11    1    4    4    0    0  0.25091889109E+01  0.61216553694E+01 -0.18868392756E+02  0.19994672763E+02  0.51100000000E-03 0. -1.
        -11    1    4    4    0    0 -0.60465588155E+01  0.10536469461E+02  0.61454488444E+01  0.13614132509E+02  0.51100000000E-03 0.  1.
         12    1    4    4    0    0  0.12285879972E+02  0.16731820048E+02 -0.97161023286E-01  0.20758277603E+02  0.00000000000E+00 0. -1.
</event>
<event>
 8    1  0.2433390E-006  0.9118800E+02  0.7816164E-02  0.1184000E+00
        -11   -1    0    0    0    0  0.00000000000E+00  0.00000000000E+00  0.45593999997E+02  0.45594000000E+02  0.51100000000E-03 0. -1.
         11   -1    0    0    0    0 -0.00000000000E+00 -0.00000000000E+00 -0.45593999997E+02  0.45594000000E+02  0.51100000000E-03 0.  1.
         23    2    1    2    0    0 -0.35527136788E-14  0.00000000000E+00  0.00000000000E+00  0.91188000000E+02  0.91188000000E+02 0.  0.
    9900012    2    3    3    0    0 -0.24146203558E+02  0.24683925312E+02 -0.12784610234E+02  0.54367060659E+02  0.39999946385E+02 0.  0.
        -12    1    3    3    0    0  0.24146203558E+02 -0.24683925312E+02  0.12784610234E+02  0.36820939341E+02  0.00000000000E+00 0.  1.
         11    1    4    4    0    0  0.62728183089E+01  0.31314298876E+01 -0.52523268579E+01  0.87601963654E+01  0.51100000000E-03 0. -1.
        -11    1    4    4    0    0 -0.63283555163E+01 -0.38064549906E+01  0.44639088825E+01  0.86292332167E+01  0.51100000000E-03 0.  1.
         12    1    4    4    0    0 -0.24090666350E+02  0.25358950416E+02 -0.11996192259E+02  0.36977631077E+02  0.00000000000E+00 0. -1.
</event>
<event>
 8    1  0.2433390E-006  0.9118800E+02  0.7816164E-02  0.1184000E+00
        -11   -1    0    0    0    0  0.00000000000E+00  0.00000000000E+00  0.45593999997E+02  0.45594000000E+02  0.51100000000E-03 0.  1.
         11   -1    0    0    0    0 -0.00000000000E+00 -0.00000000000E+00 -0.45593999997E+02  0.45594000000E+02  0.51100000000E-03 0. -1.
         23    2    1    2    0    0 -0.19984014443E-14  0.00000000000E+00  0.00000000000E+00  0.91188000000E+02  0.91188000000E+02 0.  0.
    9900012    2    3    3    0    0  0.16130526851E+01 -0.35308525995E+02 -0.10319203115E+02  0.54367083392E+02  0.39999998209E+02 0.  0.
         12    1    3    3    0    0 -0.16130526851E+01  0.35308525995E+02  0.10319203115E+02  0.36820916608E+02  0.00000000000E+00 0. -1.
         11    1    4    4    0    0 -0.86698518232E+01 -0.28818634711E+02  0.30055360282E+01  0.30244227289E+02  0.51100000000E-03 0.  1.
        -11    1    4    4    0    0  0.12504310823E+02  0.67505149153E+00 -0.72470146485E+01  0.14468334570E+02  0.51100000000E-03 0. -1.
        -12    1    4    4    0    0 -0.22214063142E+01 -0.71649427754E+01 -0.60777244949E+01  0.96545215326E+01  0.00000000000E+00 0.  1.
</event>
<event>
 8    1  0.2433390E-006  0.9118800E+02  0.7816164E-02  0.1184000E+00
        -11   -1    0    0    0    0  0.00000000000E+00  0.00000000000E+00  0.45593999997E+02  0.45594000000E+02  0.51100000000E-03 0. -1.
         11   -1    0    0    0    0 -0.00000000000E+00 -0.00000000000E+00 -0.45593999997E+02  0.45594000000E+02  0.51100000000E-03 0.  1.
         23    2    1    2    0    0  0.00000000000E+00  0.00000000000E+00  0.00000000000E+00  0.91188000000E+02  0.91188000000E+02 0.  0.
    9900012    2    3    3    0    0 -0.32334220422E+02 -0.17537093308E+02  0.16511760508E+01  0.54367111440E+02  0.40000062151E+02 0.  0.
        -12    1    3    3    0    0  0.32334220422E+02  0.17537093308E+02 -0.16511760508E+01  0.36820888560E+02  0.00000000000E+00 0.  1.
         11    1    4    4    0    0  0.39483984358E+01 -0.44432459386E+01  0.17336190577E+01  0.61917461170E+01  0.51100000000E-03 0. -1.
        -11    1    4    4    0    0  0.17273448128E+00 -0.84289819183E+01  0.67414123627E+01  0.10794638219E+02  0.51100000000E-03 0.  1.
         12    1    4    4    0    0 -0.36455353339E+02 -0.46648654513E+01 -0.68238553696E+01  0.37380727104E+02  0.00000000000E+00 0. -1.
</event>
<event>
 8    1  0.2433390E-006  0.9118800E+02  0.7816164E-02  0.1184000E+00
        -11   -1    0    0    0    0  0.00000000000E+00  0.00000000000E+00  0.45593999997E+02  0.45594000000E+02  0.51100000000E-03 0.  1.
         11   -1    0    0    0    0 -0.00000000000E+00 -0.00000000000E+00 -0.45593999997E+02  0.45594000000E+02  0.51100000000E-03 0. -1.
         23    2    1    2    0    0  0.44408920985E-15  0.17763568394E-14  0.00000000000E+00  0.91188000000E+02  0.91188000000E+02 0.  0.
    9900012    2    3    3    0    0  0.27686631715E+01  0.11132532875E+02  0.34988301194E+02  0.54367081972E+02  0.39999994972E+02 0.  0.
         12    1    3    3    0    0 -0.27686631715E+01 -0.11132532875E+02 -0.34988301194E+02  0.36820918028E+02  0.00000000000E+00 0. -1.
         11    1    4    4    0    0 -0.63207944888E+01  0.59570423675E+00 -0.11293616776E+01  0.64484699400E+01  0.51100000000E-03 0. -1.
        -11    1    4    4    0    0 -0.46158014641E+01 -0.83874407465E+00 -0.25546091581E+01  0.53418295546E+01  0.51100000000E-03 0.  1.
        -12    1    4    4    0    0  0.13705259125E+02  0.11375572712E+02  0.38672272030E+02  0.42576782478E+02  0.00000000000E+00 0.  1.
</event>
<event>
 8    1  0.2433390E-006  0.9118800E+02  0.7816164E-02  0.1184000E+00
        -11   -1    0    0    0    0  0.00000000000E+00  0.00000000000E+00  0.45593999997E+02  0.45594000000E+02  0.51100000000E-03 0. -1.
         11   -1    0    0    0    0 -0.00000000000E+00 -0.00000000000E+00 -0.45593999997E+02  0.45594000000E+02  0.51100000000E-03 0.  1.
         23    2    1    2    0    0  0.00000000000E+00 -0.17763568394E-14  0.35527136788E-14  0.91188000000E+02  0.91188000000E+02 0.  0.
    9900012    2    3    3    0    0  0.23874487931E+02  0.35408672383E+01  0.27807430722E+02  0.54367053270E+02  0.39999929539E+02 0.  0.
        -12    1    3    3    0    0 -0.23874487931E+02 -0.35408672383E+01 -0.27807430722E+02  0.36820946730E+02  0.00000000000E+00 0.  1.
         11    1    4    4    0    0  0.32069857753E+01 -0.13373779986E+02  0.15543357240E+02  0.20754245431E+02  0.51100000000E-03 0. -1.
        -11    1    4    4    0    0  0.17865962107E+02  0.88236858729E+01  0.16767972093E+01  0.19996541789E+02  0.51100000000E-03 0.  1.
         12    1    4    4    0    0  0.28015400492E+01  0.80909613516E+01  0.10587276273E+02  0.13616266049E+02  0.00000000000E+00 0. -1.
</event>
<event>
 8    1  0.2433390E-006  0.9118800E+02  0.7816164E-02  0.1184000E+00
        -11   -1    0    0    0    0  0.00000000000E+00  0.00000000000E+00  0.45593999997E+02  0.45594000000E+02  0.51100000000E-03 0. -1.
         11   -1    0    0    0    0 -0.00000000000E+00 -0.00000000000E+00 -0.45593999997E+02  0.45594000000E+02  0.51100000000E-03 0.  1.
         23    2    1    2    0    0  0.00000000000E+00 -0.35527136788E-14 -0.35527136788E-14  0.91188000000E+02  0.91188000000E+02 0.  0.
    9900012    2    3    3    0    0 -0.24154033465E+02 -0.19549344170E+02 -0.19753126600E+02  0.54367079309E+02  0.39999988900E+02 0.  0.
        -12    1    3    3    0    0  0.24154033465E+02  0.19549344170E+02  0.19753126600E+02  0.36820920691E+02  0.00000000000E+00 0.  1.
         11    1    4    4    0    0  0.95340111349E+00  0.52443700591E+01 -0.32572071896E+00  0.53402701475E+01  0.51100000000E-03 0. -1.
        -11    1    4    4    0    0  0.25129537395E+01  0.23132271756E+01 -0.79630595271E+01  0.86646565862E+01  0.51100000000E-03 0.  1.
         12    1    4    4    0    0 -0.27620388318E+02 -0.27106941405E+02 -0.11464346354E+02  0.40362152575E+02  0.00000000000E+00 0. -1.
</event>
<event>
 8    1  0.2433390E-006  0.9118800E+02  0.7816164E-02  0.1184000E+00
        -11   -1    0    0    0    0  0.00000000000E+00  0.00000000000E+00  0.45593999997E+02  0.45594000000E+02  0.51100000000E-03 0.  1.
         11   -1    0    0    0    0 -0.00000000000E+00 -0.00000000000E+00 -0.45593999997E+02  0.45594000000E+02  0.51100000000E-03 0. -1.
         23    2    1    2    0    0  0.35527136788E-14 -0.88817841970E-15  0.00000000000E+00  0.91188000000E+02  0.91188000000E+02 0.  0.
    9900012    2    3    3    0    0  0.15575514939E+02  0.42362651402E+01  0.33094434964E+02  0.54367024544E+02  0.39999864052E+02 0.  0.
         12    1    3    3    0    0 -0.15575514939E+02 -0.42362651402E+01 -0.33094434964E+02  0.36820975456E+02  0.00000000000E+00 0. -1.
         11    1    4    4    0    0 -0.91828961768E+01  0.20126121477E+01  0.13752586435E+02  0.16658626107E+02  0.51100000000E-03 0. -1.
        -11    1    4    4    0    0  0.68789827659E+01 -0.89245064690E+01  0.75411250571E+01  0.13558605644E+02  0.51100000000E-03 0.  1.
        -12    1    4    4    0    0  0.17879428350E+02  0.11148159462E+02  0.11800723472E+02  0.24149792794E+02  0.00000000000E+00 0.  1.
</event>
<event>
 8    1  0.2433390E-006  0.9118800E+02  0.7816164E-02  0.1184000E+00
        -11   -1    0    0    0    0  0.00000000000E+00  0.00000000000E+00  0.45593999997E+02  0.45594000000E+02  0.51100000000E-03 0.  1.
         11   -1    0    0    0    0 -0.00000000000E+00 -0.00000000000E+00 -0.45593999997E+02  0.45594000000E+02  0.51100000000E-03 0. -1.
         23    2    1    2    0    0  0.00000000000E+00  0.17763568394E-14  0.88817841970E-15  0.91188000000E+02  0.91188000000E+02 0.  0.
    9900012    2    3    3    0    0 -0.34368549289E+02  0.12477748133E+02 -0.43460297392E+01  0.54367090815E+02  0.40000015132E+02 0.  0.
        -12    1    3    3    0    0  0.34368549289E+02 -0.12477748133E+02  0.43460297392E+01  0.36820909185E+02  0.00000000000E+00 0.  1.
         11    1    4    4    0    0 -0.36641990849E+02  0.11309726395E+02 -0.85130270505E+01  0.39281255509E+02  0.51100000000E-03 0. -1.
        -11    1    4    4    0    0 -0.28394196448E+01  0.49384316197E+01 -0.21859648913E+01  0.61015451771E+01  0.51100000000E-03 0.  1.
         12    1    4    4    0    0  0.51128612054E+01 -0.37704098813E+01  0.63529622026E+01  0.89842901293E+01  0.00000000000E+00 0. -1.
</event>
<event>
 8    1  0.2433390E-006  0.9118800E+02  0.7816164E-02  0.1184000E+00
        -11   -1    0    0    0    0  0.00000000000E+00  0.00000000000E+00  0.45593999997E+02  0.45594000000E+02  0.51100000000E-03 0.  1.
         11   -1    0    0    0    0 -0.00000000000E+00 -0.00000000000E+00 -0.45593999997E+02  0.45594000000E+02  0.51100000000E-03 0. -1.
         23    2    1    2    0    0  0.00000000000E+00  0.17763568394E-14  0.25812685323E-14  0.91188000000E+02  0.91188000000E+02 0.  0.
    9900012    2    3    3    0    0  0.33668404403E+02 -0.14906761438E+02  0.85465957973E-01  0.54367078012E+02  0.39999985943E+02 0.  0.
         12    1    3    3    0    0 -0.33668404403E+02  0.14906761438E+02 -0.85465957973E-01  0.36820921988E+02  0.00000000000E+00 0. -1.
         11    1    4    4    0    0  0.47106552436E+01  0.82589879052E+01 -0.10521553642E+02  0.14181122852E+02  0.51100000000E-03 0. -1.
        -11    1    4    4    0    0  0.94813908322E+01 -0.75507713124E+01  0.91385179513E+01  0.15179704547E+02  0.51100000000E-03 0.  1.
         12    1    4    4    0    0  0.19476358328E+02 -0.15614978031E+02  0.14685016486E+01  0.25006250613E+02  0.00000000000E+00 0. -1.
</event>
<event>
 8    1  0.2433390E-006  0.9118800E+02  0.7816164E-02  0.1184000E+00
        -11   -1    0    0    0    0  0.00000000000E+00  0.00000000000E+00  0.45593999997E+02  0.45594000000E+02  0.51100000000E-03 0. -1.
         11   -1    0    0    0    0 -0.00000000000E+00 -0.00000000000E+00 -0.45593999997E+02  0.45594000000E+02  0.51100000000E-03 0.  1.
         23    2    1    2    0    0 -0.35527136788E-14 -0.35527136788E-14 -0.35527136788E-14  0.91188000000E+02  0.91188000000E+02 0.  0.
    9900012    2    3    3    0    0 -0.18095826469E+02 -0.11403996870E+02  0.29971326403E+02  0.54366939633E+02  0.39999670480E+02 0.  0.
        -12    1    3    3    0    0  0.18095826469E+02  0.11403996870E+02 -0.29971326403E+02  0.36821060367E+02  0.00000000000E+00 0.  1.
         11    1    4    4    0    0 -0.15111846830E+02 -0.18466850593E+02  0.22548460397E+02  0.32830253608E+02  0.51100000000E-03 0. -1.
        -11    1    4    4    0    0 -0.71384279532E+01  0.96438131649E+01 -0.73956445226E+00  0.12021116497E+02  0.51100000000E-03 0.  1.
        -12    1    4    4    0    0  0.41544483145E+01 -0.25809594418E+01  0.81624304588E+01  0.95155695275E+01  0.00000000000E+00 0.  1.
</event>
<event>
 8    1  0.2433390E-006  0.9118800E+02  0.7816164E-02  0.1184000E+00
        -11   -1    0    0    0    0  0.00000000000E+00  0.00000000000E+00  0.45593999997E+02  0.45594000000E+02  0.51100000000E-03 0.  1.
         11   -1    0    0    0    0 -0.00000000000E+00 -0.00000000000E+00 -0.45593999997E+02  0.45594000000E+02  0.51100000000E-03 0. -1.
         23    2    1    2    0    0  0.00000000000E+00  0.00000000000E+00  0.00000000000E+00  0.91188000000E+02  0.91188000000E+02 0.  0.
    9900012    2    3    3    0    0  0.64987992273E+01  0.51220222292E+01 -0.35879080966E+02  0.54367109814E+02  0.40000058444E+02 0.  0.
        -12    1    3    3    0    0 -0.64987992273E+01 -0.51220222292E+01  0.35879080966E+02  0.36820890186E+02  0.00000000000E+00 0.  1.
         11    1    4    4    0    0  0.11772307141E+02  0.19693647950E+01 -0.41363913912E+02  0.43051585192E+02  0.51100000000E-03 0. -1.
        -11    1    4    4    0    0 -0.12904425552E+01 -0.17022243342E+01  0.44702514585E+01  0.49543877559E+01  0.51100000000E-03 0.  1.
         12    1    4    4    0    0 -0.39830653589E+01  0.48548817683E+01  0.10145814881E+01  0.63611368664E+01  0.00000000000E+00 0. -1.
</event>
<event>
 8    1  0.2433390E-006  0.9118800E+02  0.7816164E-02  0.1184000E+00
        -11   -1    0    0    0    0  0.00000000000E+00  0.00000000000E+00  0.45593999997E+02  0.45594000000E+02  0.51100000000E-03 0. -1.
         11   -1    0    0    0    0 -0.00000000000E+00 -0.00000000000E+00 -0.45593999997E+02  0.45594000000E+02  0.51100000000E-03 0.  1.
         23    2    1    2    0    0  0.00000000000E+00 -0.17763568394E-14 -0.35527136788E-14  0.91188000000E+02  0.91188000000E+02 0.  0.
    9900012    2    3    3    0    0 -0.23772518994E+02  0.13172069842E+02  0.24842371002E+02  0.54367089090E+02  0.40000011199E+02 0.  0.
        -12    1    3    3    0    0  0.23772518994E+02 -0.13172069842E+02 -0.24842371002E+02  0.36820910910E+02  0.00000000000E+00 0.  1.
         11    1    4    4    0    0 -0.83946207049E+01  0.78163729143E+01  0.20410122393E+01  0.11650367957E+02  0.51100000000E-03 0. -1.
        -11    1    4    4    0    0 -0.22932179981E+01  0.15804079428E+02  0.20233656307E+02  0.25776513014E+02  0.51100000000E-03 0.  1.
        -12    1    4    4    0    0 -0.13084680291E+02 -0.10448382501E+02  0.25677024553E+01  0.16940208119E+02  0.00000000000E+00 0.  1.
</event>
<event>
 8    1  0.2433390E-006  0.9118800E+02  0.7816164E-02  0.1184000E+00
        -11   -1    0    0    0    0  0.00000000000E+00  0.00000000000E+00  0.45593999997E+02  0.45594000000E+02  0.51100000000E-03 0.  1.
         11   -1    0    0    0    0 -0.00000000000E+00 -0.00000000000E+00 -0.45593999997E+02  0.45594000000E+02  0.51100000000E-03 0. -1.
         23    2    1    2    0    0  0.00000000000E+00  0.00000000000E+00  0.35527136788E-14  0.91188000000E+02  0.91188000000E+02 0.  0.
    9900012    2    3    3    0    0 -0.18946446813E+02 -0.26761401104E+02  0.16752253856E+02  0.54367103145E+02  0.40000043241E+02 0.  0.
         12    1    3    3    0    0  0.18946446813E+02  0.26761401104E+02 -0.16752253856E+02  0.36820896855E+02  0.00000000000E+00 0. -1.
         11    1    4    4    0    0 -0.11134888111E+02 -0.86445538280E+00  0.31178991709E+01  0.11595443582E+02  0.51100000000E-03 0. -1.
        -11    1    4    4    0    0  0.15412077752E+01 -0.29593756523E+02  0.62263731212E+01  0.30280909316E+02  0.51100000000E-03 0.  1.
        -12    1    4    4    0    0 -0.93527664770E+01  0.36968108012E+01  0.74079815643E+01  0.12490750247E+02  0.00000000000E+00 0.  1.
</event>
<event>
 8    1  0.2433390E-006  0.9118800E+02  0.7816164E-02  0.1184000E+00
        -11   -1    0    0    0    0  0.00000000000E+00  0.00000000000E+00  0.45593999997E+02  0.45594000000E+02  0.51100000000E-03 0. -1.
         11   -1    0    0    0    0 -0.00000000000E+00 -0.00000000000E+00 -0.45593999997E+02  0.45594000000E+02  0.51100000000E-03 0.  1.
         23    2    1    2    0    0  0.00000000000E+00  0.00000000000E+00  0.17763568394E-14  0.91188000000E+02  0.91188000000E+02 0.  0.
    9900012    2    3    3    0    0 -0.17123841587E+02 -0.30320678494E+02 -0.11967041697E+02  0.54367087708E+02  0.40000008048E+02 0.  0.
         12    1    3    3    0    0  0.17123841587E+02  0.30320678494E+02  0.11967041697E+02  0.36820912292E+02  0.00000000000E+00 0. -1.
         11    1    4    4    0    0 -0.36606657446E+00 -0.68724401374E+01  0.16330080280E+01  0.70732703652E+01  0.51100000000E-03 0. -1.
        -11    1    4    4    0    0  0.90250646877E+01 -0.16020303415E+01  0.29980631251E+01  0.96439969202E+01  0.51100000000E-03 0.  1.
        -12    1    4    4    0    0 -0.25782839700E+02 -0.21846208015E+02 -0.16598112850E+02  0.37649820422E+02  0.00000000000E+00 0.  1.
</event>
<event>
 8    1  0.2433390E-006  0.9118800E+02  0.7816164E-02  0.1184000E+00
        -11   -1    0    0    0    0  0.00000000000E+00  0.00000000000E+00  0.45593999997E+02  0.45594000000E+02  0.51100000000E-03 0.  1.
         11   -1    0    0    0    0 -0.00000000000E+00 -0.00000000000E+00 -0.45593999997E+02  0.45594000000E+02  0.51100000000E-03 0. -1.
         23    2    1    2    0    0  0.00000000000E+00 -0.11102230246E-15  0.00000000000E+00  0.91188000000E+02  0.91188000000E+02 0.  0.
    9900012    2    3    3    0    0  0.87587800406E+01  0.35060074561E+00 -0.35762277103E+02  0.54367087297E+02  0.40000007111E+02 0.  0.
        -12    1    3    3    0    0 -0.87587800406E+01 -0.35060074561E+00  0.35762277103E+02  0.36820912703E+02  0.00000000000E+00 0.  1.
         11    1    4    4    0    0 -0.47412895170E+01 -0.91350030542E+01 -0.79853575047E+01  0.13026666566E+02  0.51100000000E-03 0. -1.
        -11    1    4    4    0    0 -0.46977174044E+01  0.82220267530E+01 -0.18709740507E+02  0.20969612844E+02  0.51100000000E-03 0.  1.
        -12    1    4    4    0    0  0.18197786962E+02  0.12635770468E+01 -0.90671790916E+01  0.20370807886E+02  0.00000000000E+00 0.  1.
</event>
<event>
 8    1  0.2433390E-006  0.9118800E+02  0.7816164E-02  0.1184000E+00
        -11   -1    0    0    0    0  0.00000000000E+00  0.00000000000E+00  0.45593999997E+02  0.45594000000E+02  0.51100000000E-03 0. -1.
         11   -1    0    0    0    0 -0.00000000000E+00 -0.00000000000E+00 -0.45593999997E+02  0.45594000000E+02  0.51100000000E-03 0.  1.
         23    2    1    2    0    0 -0.35527136788E-14  0.00000000000E+00  0.00000000000E+00  0.91188000000E+02  0.91188000000E+02 0.  0.
    9900012    2    3    3    0    0 -0.28727791038E+02  0.94187577857E+01 -0.21018601073E+02  0.54367074330E+02  0.39999977549E+02 0.  0.
         12    1    3    3    0    0  0.28727791038E+02 -0.94187577857E+01  0.21018601073E+02  0.36820925670E+02  0.00000000000E+00 0. -1.
         11    1    4    4    0    0 -0.68188737148E+01  0.30406772378E+01  0.66785649837E+01  0.10017284428E+02  0.51100000000E-03 0. -1.
        -11    1    4    4    0    0  0.53982810117E+01  0.45391203416E+01 -0.37755920699E+01  0.80000091935E+01  0.51100000000E-03 0.  1.
        -12    1    4    4    0    0 -0.27307198335E+02  0.18389602063E+01 -0.23921573986E+02  0.36349780708E+02  0.00000000000E+00 0.  1.
</event>
<event>
 8    1  0.2433390E-006  0.9118800E+02  0.7816164E-02  0.1184000E+00
        -11   -1    0    0    0    0  0.00000000000E+00  0.00000000000E+00  0.45593999997E+02  0.45594000000E+02  0.51100000000E-03 0. -1.
         11   -1    0    0    0    0 -0.00000000000E+00 -0.00000000000E+00 -0.45593999997E+02  0.45594000000E+02  0.51100000000E-03 0.  1.
         23    2    1    2    0    0  0.00000000000E+00  0.88817841970E-15  0.00000000000E+00  0.91188000000E+02  0.91188000000E+02 0.  0.
    9900012    2    3    3    0    0 -0.19284116703E+01  0.26183370172E+01 -0.36677043885E+02  0.54367081917E+02  0.39999994847E+02 0.  0.
         12    1    3    3    0    0  0.19284116703E+01 -0.26183370172E+01  0.36677043885E+02  0.36820918083E+02  0.00000000000E+00 0. -1.
         11    1    4    4    0    0 -0.15730114893E+01 -0.73356624667E+01 -0.15574963249E+02  0.17287735231E+02  0.51100000000E-03 0. -1.
        -11    1    4    4    0    0 -0.66872886114E+00  0.53777896492E+01 -0.28151844233E+02  0.28668696409E+02  0.51100000000E-03 0.  1.
         12    1    4    4    0    0  0.31332868009E+00  0.45762098347E+01  0.70497635968E+01  0.84106502771E+01  0.00000000000E+00 0. -1.
</event>
<event>
 8    1  0.2433390E-006  0.9118800E+02  0.7816164E-02  0.1184000E+00
        -11   -1    0    0    0    0  0.00000000000E+00  0.00000000000E+00  0.45593999997E+02  0.45594000000E+02  0.51100000000E-03 0.  1.
         11   -1    0    0    0    0 -0.00000000000E+00 -0.00000000000E+00 -0.45593999997E+02  0.45594000000E+02  0.51100000000E-03 0. -1.
         23    2    1    2    0    0  0.00000000000E+00  0.17763568394E-14 -0.44408920985E-15  0.91188000000E+02  0.91188000000E+02 0.  0.
    9900012    2    3    3    0    0  0.33454217381E+02 -0.14981319988E+02 -0.34863280462E+01  0.54367094357E+02  0.40000023205E+02 0.  0.
         12    1    3    3    0    0 -0.33454217381E+02  0.14981319988E+02  0.34863280462E+01  0.36820905643E+02  0.00000000000E+00 0. -1.
         11    1    4    4    0    0  0.47401938590E+01  0.80949307711E+01 -0.71753631809E+01  0.11810299702E+02  0.51100000000E-03 0. -1.
        -11    1    4    4    0    0  0.29291916976E+02 -0.12793579855E+02  0.13322155025E+01  0.31991668979E+02  0.51100000000E-03 0.  1.
        -12    1    4    4    0    0 -0.57789345420E+00 -0.10282670904E+02  0.23568196322E+01  0.10565125676E+02  0.00000000000E+00 0.  1.
</event>
<event>
 8    1  0.2433390E-006  0.9118800E+02  0.7816164E-02  0.1184000E+00
        -11   -1    0    0    0    0  0.00000000000E+00  0.00000000000E+00  0.45593999997E+02  0.45594000000E+02  0.51100000000E-03 0.  1.
         11   -1    0    0    0    0 -0.00000000000E+00 -0.00000000000E+00 -0.45593999997E+02  0.45594000000E+02  0.51100000000E-03 0. -1.
         23    2    1    2    0    0 -0.35527136788E-14 -0.35527136788E-14 -0.88817841970E-15  0.91188000000E+02  0.91188000000E+02 0.  0.
    9900012    2    3    3    0    0  0.27908920163E+02  0.22710339781E+02  0.78173699081E+01  0.54367100637E+02  0.40000037522E+02 0.  0.
         12    1    3    3    0    0 -0.27908920163E+02 -0.22710339781E+02 -0.78173699081E+01  0.36820899363E+02  0.00000000000E+00 0. -1.
         11    1    4    4    0    0  0.61907434317E+01  0.50953055310E+00  0.58559175094E+01  0.85367848608E+01  0.51100000000E-03 0. -1.
        -11    1    4    4    0    0  0.30840199220E+02  0.17388436345E+02  0.25788803127E+01  0.35498256723E+02  0.51100000000E-03 0.  1.
         12    1    4    4    0    0 -0.91220224887E+01  0.48123728830E+01 -0.61742791393E+00  0.10332059053E+02  0.00000000000E+00 0. -1.
</event>
<event>
 8    1  0.2433390E-006  0.9118800E+02  0.7816164E-02  0.1184000E+00
        -11   -1    0    0    0    0  0.00000000000E+00  0.00000000000E+00  0.45593999997E+02  0.45594000000E+02  0.51100000000E-03 0.  1.
         11   -1    0    0    0    0 -0.00000000000E+00 -0.00000000000E+00 -0.45593999997E+02  0.45594000000E+02  0.51100000000E-03 0. -1.
         23    2    1    2    0    0  0.17763568394E-14 -0.35527136788E-14  0.00000000000E+00  0.91188000000E+02  0.91188000000E+02 0.  0.
    9900012    2    3    3    0    0 -0.14204473818E+02 -0.17899480080E+02  0.28872523640E+02  0.54367067300E+02  0.39999961523E+02 0.  0.
         12    1    3    3    0    0  0.14204473818E+02  0.17899480080E+02 -0.28872523640E+02  0.36820932700E+02  0.00000000000E+00 0. -1.
         11    1    4    4    0    0  0.55225602558E+01 -0.72892202058E+01  0.11580366288E+02  0.14755889896E+02  0.51100000000E-03 0.  1.
        -11    1    4    4    0    0 -0.20207729910E+02  0.97853163713E+00  0.18749030767E+01  0.20318098682E+02  0.51100000000E-03 0. -1.
         12    1    4    4    0    0  0.48069583562E+00 -0.11588791511E+02  0.15417254275E+02  0.19293078722E+02  0.00000000000E+00 0. -1.
</event>
<event>
 8    1  0.2433390E-006  0.9118800E+02  0.7816164E-02  0.1184000E+00
        -11   -1    0    0    0    0  0.00000000000E+00  0.00000000000E+00  0.45593999997E+02  0.45594000000E+02  0.51100000000E-03 0.  1.
         11   -1    0    0    0    0 -0.00000000000E+00 -0.00000000000E+00 -0.45593999997E+02  0.45594000000E+02  0.51100000000E-03 0. -1.
         23    2    1    2    0    0  0.00000000000E+00  0.00000000000E+00  0.00000000000E+00  0.91188000000E+02  0.91188000000E+02 0.  0.
    9900012    2    3    3    0    0 -0.17395352591E+02  0.86489022863E+01 -0.31279029161E+02  0.54367089259E+02  0.40000011583E+02 0.  0.
        -12    1    3    3    0    0  0.17395352591E+02 -0.86489022863E+01  0.31279029161E+02  0.36820910741E+02  0.00000000000E+00 0.  1.
         11    1    4    4    0    0 -0.11406013110E+02  0.19059924948E+02 -0.17864317808E+02  0.28504591298E+02  0.51100000000E-03 0. -1.
        -11    1    4    4    0    0 -0.59563139967E+01  0.15064931904E+01  0.19240796843E+01  0.64381116061E+01  0.51100000000E-03 0.  1.
         12    1    4    4    0    0 -0.33025484786E-01 -0.11917515852E+02 -0.15338791037E+02  0.19424386354E+02  0.00000000000E+00 0. -1.
</event>
<event>
 8    1  0.2433390E-006  0.9118800E+02  0.7816164E-02  0.1184000E+00
        -11   -1    0    0    0    0  0.00000000000E+00  0.00000000000E+00  0.45593999997E+02  0.45594000000E+02  0.51100000000E-03 0.  1.
         11   -1    0    0    0    0 -0.00000000000E+00 -0.00000000000E+00 -0.45593999997E+02  0.45594000000E+02  0.51100000000E-03 0. -1.
         23    2    1    2    0    0  0.00000000000E+00 -0.11102230246E-14 -0.35527136788E-14  0.91188000000E+02  0.91188000000E+02 0.  0.
    9900012    2    3    3    0    0 -0.29265792117E+02 -0.16216659791E+01 -0.22285935400E+02  0.54367091463E+02  0.40000016609E+02 0.  0.
        -12    1    3    3    0    0  0.29265792117E+02  0.16216659791E+01  0.22285935400E+02  0.36820908537E+02  0.00000000000E+00 0.  1.
         11    1    4    4    0    0 -0.10274253267E+02  0.67226091304E+01 -0.82683917228E+01  0.14802704336E+02  0.51100000000E-03 0. -1.
        -11    1    4    4    0    0 -0.10984969715E+02 -0.14129970122E+02 -0.20906662098E+02  0.27521157963E+02  0.51100000000E-03 0.  1.
        -12    1    4    4    0    0 -0.80065691363E+01  0.57856950124E+01  0.68891184206E+01  0.12043229165E+02  0.00000000000E+00 0.  1.
</event>
<event>
 8    1  0.2433390E-006  0.9118800E+02  0.7816164E-02  0.1184000E+00
        -11   -1    0    0    0    0  0.00000000000E+00  0.00000000000E+00  0.45593999997E+02  0.45594000000E+02  0.51100000000E-03 0. -1.
         11   -1    0    0    0    0 -0.00000000000E+00 -0.00000000000E+00 -0.45593999997E+02  0.45594000000E+02  0.51100000000E-03 0.  1.
         23    2    1    2    0    0  0.00000000000E+00  0.00000000000E+00  0.00000000000E+00  0.91188000000E+02  0.91188000000E+02 0.  0.
    9900012    2    3    3    0    0  0.22681862965E+02 -0.10903910662E+02  0.26877866280E+02  0.54367056624E+02  0.39999937186E+02 0.  0.
        -12    1    3    3    0    0 -0.22681862965E+02  0.10903910662E+02 -0.26877866280E+02  0.36820943376E+02  0.00000000000E+00 0.  1.
         11    1    4    4    0    0  0.10081211332E+02 -0.78665114256E+01  0.65291934385E+00  0.12803871597E+02  0.51100000000E-03 0. -1.
        -11    1    4    4    0    0 -0.42588412966E+01  0.82456575529E+01  0.12146581034E+01  0.93597004353E+01  0.51100000000E-03 0.  1.
         12    1    4    4    0    0  0.16859492929E+02 -0.11283056790E+02  0.25010288833E+02  0.32203484592E+02  0.00000000000E+00 0. -1.
</event>
<event>
 8    1  0.2433390E-006  0.9118800E+02  0.7816164E-02  0.1184000E+00
        -11   -1    0    0    0    0  0.00000000000E+00  0.00000000000E+00  0.45593999997E+02  0.45594000000E+02  0.51100000000E-03 0.  1.
         11   -1    0    0    0    0 -0.00000000000E+00 -0.00000000000E+00 -0.45593999997E+02  0.45594000000E+02  0.51100000000E-03 0. -1.
         23    2    1    2    0    0 -0.35527136788E-14  0.00000000000E+00 -0.35527136788E-14  0.91188000000E+02  0.91188000000E+02 0.  0.
    9900012    2    3    3    0    0  0.29132173553E+02  0.32433121433E+01  0.22284009573E+02  0.54367086211E+02  0.40000004635E+02 0.  0.
         12    1    3    3    0    0 -0.29132173553E+02 -0.32433121433E+01 -0.22284009573E+02  0.36820913789E+02  0.00000000000E+00 0. -1.
         11    1    4    4    0    0  0.62079371186E+01 -0.48817411667E+01 -0.40797952044E+01  0.88890162143E+01  0.51100000000E-03 0. -1.
        -11    1    4    4    0    0  0.29406942165E+02  0.49346985226E+01  0.20730251931E+02  0.36316151261E+02  0.51100000000E-03 0.  1.
         12    1    4    4    0    0 -0.64827057301E+01  0.31903547875E+01  0.56335528466E+01  0.91619187362E+01  0.00000000000E+00 0. -1.
</event>
<event>
 8    1  0.2433390E-006  0.9118800E+02  0.7816164E-02  0.1184000E+00
        -11   -1    0    0    0    0  0.00000000000E+00  0.00000000000E+00  0.45593999997E+02  0.45594000000E+02  0.51100000000E-03 0.  1.
         11   -1    0    0    0    0 -0.00000000000E+00 -0.00000000000E+00 -0.45593999997E+02  0.45594000000E+02  0.51100000000E-03 0. -1.
         23    2    1    2    0    0  0.00000000000E+00  0.24424906542E-14 -0.35527136788E-14  0.91188000000E+02  0.91188000000E+02 0.  0.
    9900012    2    3    3    0    0  0.32222664309E+02  0.12063635016E+01 -0.17777077766E+02  0.54367083363E+02  0.39999998143E+02 0.  0.
        -12    1    3    3    0    0 -0.32222664309E+02 -0.12063635016E+01  0.17777077766E+02  0.36820916637E+02  0.00000000000E+00 0.  1.
         11    1    4    4    0    0 -0.31187273322E+01  0.52819149334E+01 -0.57331156148E+01  0.83960526707E+01  0.51100000000E-03 0. -1.
        -11    1    4    4    0    0  0.21560303880E+02 -0.15154711434E+02 -0.99317743011E+01  0.28162956575E+02  0.51100000000E-03 0.  1.
         12    1    4    4    0    0  0.13781087762E+02  0.11079160003E+02 -0.21121878502E+01  0.17808074117E+02  0.00000000000E+00 0. -1.
</event>
<event>
 8    1  0.2433390E-006  0.9118800E+02  0.7816164E-02  0.1184000E+00
        -11   -1    0    0    0    0  0.00000000000E+00  0.00000000000E+00  0.45593999997E+02  0.45594000000E+02  0.51100000000E-03 0.  1.
         11   -1    0    0    0    0 -0.00000000000E+00 -0.00000000000E+00 -0.45593999997E+02  0.45594000000E+02  0.51100000000E-03 0. -1.
         23    2    1    2    0    0 -0.17763568394E-14  0.35527136788E-14  0.00000000000E+00  0.91188000000E+02  0.91188000000E+02 0.  0.
    9900012    2    3    3    0    0 -0.12791386464E+02  0.28518000372E+02 -0.19464825100E+02  0.54367145460E+02  0.40000139706E+02 0.  0.
        -12    1    3    3    0    0  0.12791386464E+02 -0.28518000372E+02  0.19464825100E+02  0.36820854540E+02  0.00000000000E+00 0.  1.
         11    1    4    4    0    0 -0.33507860720E+01 -0.74553257386E+01  0.34208123529E+01  0.88606775466E+01  0.51100000000E-03 0. -1.
        -11    1    4    4    0    0 -0.31262221203E+01  0.18173784280E+01  0.47469439842E+00  0.36471172355E+01  0.51100000000E-03 0.  1.
        -12    1    4    4    0    0 -0.63143782716E+01  0.34155947682E+02 -0.23360331851E+02  0.41859350678E+02  0.00000000000E+00 0.  1.
</event>
<event>
 8    1  0.2433390E-006  0.9118800E+02  0.7816164E-02  0.1184000E+00
        -11   -1    0    0    0    0  0.00000000000E+00  0.00000000000E+00  0.45593999997E+02  0.45594000000E+02  0.51100000000E-03 0. -1.
         11   -1    0    0    0    0 -0.00000000000E+00 -0.00000000000E+00 -0.45593999997E+02  0.45594000000E+02  0.51100000000E-03 0.  1.
         23    2    1    2    0    0  0.00000000000E+00  0.99920072216E-15  0.00000000000E+00  0.91188000000E+02  0.91188000000E+02 0.  0.
    9900012    2    3    3    0    0  0.31091518488E+02  0.94437483980E+00 -0.19702910486E+02  0.54367094968E+02  0.40000024600E+02 0.  0.
         12    1    3    3    0    0 -0.31091518488E+02 -0.94437483980E+00  0.19702910486E+02  0.36820905032E+02  0.00000000000E+00 0. -1.
         11    1    4    4    0    0 -0.56155615533E+00 -0.73699452546E+01 -0.12639413124E+02  0.14641933027E+02  0.51100000000E-03 0. -1.
        -11    1    4    4    0    0  0.19911429040E+02  0.24539596440E+01 -0.14395933101E+02  0.24692707718E+02  0.51100000000E-03 0.  1.
         12    1    4    4    0    0  0.11741645604E+02  0.58603604504E+01  0.73324357402E+01  0.15032454223E+02  0.00000000000E+00 0. -1.
</event>
<event>
 8    1  0.2433390E-006  0.9118800E+02  0.7816164E-02  0.1184000E+00
        -11   -1    0    0    0    0  0.00000000000E+00  0.00000000000E+00  0.45593999997E+02  0.45594000000E+02  0.51100000000E-03 0.  1.
         11   -1    0    0    0    0 -0.00000000000E+00 -0.00000000000E+00 -0.45593999997E+02  0.45594000000E+02  0.51100000000E-03 0. -1.
         23    2    1    2    0    0  0.17763568394E-14  0.35527136788E-14  0.00000000000E+00  0.91188000000E+02  0.91188000000E+02 0.  0.
    9900012    2    3    3    0    0  0.89374856154E+01 -0.27442339845E+02  0.22865237643E+02  0.54367085322E+02  0.40000002608E+02 0.  0.
        -12    1    3    3    0    0 -0.89374856154E+01  0.27442339845E+02 -0.22865237643E+02  0.36820914678E+02  0.00000000000E+00 0.  1.
         11    1    4    4    0    0  0.64807955372E+01 -0.16051585120E+02 -0.34349330401E+01  0.17648027111E+02  0.51100000000E-03 0. -1.
        -11    1    4    4    0    0  0.10222416254E+02 -0.60666540033E+01  0.24360181119E+02  0.27105728348E+02  0.51100000000E-03 0.  1.
        -12    1    4    4    0    0 -0.77657261759E+01 -0.53241007215E+01  0.19399895637E+01  0.96133298622E+01  0.00000000000E+00 0.  1.
</event>
<event>
 8    1  0.2433390E-006  0.9118800E+02  0.7816164E-02  0.1184000E+00
        -11   -1    0    0    0    0  0.00000000000E+00  0.00000000000E+00  0.45593999997E+02  0.45594000000E+02  0.51100000000E-03 0. -1.
         11   -1    0    0    0    0 -0.00000000000E+00 -0.00000000000E+00 -0.45593999997E+02  0.45594000000E+02  0.51100000000E-03 0.  1.
         23    2    1    2    0    0  0.00000000000E+00 -0.17763568394E-14  0.00000000000E+00  0.91188000000E+02  0.91188000000E+02 0.  0.
    9900012    2    3    3    0    0 -0.22466382516E+02 -0.20581407174E+01 -0.29099932877E+02  0.54367076872E+02  0.39999983345E+02 0.  0.
         12    1    3    3    0    0  0.22466382516E+02  0.20581407174E+01  0.29099932877E+02  0.36820923128E+02  0.00000000000E+00 0. -1.
         11    1    4    4    0    0 -0.57517418276E+01  0.80527906172E+01 -0.19342148674E+02  0.21726681439E+02  0.51100000000E-03 0. -1.
        -11    1    4    4    0    0  0.40487451801E+01  0.22506697113E+01 -0.68953698118E+01  0.83068632338E+01  0.51100000000E-03 0.  1.
        -12    1    4    4    0    0 -0.20763385868E+02 -0.12361601046E+02 -0.28624143916E+01  0.24333532199E+02  0.00000000000E+00 0.  1.
</event>
<event>
 8    1  0.2433390E-006  0.9118800E+02  0.7816164E-02  0.1184000E+00
        -11   -1    0    0    0    0  0.00000000000E+00  0.00000000000E+00  0.45593999997E+02  0.45594000000E+02  0.51100000000E-03 0.  1.
         11   -1    0    0    0    0 -0.00000000000E+00 -0.00000000000E+00 -0.45593999997E+02  0.45594000000E+02  0.51100000000E-03 0. -1.
         23    2    1    2    0    0  0.35527136788E-14  0.35527136788E-14  0.88817841970E-15  0.91188000000E+02  0.91188000000E+02 0.  0.
    9900012    2    3    3    0    0 -0.22795881509E+02 -0.28135029151E+02  0.66743519278E+01  0.54367094895E+02  0.40000024432E+02 0.  0.
         12    1    3    3    0    0  0.22795881509E+02  0.28135029151E+02 -0.66743519278E+01  0.36820905105E+02  0.00000000000E+00 0. -1.
         11    1    4    4    0    0 -0.22197107220E+02 -0.52764181219E+01  0.46141185758E+01  0.23277505185E+02  0.51100000000E-03 0. -1.
        -11    1    4    4    0    0  0.54526482008E+01 -0.31303059983E+01 -0.62298729336E+01  0.88510736679E+01  0.51100000000E-03 0.  1.
        -12    1    4    4    0    0 -0.60514224895E+01 -0.19728305031E+02  0.82901062856E+01  0.22238516042E+02  0.00000000000E+00 0.  1.
</event>
<event>
 8    1  0.2433390E-006  0.9118800E+02  0.7816164E-02  0.1184000E+00
        -11   -1    0    0    0    0  0.00000000000E+00  0.00000000000E+00  0.45593999997E+02  0.45594000000E+02  0.51100000000E-03 0. -1.
         11   -1    0    0    0    0 -0.00000000000E+00 -0.00000000000E+00 -0.45593999997E+02  0.45594000000E+02  0.51100000000E-03 0.  1.
         23    2    1    2    0    0  0.00000000000E+00  0.35527136788E-14  0.17763568394E-14  0.91188000000E+02  0.91188000000E+02 0.  0.
    9900012    2    3    3    0    0 -0.31458298931E+02  0.12580471631E+02 -0.14418312615E+02  0.54367074200E+02  0.39999977253E+02 0.  0.
         12    1    3    3    0    0  0.31458298931E+02 -0.12580471631E+02  0.14418312615E+02  0.36820925800E+02  0.00000000000E+00 0. -1.
         11    1    4    4    0    0 -0.48687253124E+01 -0.60933652266E+01 -0.64064923603E+01  0.10093400348E+02  0.51100000000E-03 0. -1.
        -11    1    4    4    0    0 -0.42756927298E+01  0.19206792332E+02 -0.96060970079E+01  0.21896564114E+02  0.51100000000E-03 0.  1.
         12    1    4    4    0    0 -0.22313880889E+02 -0.53295547468E+00  0.15942767528E+01  0.22377109738E+02  0.00000000000E+00 0. -1.
</event>
<event>
 8    1  0.2433390E-006  0.9118800E+02  0.7816164E-02  0.1184000E+00
        -11   -1    0    0    0    0  0.00000000000E+00  0.00000000000E+00  0.45593999997E+02  0.45594000000E+02  0.51100000000E-03 0.  1.
         11   -1    0    0    0    0 -0.00000000000E+00 -0.00000000000E+00 -0.45593999997E+02  0.45594000000E+02  0.51100000000E-03 0. -1.
         23    2    1    2    0    0  0.00000000000E+00 -0.17763568394E-14 -0.17763568394E-14  0.91188000000E+02  0.91188000000E+02 0.  0.
    9900012    2    3    3    0    0 -0.33598891838E+02 -0.11096724079E+02  0.10186153469E+02  0.54367074692E+02  0.39999978375E+02 0.  0.
         12    1    3    3    0    0  0.33598891838E+02  0.11096724079E+02 -0.10186153469E+02  0.36820925308E+02  0.00000000000E+00 0. -1.
         11    1    4    4    0    0 -0.36633364181E+01  0.65171491603E+01  0.24899161307E+01  0.78799079619E+01  0.51100000000E-03 0. -1.
        -11    1    4    4    0    0 -0.20543543106E+02 -0.20013415944E+02 -0.63938272145E+01  0.29384604945E+02  0.51100000000E-03 0.  1.
        -12    1    4    4    0    0 -0.93920123138E+01  0.23995427039E+01  0.14090064553E+02  0.17102561785E+02  0.00000000000E+00 0.  1.
</event>
<event>
 8    1  0.2433390E-006  0.9118800E+02  0.7816164E-02  0.1184000E+00
        -11   -1    0    0    0    0  0.00000000000E+00  0.00000000000E+00  0.45593999997E+02  0.45594000000E+02  0.51100000000E-03 0. -1.
         11   -1    0    0    0    0 -0.00000000000E+00 -0.00000000000E+00 -0.45593999997E+02  0.45594000000E+02  0.51100000000E-03 0.  1.
         23    2    1    2    0    0 -0.35527136788E-14 -0.35527136788E-14  0.00000000000E+00  0.91188000000E+02  0.91188000000E+02 0.  0.
    9900012    2    3    3    0    0 -0.18163876886E+02 -0.27139550553E+02  0.17008652269E+02  0.54367137982E+02  0.40000122658E+02 0.  0.
         12    1    3    3    0    0  0.18163876886E+02  0.27139550553E+02 -0.17008652269E+02  0.36820862018E+02  0.00000000000E+00 0. -1.
         11    1    4    4    0    0  0.26485138818E+01  0.41259827358E+01  0.79421738709E+01  0.93336212359E+01  0.51100000000E-03 0. -1.
        -11    1    4    4    0    0 -0.11828571128E+02 -0.10009665716E+02  0.14613950281E+02  0.21299672433E+02  0.51100000000E-03 0.  1.
        -12    1    4    4    0    0 -0.89838196390E+01 -0.21255867573E+02 -0.55474718831E+01  0.23733844313E+02  0.00000000000E+00 0.  1.
</event>
<event>
 8    1  0.2433390E-006  0.9118800E+02  0.7816164E-02  0.1184000E+00
        -11   -1    0    0    0    0  0.00000000000E+00  0.00000000000E+00  0.45593999997E+02  0.45594000000E+02  0.51100000000E-03 0. -1.
         11   -1    0    0    0    0 -0.00000000000E+00 -0.00000000000E+00 -0.45593999997E+02  0.45594000000E+02  0.51100000000E-03 0.  1.
         23    2    1    2    0    0  0.00000000000E+00  0.00000000000E+00  0.00000000000E+00  0.91188000000E+02  0.91188000000E+02 0.  0.
    9900012    2    3    3    0    0 -0.46954326993E+01  0.23089939205E+02  0.28294645840E+02  0.54367090670E+02  0.40000014800E+02 0.  0.
        -12    1    3    3    0    0  0.46954326993E+01 -0.23089939205E+02 -0.28294645840E+02  0.36820909330E+02  0.00000000000E+00 0.  1.
         11    1    4    4    0    0 -0.81746279652E+01 -0.15683420920E+01  0.35675681689E+01  0.90560356773E+01  0.51100000000E-03 0. -1.
        -11    1    4    4    0    0 -0.65385044236E+01  0.23301231276E+01 -0.36471283645E+01  0.78411134066E+01  0.51100000000E-03 0.  1.
        -12    1    4    4    0    0  0.10017699689E+02  0.22328158169E+02  0.28374206035E+02  0.37469941586E+02  0.00000000000E+00 0.  1.
</event>
<event>
 8    1  0.2433390E-006  0.9118800E+02  0.7816164E-02  0.1184000E+00
        -11   -1    0    0    0    0  0.00000000000E+00  0.00000000000E+00  0.45593999997E+02  0.45594000000E+02  0.51100000000E-03 0.  1.
         11   -1    0    0    0    0 -0.00000000000E+00 -0.00000000000E+00 -0.45593999997E+02  0.45594000000E+02  0.51100000000E-03 0. -1.
         23    2    1    2    0    0  0.71054273576E-14  0.00000000000E+00 -0.17763568394E-14  0.91188000000E+02  0.91188000000E+02 0.  0.
    9900012    2    3    3    0    0 -0.29442104451E+02  0.18460442487E+02 -0.12171870891E+02  0.54367083494E+02  0.39999998442E+02 0.  0.
        -12    1    3    3    0    0  0.29442104451E+02 -0.18460442487E+02  0.12171870891E+02  0.36820916506E+02  0.00000000000E+00 0.  1.
         11    1    4    4    0    0 -0.27460415104E+01  0.29339102153E+01 -0.19517934236E+02  0.19927326219E+02  0.51100000000E-03 0. -1.
        -11    1    4    4    0    0 -0.17659009139E+02  0.35980246709E+01  0.73803734267E+01  0.19474503780E+02  0.51100000000E-03 0.  1.
         12    1    4    4    0    0 -0.90370538023E+01  0.11928507601E+02 -0.34310081415E-01  0.14965253496E+02  0.00000000000E+00 0. -1.
</event>
<event>
 8    1  0.2433390E-006  0.9118800E+02  0.7816164E-02  0.1184000E+00
        -11   -1    0    0    0    0  0.00000000000E+00  0.00000000000E+00  0.45593999997E+02  0.45594000000E+02  0.51100000000E-03 0. -1.
         11   -1    0    0    0    0 -0.00000000000E+00 -0.00000000000E+00 -0.45593999997E+02  0.45594000000E+02  0.51100000000E-03 0.  1.
         23    2    1    2    0    0  0.00000000000E+00  0.00000000000E+00 -0.35527136788E-14  0.91188000000E+02  0.91188000000E+02 0.  0.
    9900012    2    3    3    0    0 -0.20339701754E+02  0.25532950752E+02 -0.17033623303E+02  0.54367090664E+02  0.40000014786E+02 0.  0.
         12    1    3    3    0    0  0.20339701754E+02 -0.25532950752E+02  0.17033623303E+02  0.36820909336E+02  0.00000000000E+00 0. -1.
         11    1    4    4    0    0 -0.15940046567E+02  0.14314591980E+02  0.62898877067E+01  0.22328352284E+02  0.51100000000E-03 0. -1.
        -11    1    4    4    0    0  0.74507551527E+00  0.65723084125E+01  0.10512349990E+01  0.66974226891E+01  0.51100000000E-03 0.  1.
        -12    1    4    4    0    0 -0.51447307026E+01  0.46460503590E+01 -0.24374746008E+02  0.25341315690E+02  0.00000000000E+00 0.  1.
</event>
<event>
 8    1  0.2433390E-006  0.9118800E+02  0.7816164E-02  0.1184000E+00
        -11   -1    0    0    0    0  0.00000000000E+00  0.00000000000E+00  0.45593999997E+02  0.45594000000E+02  0.51100000000E-03 0. -1.
         11   -1    0    0    0    0 -0.00000000000E+00 -0.00000000000E+00 -0.45593999997E+02  0.45594000000E+02  0.51100000000E-03 0.  1.
         23    2    1    2    0    0  0.35527136788E-14  0.00000000000E+00  0.00000000000E+00  0.91188000000E+02  0.91188000000E+02 0.  0.
    9900012    2    3    3    0    0 -0.28757718167E+02  0.11098573380E+02 -0.20139404350E+02  0.54367078056E+02  0.39999986045E+02 0.  0.
         12    1    3    3    0    0  0.28757718167E+02 -0.11098573380E+02  0.20139404350E+02  0.36820921944E+02  0.00000000000E+00 0. -1.
         11    1    4    4    0    0 -0.12176373990E+02 -0.12333810114E+02 -0.50847186491E+00  0.17339132025E+02  0.51100000000E-03 0. -1.
        -11    1    4    4    0    0 -0.13860675028E+02  0.12831525388E+02 -0.65940864414E+01  0.20006207343E+02  0.51100000000E-03 0.  1.
        -12    1    4    4    0    0 -0.27206691491E+01  0.10600858106E+02 -0.13036846044E+02  0.17021738688E+02  0.00000000000E+00 0.  1.
</event>
<event>
 8    1  0.2433390E-006  0.9118800E+02  0.7816164E-02  0.1184000E+00
        -11   -1    0    0    0    0  0.00000000000E+00  0.00000000000E+00  0.45593999997E+02  0.45594000000E+02  0.51100000000E-03 0.  1.
         11   -1    0    0    0    0 -0.00000000000E+00 -0.00000000000E+00 -0.45593999997E+02  0.45594000000E+02  0.51100000000E-03 0. -1.
         23    2    1    2    0    0  0.00000000000E+00  0.00000000000E+00 -0.35527136788E-14  0.91188000000E+02  0.91188000000E+02 0.  0.
    9900012    2    3    3    0    0 -0.25764081309E+02 -0.18395837066E+02 -0.18803976928E+02  0.54367024248E+02  0.39999863378E+02 0.  0.
        -12    1    3    3    0    0  0.25764081309E+02  0.18395837066E+02  0.18803976928E+02  0.36820975752E+02  0.00000000000E+00 0.  1.
         11    1    4    4    0    0 -0.20717610341E+02 -0.88390254669E+01 -0.12708219268E+02  0.25862068492E+02  0.51100000000E-03 0. -1.
        -11    1    4    4    0    0  0.52594595964E+01  0.64343010290E+01 -0.44047998951E+01  0.94055519431E+01  0.51100000000E-03 0.  1.
        -12    1    4    4    0    0 -0.10305930564E+02 -0.15991112628E+02 -0.16909577646E+01  0.19099403813E+02  0.00000000000E+00 0.  1.
</event>
<event>
 8    1  0.2433390E-006  0.9118800E+02  0.7816164E-02  0.1184000E+00
        -11   -1    0    0    0    0  0.00000000000E+00  0.00000000000E+00  0.45593999997E+02  0.45594000000E+02  0.51100000000E-03 0. -1.
         11   -1    0    0    0    0 -0.00000000000E+00 -0.00000000000E+00 -0.45593999997E+02  0.45594000000E+02  0.51100000000E-03 0.  1.
         23    2    1    2    0    0 -0.88817841970E-15  0.00000000000E+00  0.17763568394E-14  0.91188000000E+02  0.91188000000E+02 0.  0.
    9900012    2    3    3    0    0  0.72108378868E+01 -0.35575048031E+02 -0.61805887340E+01  0.54367083355E+02  0.39999998125E+02 0.  0.
        -12    1    3    3    0    0 -0.72108378868E+01  0.35575048031E+02  0.61805887340E+01  0.36820916645E+02  0.00000000000E+00 0.  1.
         11    1    4    4    0    0  0.87969125254E+01 -0.20132068587E+02  0.34191747593E+01  0.22234581441E+02  0.51100000000E-03 0. -1.
        -11    1    4    4    0    0  0.10064608808E+02 -0.47976228924E+01  0.34318624253E+01  0.11665813981E+02  0.51100000000E-03 0.  1.
        -12    1    4    4    0    0 -0.11650683446E+02 -0.10645356552E+02 -0.13031625919E+02  0.20466687933E+02  0.00000000000E+00 0.  1.
</event>
<event>
 8    1  0.2433390E-006  0.9118800E+02  0.7816164E-02  0.1184000E+00
        -11   -1    0    0    0    0  0.00000000000E+00  0.00000000000E+00  0.45593999997E+02  0.45594000000E+02  0.51100000000E-03 0. -1.
         11   -1    0    0    0    0 -0.00000000000E+00 -0.00000000000E+00 -0.45593999997E+02  0.45594000000E+02  0.51100000000E-03 0.  1.
         23    2    1    2    0    0  0.17763568394E-14 -0.35527136788E-14  0.00000000000E+00  0.91188000000E+02  0.91188000000E+02 0.  0.
    9900012    2    3    3    0    0  0.71089591217E+01  0.20992744444E+02  0.29403207963E+02  0.54367064955E+02  0.39999956178E+02 0.  0.
        -12    1    3    3    0    0 -0.71089591217E+01 -0.20992744444E+02 -0.29403207963E+02  0.36820935045E+02  0.00000000000E+00 0.  1.
         11    1    4    4    0    0  0.14680978604E+02  0.17838698912E+02  0.11971453641E+02  0.26020492197E+02  0.51100000000E-03 0. -1.
        -11    1    4    4    0    0 -0.83269921370E+01 -0.31321180992E+01 -0.90983394265E+00  0.89429726546E+01  0.51100000000E-03 0.  1.
         12    1    4    4    0    0  0.75497265455E+00  0.62861636317E+01  0.18341588264E+02  0.19403600103E+02  0.00000000000E+00 0. -1.
</event>
<event>
 8    1  0.2433390E-006  0.9118800E+02  0.7816164E-02  0.1184000E+00
        -11   -1    0    0    0    0  0.00000000000E+00  0.00000000000E+00  0.45593999997E+02  0.45594000000E+02  0.51100000000E-03 0. -1.
         11   -1    0    0    0    0 -0.00000000000E+00 -0.00000000000E+00 -0.45593999997E+02  0.45594000000E+02  0.51100000000E-03 0.  1.
         23    2    1    2    0    0  0.00000000000E+00  0.00000000000E+00 -0.44408920985E-15  0.91188000000E+02  0.91188000000E+02 0.  0.
    9900012    2    3    3    0    0  0.18672641420E+02 -0.31614675023E+02  0.27612812671E+01  0.54367083544E+02  0.39999998556E+02 0.  0.
         12    1    3    3    0    0 -0.18672641420E+02  0.31614675023E+02 -0.27612812671E+01  0.36820916456E+02  0.00000000000E+00 0. -1.
         11    1    4    4    0    0 -0.27282005415E+01 -0.63632787390E+01 -0.29828283858E+00  0.69298894232E+01  0.51100000000E-03 0. -1.
        -11    1    4    4    0    0  0.15264711401E+02 -0.25367403713E+02  0.15608040933E+02  0.33468306310E+02  0.51100000000E-03 0.  1.
        -12    1    4    4    0    0  0.61361305604E+01  0.11600742846E+00 -0.12548476827E+02  0.13968887810E+02  0.00000000000E+00 0.  1.
</event>
<event>
 8    1  0.2433390E-006  0.9118800E+02  0.7816164E-02  0.1184000E+00
        -11   -1    0    0    0    0  0.00000000000E+00  0.00000000000E+00  0.45593999997E+02  0.45594000000E+02  0.51100000000E-03 0. -1.
         11   -1    0    0    0    0 -0.00000000000E+00 -0.00000000000E+00 -0.45593999997E+02  0.45594000000E+02  0.51100000000E-03 0.  1.
         23    2    1    2    0    0 -0.44408920985E-15  0.00000000000E+00  0.71054273576E-14  0.91188000000E+02  0.91188000000E+02 0.  0.
    9900012    2    3    3    0    0 -0.31626778322E+01  0.91413215224E+01 -0.35527660325E+02  0.54367069289E+02  0.39999966058E+02 0.  0.
         12    1    3    3    0    0  0.31626778322E+01 -0.91413215224E+01  0.35527660325E+02  0.36820930711E+02  0.00000000000E+00 0. -1.
         11    1    4    4    0    0  0.30570883618E+01 -0.54050701948E+01  0.14421346514E+01  0.63749765236E+01  0.51100000000E-03 0.  1.
        -11    1    4    4    0    0  0.77002027580E+01  0.12517148757E+02 -0.27032837303E+02  0.30769244847E+02  0.51100000000E-03 0. -1.
        -12    1    4    4    0    0 -0.13919968952E+02  0.20292429599E+01 -0.99369576733E+01  0.17222847918E+02  0.00000000000E+00 0.  1.
</event>
<event>
 8    1  0.2433390E-006  0.9118800E+02  0.7816164E-02  0.1184000E+00
        -11   -1    0    0    0    0  0.00000000000E+00  0.00000000000E+00  0.45593999997E+02  0.45594000000E+02  0.51100000000E-03 0. -1.
         11   -1    0    0    0    0 -0.00000000000E+00 -0.00000000000E+00 -0.45593999997E+02  0.45594000000E+02  0.51100000000E-03 0.  1.
         23    2    1    2    0    0 -0.10658141036E-13  0.35527136788E-14  0.35527136788E-14  0.91188000000E+02  0.91188000000E+02 0.  0.
    9900012    2    3    3    0    0  0.25267826137E+02 -0.20207493870E+02 -0.17577658553E+02  0.54367083032E+02  0.39999997387E+02 0.  0.
         12    1    3    3    0    0 -0.25267826137E+02  0.20207493870E+02  0.17577658553E+02  0.36820916968E+02  0.00000000000E+00 0. -1.
         11    1    4    4    0    0  0.71227753551E+01 -0.35653568456E+01  0.33619419569E+01  0.86457129364E+01  0.51100000000E-03 0. -1.
        -11    1    4    4    0    0  0.25469856382E+02 -0.19776241790E+02 -0.19321183156E+02  0.37591507582E+02  0.51100000000E-03 0.  1.
         12    1    4    4    0    0 -0.73248055994E+01  0.31341047666E+01 -0.16184173542E+01  0.81298625135E+01  0.00000000000E+00 0. -1.
</event>
<event>
 8    1  0.2433390E-006  0.9118800E+02  0.7816164E-02  0.1184000E+00
        -11   -1    0    0    0    0  0.00000000000E+00  0.00000000000E+00  0.45593999997E+02  0.45594000000E+02  0.51100000000E-03 0. -1.
         11   -1    0    0    0    0 -0.00000000000E+00 -0.00000000000E+00 -0.45593999997E+02  0.45594000000E+02  0.51100000000E-03 0.  1.
         23    2    1    2    0    0 -0.88817841970E-15  0.77715611724E-15 -0.71054273576E-14  0.91188000000E+02  0.91188000000E+02 0.  0.
    9900012    2    3    3    0    0  0.57386345226E+01 -0.47934645367E+00 -0.36367821661E+02  0.54367079974E+02  0.39999990416E+02 0.  0.
         12    1    3    3    0    0 -0.57386345226E+01  0.47934645367E+00  0.36367821661E+02  0.36820920026E+02  0.00000000000E+00 0. -1.
         11    1    4    4    0    0  0.11362187168E+02 -0.14524723451E+02 -0.12765660584E+02  0.22428307537E+02  0.51100000000E-03 0. -1.
        -11    1    4    4    0    0 -0.61202421133E+01 -0.12021496013E+01 -0.75619866079E+01  0.98023552736E+01  0.51100000000E-03 0.  1.
        -12    1    4    4    0    0  0.49668946812E+00  0.15247526599E+02 -0.16040174469E+02  0.22136417163E+02  0.00000000000E+00 0.  1.
</event>
<event>
 8    1  0.2433390E-006  0.9118800E+02  0.7816164E-02  0.1184000E+00
        -11   -1    0    0    0    0  0.00000000000E+00  0.00000000000E+00  0.45593999997E+02  0.45594000000E+02  0.51100000000E-03 0.  1.
         11   -1    0    0    0    0 -0.00000000000E+00 -0.00000000000E+00 -0.45593999997E+02  0.45594000000E+02  0.51100000000E-03 0. -1.
         23    2    1    2    0    0 -0.88817841970E-15  0.17763568394E-14  0.00000000000E+00  0.91188000000E+02  0.91188000000E+02 0.  0.
    9900012    2    3    3    0    0 -0.65480341259E+01  0.10672388145E+02 -0.34626618701E+02  0.54367090963E+02  0.40000015468E+02 0.  0.
        -12    1    3    3    0    0  0.65480341259E+01 -0.10672388145E+02  0.34626618701E+02  0.36820909037E+02  0.00000000000E+00 0.  1.
         11    1    4    4    0    0 -0.10148362679E+02  0.18297630300E+00 -0.16605579915E+02  0.19461963672E+02  0.51100000000E-03 0. -1.
        -11    1    4    4    0    0 -0.68707885179E+01 -0.14505827590E+01  0.37472514752E+01  0.79595112336E+01  0.51100000000E-03 0.  1.
        -12    1    4    4    0    0  0.10471117071E+02  0.11939994601E+02 -0.21768290262E+02  0.26945616057E+02  0.00000000000E+00 0.  1.
</event>
<event>
 8    1  0.2433390E-006  0.9118800E+02  0.7816164E-02  0.1184000E+00
        -11   -1    0    0    0    0  0.00000000000E+00  0.00000000000E+00  0.45593999997E+02  0.45594000000E+02  0.51100000000E-03 0.  1.
         11   -1    0    0    0    0 -0.00000000000E+00 -0.00000000000E+00 -0.45593999997E+02  0.45594000000E+02  0.51100000000E-03 0. -1.
         23    2    1    2    0    0 -0.33306690739E-15  0.00000000000E+00  0.00000000000E+00  0.91188000000E+02  0.91188000000E+02 0.  0.
    9900012    2    3    3    0    0 -0.71628220092E+00 -0.93340079069E+01  0.35610941264E+02  0.54367137686E+02  0.40000121983E+02 0.  0.
         12    1    3    3    0    0  0.71628220092E+00  0.93340079069E+01 -0.35610941264E+02  0.36820862314E+02  0.00000000000E+00 0. -1.
         11    1    4    4    0    0  0.88394979225E+01 -0.72082769397E+01  0.78670401482E+01  0.13855912129E+02  0.51100000000E-03 0. -1.
        -11    1    4    4    0    0  0.25185363612E+01 -0.96540128551E+01  0.23706631646E+02  0.25720563249E+02  0.51100000000E-03 0.  1.
        -12    1    4    4    0    0 -0.12074316485E+02  0.75282818878E+01  0.40372694704E+01  0.14790662309E+02  0.00000000000E+00 0.  1.
</event>
<event>
 8    1  0.2433390E-006  0.9118800E+02  0.7816164E-02  0.1184000E+00
        -11   -1    0    0    0    0  0.00000000000E+00  0.00000000000E+00  0.45593999997E+02  0.45594000000E+02  0.51100000000E-03 0. -1.
         11   -1    0    0    0    0 -0.00000000000E+00 -0.00000000000E+00 -0.45593999997E+02  0.45594000000E+02  0.51100000000E-03 0.  1.
         23    2    1    2    0    0 -0.88817841970E-15  0.00000000000E+00  0.00000000000E+00  0.91188000000E+02  0.91188000000E+02 0.  0.
    9900012    2    3    3    0    0  0.53487940316E+01 -0.25783229195E+02 -0.25737062537E+02  0.54367069901E+02  0.39999967453E+02 0.  0.
         12    1    3    3    0    0 -0.53487940316E+01  0.25783229195E+02  0.25737062537E+02  0.36820930099E+02  0.00000000000E+00 0. -1.
         11    1    4    4    0    0  0.37631866577E+01  0.36553549397E+01  0.15683853120E+01  0.54756758764E+01  0.51100000000E-03 0. -1.
        -11    1    4    4    0    0 -0.10333841787E+02 -0.22106314388E+02 -0.24576765825E+02  0.34633724036E+02  0.51100000000E-03 0.  1.
        -12    1    4    4    0    0  0.11919449160E+02 -0.73322697470E+01 -0.27286820236E+01  0.14257669989E+02  0.00000000000E+00 0.  1.
</event>
<event>
 8    1  0.2433390E-006  0.9118800E+02  0.7816164E-02  0.1184000E+00
        -11   -1    0    0    0    0  0.00000000000E+00  0.00000000000E+00  0.45593999997E+02  0.45594000000E+02  0.51100000000E-03 0. -1.
         11   -1    0    0    0    0 -0.00000000000E+00 -0.00000000000E+00 -0.45593999997E+02  0.45594000000E+02  0.51100000000E-03 0.  1.
         23    2    1    2    0    0  0.35527136788E-14  0.00000000000E+00  0.00000000000E+00  0.91188000000E+02  0.91188000000E+02 0.  0.
    9900012    2    3    3    0    0 -0.23976698390E+02  0.18901354613E+02 -0.20582439377E+02  0.54367080911E+02  0.39999992552E+02 0.  0.
         12    1    3    3    0    0  0.23976698390E+02 -0.18901354613E+02  0.20582439377E+02  0.36820919089E+02  0.00000000000E+00 0. -1.
         11    1    4    4    0    0 -0.54710245146E+00 -0.78473622623E+01 -0.68850710678E+01  0.10453928421E+02  0.51100000000E-03 0. -1.
        -11    1    4    4    0    0  0.20249765598E+01  0.84638677980E+01  0.18963348033E+01  0.89069452741E+01  0.51100000000E-03 0.  1.
         12    1    4    4    0    0 -0.25454572498E+02  0.18284849077E+02 -0.15593703112E+02  0.35006207215E+02  0.00000000000E+00 0. -1.
</event>
<event>
 8    1  0.2433390E-006  0.9118800E+02  0.7816164E-02  0.1184000E+00
        -11   -1    0    0    0    0  0.00000000000E+00  0.00000000000E+00  0.45593999997E+02  0.45594000000E+02  0.51100000000E-03 0. -1.
         11   -1    0    0    0    0 -0.00000000000E+00 -0.00000000000E+00 -0.45593999997E+02  0.45594000000E+02  0.51100000000E-03 0.  1.
         23    2    1    2    0    0  0.00000000000E+00 -0.17763568394E-14 -0.17763568394E-14  0.91188000000E+02  0.91188000000E+02 0.  0.
    9900012    2    3    3    0    0  0.34409532402E+02 -0.61687005045E+01 -0.11563207003E+02  0.54367128986E+02  0.40000102149E+02 0.  0.
        -12    1    3    3    0    0 -0.34409532402E+02  0.61687005045E+01  0.11563207003E+02  0.36820871014E+02  0.00000000000E+00 0.  1.
         11    1    4    4    0    0  0.73354581680E+01 -0.16600254263E+02  0.72251638792E+01  0.19534082560E+02  0.51100000000E-03 0. -1.
        -11    1    4    4    0    0  0.19921237101E+02  0.55940918770E+01 -0.13539156845E+02  0.24727683270E+02  0.51100000000E-03 0.  1.
         12    1    4    4    0    0  0.71528371331E+01  0.48374618815E+01 -0.52492140374E+01  0.10105363156E+02  0.00000000000E+00 0. -1.
</event>
<event>
 8    1  0.2433390E-006  0.9118800E+02  0.7816164E-02  0.1184000E+00
        -11   -1    0    0    0    0  0.00000000000E+00  0.00000000000E+00  0.45593999997E+02  0.45594000000E+02  0.51100000000E-03 0.  1.
         11   -1    0    0    0    0 -0.00000000000E+00 -0.00000000000E+00 -0.45593999997E+02  0.45594000000E+02  0.51100000000E-03 0. -1.
         23    2    1    2    0    0  0.00000000000E+00  0.00000000000E+00  0.71054273576E-14  0.91188000000E+02  0.91188000000E+02 0.  0.
    9900012    2    3    3    0    0  0.90724714833E+01 -0.41547102383E+01 -0.35443028620E+02  0.54367087006E+02  0.40000006447E+02 0.  0.
        -12    1    3    3    0    0 -0.90724714833E+01  0.41547102383E+01  0.35443028620E+02  0.36820912994E+02  0.00000000000E+00 0.  1.
         11    1    4    4    0    0 -0.54656088302E+01 -0.60844422889E+01  0.13518023369E+01  0.82897941874E+01  0.51100000000E-03 0. -1.
        -11    1    4    4    0    0  0.46833760902E+01 -0.10543946329E+02 -0.18882337544E+02  0.22128070119E+02  0.51100000000E-03 0.  1.
         12    1    4    4    0    0  0.98547042233E+01  0.12473678380E+02 -0.17912493413E+02  0.23949222700E+02  0.00000000000E+00 0. -1.
</event>
<event>
 8    1  0.2433390E-006  0.9118800E+02  0.7816164E-02  0.1184000E+00
        -11   -1    0    0    0    0  0.00000000000E+00  0.00000000000E+00  0.45593999997E+02  0.45594000000E+02  0.51100000000E-03 0. -1.
         11   -1    0    0    0    0 -0.00000000000E+00 -0.00000000000E+00 -0.45593999997E+02  0.45594000000E+02  0.51100000000E-03 0.  1.
         23    2    1    2    0    0  0.17763568394E-14  0.22204460493E-14  0.00000000000E+00  0.91188000000E+02  0.91188000000E+02 0.  0.
    9900012    2    3    3    0    0 -0.52050131659E+01 -0.18101523781E+01  0.36406207723E+02  0.54367071516E+02  0.39999971134E+02 0.  0.
        -12    1    3    3    0    0  0.52050131659E+01  0.18101523781E+01 -0.36406207723E+02  0.36820928484E+02  0.00000000000E+00 0.  1.
         11    1    4    4    0    0 -0.10845017575E+02  0.49632345352E+01  0.22759235288E+02  0.25694958541E+02  0.51100000000E-03 0. -1.
        -11    1    4    4    0    0 -0.38482299410E+00  0.79662210255E+01  0.44544118897E+00  0.79879399270E+01  0.51100000000E-03 0.  1.
        -12    1    4    4    0    0  0.60248274034E+01 -0.14739607939E+02  0.13201531246E+02  0.20684173048E+02  0.00000000000E+00 0.  1.
</event>
<event>
 8    1  0.2433390E-006  0.9118800E+02  0.7816164E-02  0.1184000E+00
        -11   -1    0    0    0    0  0.00000000000E+00  0.00000000000E+00  0.45593999997E+02  0.45594000000E+02  0.51100000000E-03 0. -1.
         11   -1    0    0    0    0 -0.00000000000E+00 -0.00000000000E+00 -0.45593999997E+02  0.45594000000E+02  0.51100000000E-03 0.  1.
         23    2    1    2    0    0  0.35527136788E-14 -0.35527136788E-14  0.00000000000E+00  0.91188000000E+02  0.91188000000E+02 0.  0.
    9900012    2    3    3    0    0  0.22746492178E+02  0.28865843882E+02 -0.22672016414E+01  0.54367081316E+02  0.39999993476E+02 0.  0.
         12    1    3    3    0    0 -0.22746492178E+02 -0.28865843882E+02  0.22672016414E+01  0.36820918684E+02  0.00000000000E+00 0. -1.
         11    1    4    4    0    0  0.97447622023E+00  0.11644124513E+02 -0.98749257183E+01  0.15298673072E+02  0.51100000000E-03 0. -1.
        -11    1    4    4    0    0  0.23001607039E+02  0.12725692029E+02 -0.39721643750E+01  0.26585621190E+02  0.51100000000E-03 0.  1.
        -12    1    4    4    0    0 -0.12295910807E+01  0.44960273411E+01  0.11579888452E+02  0.12482787054E+02  0.00000000000E+00 0.  1.
</event>
<event>
 8    1  0.2433390E-006  0.9118800E+02  0.7816164E-02  0.1184000E+00
        -11   -1    0    0    0    0  0.00000000000E+00  0.00000000000E+00  0.45593999997E+02  0.45594000000E+02  0.51100000000E-03 0.  1.
         11   -1    0    0    0    0 -0.00000000000E+00 -0.00000000000E+00 -0.45593999997E+02  0.45594000000E+02  0.51100000000E-03 0. -1.
         23    2    1    2    0    0  0.00000000000E+00  0.88817841970E-15  0.71054273576E-14  0.91188000000E+02  0.91188000000E+02 0.  0.
    9900012    2    3    3    0    0  0.34804128734E+01 -0.66424482086E+01 -0.36049199268E+02  0.54367079862E+02  0.39999990160E+02 0.  0.
        -12    1    3    3    0    0 -0.34804128734E+01  0.66424482086E+01  0.36049199268E+02  0.36820920138E+02  0.00000000000E+00 0.  1.
         11    1    4    4    0    0 -0.12086680660E+01 -0.13659688213E+00  0.50645343399E+01  0.52085550341E+01  0.51100000000E-03 0. -1.
        -11    1    4    4    0    0 -0.41679756444E+01  0.71597053350E+01 -0.53503512420E+01  0.98620312375E+01  0.51100000000E-03 0.  1.
         12    1    4    4    0    0  0.88570565838E+01 -0.13665556662E+02 -0.35763382366E+02  0.39296493590E+02  0.00000000000E+00 0. -1.
</event>
<event>
 8    1  0.2433390E-006  0.9118800E+02  0.7816164E-02  0.1184000E+00
        -11   -1    0    0    0    0  0.00000000000E+00  0.00000000000E+00  0.45593999997E+02  0.45594000000E+02  0.51100000000E-03 0. -1.
         11   -1    0    0    0    0 -0.00000000000E+00 -0.00000000000E+00 -0.45593999997E+02  0.45594000000E+02  0.51100000000E-03 0.  1.
         23    2    1    2    0    0  0.71054273576E-14  0.00000000000E+00  0.00000000000E+00  0.91188000000E+02  0.91188000000E+02 0.  0.
    9900012    2    3    3    0    0 -0.35525684982E+02  0.53236784614E+00 -0.96655232428E+01  0.54367081373E+02  0.39999993607E+02 0.  0.
         12    1    3    3    0    0  0.35525684982E+02 -0.53236784614E+00  0.96655232428E+01  0.36820918627E+02  0.00000000000E+00 0. -1.
         11    1    4    4    0    0  0.31325924169E+01 -0.19376148679E+01  0.80388237817E+01  0.88425208330E+01  0.51100000000E-03 0. -1.
        -11    1    4    4    0    0  0.91224344699E+00 -0.11408932242E+01  0.82938319988E+00  0.16797923113E+01  0.51100000000E-03 0.  1.
        -12    1    4    4    0    0 -0.39570520846E+02  0.36108759383E+01 -0.18533730224E+02  0.43844768229E+02  0.00000000000E+00 0.  1.
</event>
<event>
 8    1  0.2433390E-006  0.9118800E+02  0.7816164E-02  0.1184000E+00
        -11   -1    0    0    0    0  0.00000000000E+00  0.00000000000E+00  0.45593999997E+02  0.45594000000E+02  0.51100000000E-03 0. -1.
         11   -1    0    0    0    0 -0.00000000000E+00 -0.00000000000E+00 -0.45593999997E+02  0.45594000000E+02  0.51100000000E-03 0.  1.
         23    2    1    2    0    0  0.00000000000E+00  0.00000000000E+00  0.00000000000E+00  0.91188000000E+02  0.91188000000E+02 0.  0.
    9900012    2    3    3    0    0  0.21303806077E+01  0.95111034629E+01  0.35507448362E+02  0.54367102404E+02  0.40000041550E+02 0.  0.
        -12    1    3    3    0    0 -0.21303806077E+01 -0.95111034629E+01 -0.35507448362E+02  0.36820897596E+02  0.00000000000E+00 0.  1.
         11    1    4    4    0    0  0.20241697201E+00  0.97329461199E+01  0.18591029314E+02  0.20985651861E+02  0.51100000000E-03 0. -1.
        -11    1    4    4    0    0 -0.57176195278E+01 -0.11829292326E+02  0.25346517209E+01  0.13380874022E+02  0.51100000000E-03 0.  1.
         12    1    4    4    0    0  0.76455831635E+01  0.11607449669E+02  0.14381767327E+02  0.20000576521E+02  0.00000000000E+00 0. -1.
</event>
<event>
 8    1  0.2433390E-006  0.9118800E+02  0.7816164E-02  0.1184000E+00
        -11   -1    0    0    0    0  0.00000000000E+00  0.00000000000E+00  0.45593999997E+02  0.45594000000E+02  0.51100000000E-03 0. -1.
         11   -1    0    0    0    0 -0.00000000000E+00 -0.00000000000E+00 -0.45593999997E+02  0.45594000000E+02  0.51100000000E-03 0.  1.
         23    2    1    2    0    0  0.00000000000E+00  0.00000000000E+00  0.00000000000E+00  0.91188000000E+02  0.91188000000E+02 0.  0.
    9900012    2    3    3    0    0  0.26314475064E+02 -0.93294200539E+01 -0.24006040216E+02  0.54367086876E+02  0.40000006150E+02 0.  0.
         12    1    3    3    0    0 -0.26314475064E+02  0.93294200539E+01  0.24006040216E+02  0.36820913124E+02  0.00000000000E+00 0. -1.
         11    1    4    4    0    0  0.42001264979E+01  0.11036339354E+02  0.28790794769E+01  0.12154462055E+02  0.51100000000E-03 0. -1.
        -11    1    4    4    0    0  0.18888197256E+02 -0.99066679228E+01 -0.20266659367E+02  0.29421820934E+02  0.51100000000E-03 0.  1.
        -12    1    4    4    0    0  0.32261513104E+01 -0.10459091486E+02 -0.66184603262E+01  0.12790803887E+02  0.00000000000E+00 0.  1.
</event>
<event>
 8    1  0.2433390E-006  0.9118800E+02  0.7816164E-02  0.1184000E+00
        -11   -1    0    0    0    0  0.00000000000E+00  0.00000000000E+00  0.45593999997E+02  0.45594000000E+02  0.51100000000E-03 0. -1.
         11   -1    0    0    0    0 -0.00000000000E+00 -0.00000000000E+00 -0.45593999997E+02  0.45594000000E+02  0.51100000000E-03 0.  1.
         23    2    1    2    0    0  0.00000000000E+00  0.22204460493E-14 -0.15404344467E-14  0.91188000000E+02  0.91188000000E+02 0.  0.
    9900012    2    3    3    0    0  0.36755846290E+02  0.21881466612E+01  0.16777081519E-01  0.54367075192E+02  0.39999979514E+02 0.  0.
        -12    1    3    3    0    0 -0.36755846290E+02 -0.21881466612E+01 -0.16777081519E-01  0.36820924808E+02  0.00000000000E+00 0.  1.
         11    1    4    4    0    0  0.14646298824E+02 -0.58660532171E+01  0.58917809768E+01  0.16841547818E+02  0.51100000000E-03 0.  1.
        -11    1    4    4    0    0  0.12771617628E+02 -0.71747671098E+01  0.62592935057E+01  0.15930168090E+02  0.51100000000E-03 0. -1.
        -12    1    4    4    0    0  0.93379298380E+01  0.15228966988E+02 -0.12134297401E+02  0.21595359284E+02  0.00000000000E+00 0.  1.
</event>
<event>
 8    1  0.2433390E-006  0.9118800E+02  0.7816164E-02  0.1184000E+00
        -11   -1    0    0    0    0  0.00000000000E+00  0.00000000000E+00  0.45593999997E+02  0.45594000000E+02  0.51100000000E-03 0. -1.
         11   -1    0    0    0    0 -0.00000000000E+00 -0.00000000000E+00 -0.45593999997E+02  0.45594000000E+02  0.51100000000E-03 0.  1.
         23    2    1    2    0    0  0.00000000000E+00 -0.88817841970E-15  0.35527136788E-14  0.91188000000E+02  0.91188000000E+02 0.  0.
    9900012    2    3    3    0    0  0.25778705049E+02 -0.49579566120E+01 -0.25819742146E+02  0.54367054164E+02  0.39999931577E+02 0.  0.
         12    1    3    3    0    0 -0.25778705049E+02  0.49579566120E+01  0.25819742146E+02  0.36820945836E+02  0.00000000000E+00 0. -1.
         11    1    4    4    0    0 -0.39739116866E+01 -0.22257901926E+01  0.37232763073E+01  0.58829331796E+01  0.51100000000E-03 0. -1.
        -11    1    4    4    0    0  0.11378694717E+02 -0.42461599803E+01 -0.27340694206E+02  0.29916853577E+02  0.51100000000E-03 0.  1.
        -12    1    4    4    0    0  0.18373922019E+02  0.15139935609E+01 -0.22023242470E+01  0.18567267407E+02  0.00000000000E+00 0.  1.
</event>
<event>
 8    1  0.2433390E-006  0.9118800E+02  0.7816164E-02  0.1184000E+00
        -11   -1    0    0    0    0  0.00000000000E+00  0.00000000000E+00  0.45593999997E+02  0.45594000000E+02  0.51100000000E-03 0. -1.
         11   -1    0    0    0    0 -0.00000000000E+00 -0.00000000000E+00 -0.45593999997E+02  0.45594000000E+02  0.51100000000E-03 0.  1.
         23    2    1    2    0    0  0.00000000000E+00  0.00000000000E+00 -0.35527136788E-14  0.91188000000E+02  0.91188000000E+02 0.  0.
    9900012    2    3    3    0    0  0.18062044398E+02  0.62327935136E+01 -0.31475312113E+02  0.54367076119E+02  0.39999981629E+02 0.  0.
         12    1    3    3    0    0 -0.18062044398E+02 -0.62327935136E+01  0.31475312113E+02  0.36820923881E+02  0.00000000000E+00 0. -1.
         11    1    4    4    0    0  0.43566389642E+01 -0.42222158420E+01 -0.49334818631E+01  0.78196325512E+01  0.51100000000E-03 0. -1.
        -11    1    4    4    0    0 -0.68757553197E+00  0.15406542534E+02 -0.27248687073E+02  0.31310146286E+02  0.51100000000E-03 0.  1.
         12    1    4    4    0    0  0.14392980966E+02 -0.49515331779E+01  0.70685682373E+00  0.15237297282E+02  0.00000000000E+00 0. -1.
</event>
<event>
 8    1  0.2433390E-006  0.9118800E+02  0.7816164E-02  0.1184000E+00
        -11   -1    0    0    0    0  0.00000000000E+00  0.00000000000E+00  0.45593999997E+02  0.45594000000E+02  0.51100000000E-03 0. -1.
         11   -1    0    0    0    0 -0.00000000000E+00 -0.00000000000E+00 -0.45593999997E+02  0.45594000000E+02  0.51100000000E-03 0.  1.
         23    2    1    2    0    0 -0.35527136788E-14  0.00000000000E+00  0.00000000000E+00  0.91188000000E+02  0.91188000000E+02 0.  0.
    9900012    2    3    3    0    0  0.24716917149E+02 -0.14499060643E+02  0.23122227386E+02  0.54366998490E+02  0.39999804658E+02 0.  0.
         12    1    3    3    0    0 -0.24716917149E+02  0.14499060643E+02 -0.23122227386E+02  0.36821001510E+02  0.00000000000E+00 0. -1.
         11    1    4    4    0    0  0.14632604407E+02 -0.12614411233E+02  0.22693169593E+02  0.29802960070E+02  0.51100000000E-03 0. -1.
        -11    1    4    4    0    0  0.42204781355E+01 -0.11617774903E+02  0.33987109221E+01  0.12819374617E+02  0.51100000000E-03 0.  1.
         12    1    4    4    0    0  0.58638346064E+01  0.97331254924E+01 -0.29696531296E+01  0.11744663803E+02  0.00000000000E+00 0. -1.
</event>
<event>
 8    1  0.2433390E-006  0.9118800E+02  0.7816164E-02  0.1184000E+00
        -11   -1    0    0    0    0  0.00000000000E+00  0.00000000000E+00  0.45593999997E+02  0.45594000000E+02  0.51100000000E-03 0. -1.
         11   -1    0    0    0    0 -0.00000000000E+00 -0.00000000000E+00 -0.45593999997E+02  0.45594000000E+02  0.51100000000E-03 0.  1.
         23    2    1    2    0    0  0.17763568394E-14  0.00000000000E+00  0.00000000000E+00  0.91188000000E+02  0.91188000000E+02 0.  0.
    9900012    2    3    3    0    0 -0.13665126275E+02  0.33092815664E+02  0.85971039916E+01  0.54367077663E+02  0.39999985149E+02 0.  0.
         12    1    3    3    0    0  0.13665126275E+02 -0.33092815664E+02 -0.85971039916E+01  0.36820922337E+02  0.00000000000E+00 0. -1.
         11    1    4    4    0    0  0.89057367378E+00  0.51994401419E+01  0.12022124204E+02  0.13128547897E+02  0.51100000000E-03 0. -1.
        -11    1    4    4    0    0 -0.90569090723E+01  0.32101341700E+02 -0.59254316910E+01  0.33876754299E+02  0.51100000000E-03 0.  1.
        -12    1    4    4    0    0 -0.54987908769E+01 -0.42079661777E+01  0.25004114788E+01  0.73617754668E+01  0.00000000000E+00 0.  1.
</event>
<event>
 8    1  0.2433390E-006  0.9118800E+02  0.7816164E-02  0.1184000E+00
        -11   -1    0    0    0    0  0.00000000000E+00  0.00000000000E+00  0.45593999997E+02  0.45594000000E+02  0.51100000000E-03 0.  1.
         11   -1    0    0    0    0 -0.00000000000E+00 -0.00000000000E+00 -0.45593999997E+02  0.45594000000E+02  0.51100000000E-03 0. -1.
         23    2    1    2    0    0  0.17763568394E-14  0.00000000000E+00  0.44408920985E-15  0.91188000000E+02  0.91188000000E+02 0.  0.
    9900012    2    3    3    0    0 -0.14706020626E+02  0.33728009313E+02  0.13910530091E+01  0.54367072753E+02  0.39999973955E+02 0.  0.
        -12    1    3    3    0    0  0.14706020626E+02 -0.33728009313E+02 -0.13910530091E+01  0.36820927247E+02  0.00000000000E+00 0.  1.
         11    1    4    4    0    0  0.13674191099E+01 -0.18708243498E+01 -0.36151033830E+01  0.42940413949E+01  0.51100000000E-03 0. -1.
        -11    1    4    4    0    0 -0.84823044116E+01  0.70562796230E+01  0.15240566776E+02  0.18815298195E+02  0.51100000000E-03 0.  1.
        -12    1    4    4    0    0 -0.75911353248E+01  0.28542554039E+02 -0.10234410384E+02  0.31257733163E+02  0.00000000000E+00 0.  1.
</event>
<event>
 8    1  0.2433390E-006  0.9118800E+02  0.7816164E-02  0.1184000E+00
        -11   -1    0    0    0    0  0.00000000000E+00  0.00000000000E+00  0.45593999997E+02  0.45594000000E+02  0.51100000000E-03 0.  1.
         11   -1    0    0    0    0 -0.00000000000E+00 -0.00000000000E+00 -0.45593999997E+02  0.45594000000E+02  0.51100000000E-03 0. -1.
         23    2    1    2    0    0  0.00000000000E+00 -0.71054273576E-14 -0.35527136788E-14  0.91188000000E+02  0.91188000000E+02 0.  0.
    9900012    2    3    3    0    0 -0.73726151427E+01 -0.31521090056E+02 -0.17545531179E+02  0.54367078818E+02  0.39999987781E+02 0.  0.
         12    1    3    3    0    0  0.73726151427E+01  0.31521090056E+02  0.17545531179E+02  0.36820921182E+02  0.00000000000E+00 0. -1.
         11    1    4    4    0    0  0.29547791673E+01  0.34297204266E+00 -0.31885561548E+01  0.43606467826E+01  0.51100000000E-03 0. -1.
        -11    1    4    4    0    0  0.56938333543E+01  0.49518035373E+01 -0.62249971636E+00  0.75714993691E+01  0.51100000000E-03 0.  1.
        -12    1    4    4    0    0 -0.16021227664E+02 -0.36815865636E+02 -0.13734475307E+02  0.42434932666E+02  0.00000000000E+00 0.  1.
</event>
<event>
 8    1  0.2433390E-006  0.9118800E+02  0.7816164E-02  0.1184000E+00
        -11   -1    0    0    0    0  0.00000000000E+00  0.00000000000E+00  0.45593999997E+02  0.45594000000E+02  0.51100000000E-03 0.  1.
         11   -1    0    0    0    0 -0.00000000000E+00 -0.00000000000E+00 -0.45593999997E+02  0.45594000000E+02  0.51100000000E-03 0. -1.
         23    2    1    2    0    0 -0.17763568394E-14  0.00000000000E+00  0.71054273576E-14  0.91188000000E+02  0.91188000000E+02 0.  0.
    9900012    2    3    3    0    0  0.90396883027E+01 -0.54910069416E+01 -0.35269177655E+02  0.54367054679E+02  0.39999932752E+02 0.  0.
        -12    1    3    3    0    0 -0.90396883027E+01  0.54910069416E+01  0.35269177655E+02  0.36820945321E+02  0.00000000000E+00 0.  1.
         11    1    4    4    0    0 -0.69163333031E+00  0.22622975230E+01 -0.11790200681E+01  0.26431865860E+01  0.51100000000E-03 0. -1.
        -11    1    4    4    0    0  0.33642017684E+01 -0.17688865554E+02 -0.27233756711E+01  0.18210727427E+02  0.51100000000E-03 0.  1.
         12    1    4    4    0    0  0.63671198646E+01  0.99355610892E+01 -0.31366781916E+02  0.33513140666E+02  0.00000000000E+00 0. -1.
</event>
<event>
 8    1  0.2433390E-006  0.9118800E+02  0.7816164E-02  0.1184000E+00
        -11   -1    0    0    0    0  0.00000000000E+00  0.00000000000E+00  0.45593999997E+02  0.45594000000E+02  0.51100000000E-03 0.  1.
         11   -1    0    0    0    0 -0.00000000000E+00 -0.00000000000E+00 -0.45593999997E+02  0.45594000000E+02  0.51100000000E-03 0. -1.
         23    2    1    2    0    0  0.61062266354E-15  0.00000000000E+00  0.00000000000E+00  0.91188000000E+02  0.91188000000E+02 0.  0.
    9900012    2    3    3    0    0  0.33181514985E+00 -0.35685707013E+02 -0.90665106737E+01  0.54367062993E+02  0.39999951705E+02 0.  0.
         12    1    3    3    0    0 -0.33181514985E+00  0.35685707013E+02  0.90665106737E+01  0.36820937007E+02  0.00000000000E+00 0. -1.
         11    1    4    4    0    0  0.45316686752E+01 -0.85671335921E+01 -0.18027506724E+02  0.20467603619E+02  0.51100000000E-03 0. -1.
        -11    1    4    4    0    0  0.15058154682E+01 -0.25721829830E+01  0.81585003026E+01  0.86858927562E+01  0.51100000000E-03 0.  1.
         12    1    4    4    0    0 -0.57056689936E+01 -0.24546390437E+02  0.80249574739E+00  0.25213566618E+02  0.00000000000E+00 0. -1.
</event>
<event>
 8    1  0.2433390E-006  0.9118800E+02  0.7816164E-02  0.1184000E+00
        -11   -1    0    0    0    0  0.00000000000E+00  0.00000000000E+00  0.45593999997E+02  0.45594000000E+02  0.51100000000E-03 0. -1.
         11   -1    0    0    0    0 -0.00000000000E+00 -0.00000000000E+00 -0.45593999997E+02  0.45594000000E+02  0.51100000000E-03 0.  1.
         23    2    1    2    0    0 -0.17763568394E-14 -0.17763568394E-14  0.00000000000E+00  0.91188000000E+02  0.91188000000E+02 0.  0.
    9900012    2    3    3    0    0  0.15435917507E+02 -0.12478922147E+02  0.31012809097E+02  0.54367009039E+02  0.39999828706E+02 0.  0.
        -12    1    3    3    0    0 -0.15435917507E+02  0.12478922147E+02 -0.31012809097E+02  0.36820990961E+02  0.00000000000E+00 0.  1.
         11    1    4    4    0    0  0.33766072234E+01 -0.11268979267E+02 -0.20018014411E+01  0.11933087586E+02  0.51100000000E-03 0. -1.
        -11    1    4    4    0    0  0.90511369478E+01 -0.75911965924E+01  0.33340717009E+02  0.35371637744E+02  0.51100000000E-03 0.  1.
        -12    1    4    4    0    0  0.30081733355E+01  0.63812537121E+01 -0.32610647111E+00  0.70622837090E+01  0.00000000000E+00 0.  1.
</event>
<event>
 8    1  0.2433390E-006  0.9118800E+02  0.7816164E-02  0.1184000E+00
        -11   -1    0    0    0    0  0.00000000000E+00  0.00000000000E+00  0.45593999997E+02  0.45594000000E+02  0.51100000000E-03 0.  1.
         11   -1    0    0    0    0 -0.00000000000E+00 -0.00000000000E+00 -0.45593999997E+02  0.45594000000E+02  0.51100000000E-03 0. -1.
         23    2    1    2    0    0 -0.17763568394E-14  0.00000000000E+00  0.00000000000E+00  0.91188000000E+02  0.91188000000E+02 0.  0.
    9900012    2    3    3    0    0  0.13609486421E+02  0.33923766023E+02  0.44429375168E+01  0.54367085894E+02  0.40000003912E+02 0.  0.
         12    1    3    3    0    0 -0.13609486421E+02 -0.33923766023E+02 -0.44429375168E+01  0.36820914106E+02  0.00000000000E+00 0. -1.
         11    1    4    4    0    0  0.12202287558E+02  0.78610647152E+01  0.57336554682E+01  0.15606632096E+02  0.51100000000E-03 0. -1.
        -11    1    4    4    0    0 -0.63579376318E-01  0.29719530587E+02  0.61417100739E+01  0.30347572284E+02  0.51100000000E-03 0.  1.
         12    1    4    4    0    0  0.14707782399E+01 -0.36568292793E+01 -0.74324280253E+01  0.84128815135E+01  0.00000000000E+00 0. -1.
</event>
<event>
 8    1  0.2433390E-006  0.9118800E+02  0.7816164E-02  0.1184000E+00
        -11   -1    0    0    0    0  0.00000000000E+00  0.00000000000E+00  0.45593999997E+02  0.45594000000E+02  0.51100000000E-03 0.  1.
         11   -1    0    0    0    0 -0.00000000000E+00 -0.00000000000E+00 -0.45593999997E+02  0.45594000000E+02  0.51100000000E-03 0. -1.
         23    2    1    2    0    0  0.71054273576E-14  0.35527136788E-14  0.00000000000E+00  0.91188000000E+02  0.91188000000E+02 0.  0.
    9900012    2    3    3    0    0 -0.27231849082E+02 -0.22890205306E+02 -0.94997365750E+01  0.54367080697E+02  0.39999992064E+02 0.  0.
         12    1    3    3    0    0  0.27231849082E+02  0.22890205306E+02  0.94997365750E+01  0.36820919303E+02  0.00000000000E+00 0. -1.
         11    1    4    4    0    0  0.72455173165E+01 -0.18788483494E+01 -0.81435027863E+01  0.11060932610E+02  0.51100000000E-03 0. -1.
        -11    1    4    4    0    0 -0.12732708669E+02 -0.18539714766E+01  0.47030493318E+01  0.13699553043E+02  0.51100000000E-03 0.  1.
         12    1    4    4    0    0 -0.21744657729E+02 -0.19157385480E+02 -0.60592831205E+01  0.29606595044E+02  0.00000000000E+00 0. -1.
</event>
<event>
 8    1  0.2433390E-006  0.9118800E+02  0.7816164E-02  0.1184000E+00
        -11   -1    0    0    0    0  0.00000000000E+00  0.00000000000E+00  0.45593999997E+02  0.45594000000E+02  0.51100000000E-03 0.  1.
         11   -1    0    0    0    0 -0.00000000000E+00 -0.00000000000E+00 -0.45593999997E+02  0.45594000000E+02  0.51100000000E-03 0. -1.
         23    2    1    2    0    0  0.00000000000E+00 -0.17763568394E-14 -0.12490009027E-15  0.91188000000E+02  0.91188000000E+02 0.  0.
    9900012    2    3    3    0    0  0.34478485513E+02 -0.12922780999E+02  0.12300772161E+00  0.54367090684E+02  0.40000014831E+02 0.  0.
         12    1    3    3    0    0 -0.34478485513E+02  0.12922780999E+02 -0.12300772161E+00  0.36820909316E+02  0.00000000000E+00 0. -1.
         11    1    4    4    0    0 -0.43109635485E+01  0.25649185221E+00  0.24785286576E+01  0.49792870328E+01  0.51100000000E-03 0. -1.
        -11    1    4    4    0    0  0.40062323793E+02 -0.11098277704E+02 -0.88041230435E+01  0.42493224619E+02  0.51100000000E-03 0.  1.
        -12    1    4    4    0    0 -0.12728747320E+01 -0.20809951469E+01  0.64486021074E+01  0.68945790317E+01  0.00000000000E+00 0.  1.
</event>
<event>
 8    1  0.2433390E-006  0.9118800E+02  0.7816164E-02  0.1184000E+00
        -11   -1    0    0    0    0  0.00000000000E+00  0.00000000000E+00  0.45593999997E+02  0.45594000000E+02  0.51100000000E-03 0. -1.
         11   -1    0    0    0    0 -0.00000000000E+00 -0.00000000000E+00 -0.45593999997E+02  0.45594000000E+02  0.51100000000E-03 0.  1.
         23    2    1    2    0    0  0.00000000000E+00  0.35527136788E-14  0.00000000000E+00  0.91188000000E+02  0.91188000000E+02 0.  0.
    9900012    2    3    3    0    0  0.23952389941E+02 -0.27718797582E+02  0.37069299025E+01  0.54366945526E+02  0.39999683914E+02 0.  0.
         12    1    3    3    0    0 -0.23952389941E+02  0.27718797582E+02 -0.37069299025E+01  0.36821054474E+02  0.00000000000E+00 0. -1.
         11    1    4    4    0    0  0.25056888116E+02 -0.36839328147E+01 -0.33394326686E+01  0.25545465622E+02  0.51100000000E-03 0. -1.
        -11    1    4    4    0    0  0.27129385010E+01 -0.44751790388E+01 -0.34788537004E+01  0.62840819591E+01  0.51100000000E-03 0.  1.
         12    1    4    4    0    0 -0.38174366757E+01 -0.19559685729E+02  0.10525216272E+02  0.22537397945E+02  0.00000000000E+00 0. -1.
</event>
<event>
 8    1  0.2433390E-006  0.9118800E+02  0.7816164E-02  0.1184000E+00
        -11   -1    0    0    0    0  0.00000000000E+00  0.00000000000E+00  0.45593999997E+02  0.45594000000E+02  0.51100000000E-03 0.  1.
         11   -1    0    0    0    0 -0.00000000000E+00 -0.00000000000E+00 -0.45593999997E+02  0.45594000000E+02  0.51100000000E-03 0. -1.
         23    2    1    2    0    0  0.00000000000E+00 -0.35527136788E-14  0.35527136788E-14  0.91188000000E+02  0.91188000000E+02 0.  0.
    9900012    2    3    3    0    0  0.63616713582E+01  0.27527951404E+02  0.23611858701E+02  0.54367097753E+02  0.40000030948E+02 0.  0.
         12    1    3    3    0    0 -0.63616713582E+01 -0.27527951404E+02 -0.23611858701E+02  0.36820902247E+02  0.00000000000E+00 0. -1.
         11    1    4    4    0    0 -0.58624511747E+00 -0.47856802954E+01 -0.41672460148E+01  0.63727826604E+01  0.51100000000E-03 0. -1.
        -11    1    4    4    0    0  0.24451565802E+01  0.19344018672E+02  0.30851496308E+01  0.19740516649E+02  0.51100000000E-03 0.  1.
        -12    1    4    4    0    0  0.45027598955E+01  0.12969613027E+02  0.24693955085E+02  0.28253798443E+02  0.00000000000E+00 0.  1.
</event>
<event>
 8    1  0.2433390E-006  0.9118800E+02  0.7816164E-02  0.1184000E+00
        -11   -1    0    0    0    0  0.00000000000E+00  0.00000000000E+00  0.45593999997E+02  0.45594000000E+02  0.51100000000E-03 0.  1.
         11   -1    0    0    0    0 -0.00000000000E+00 -0.00000000000E+00 -0.45593999997E+02  0.45594000000E+02  0.51100000000E-03 0. -1.
         23    2    1    2    0    0  0.00000000000E+00  0.00000000000E+00  0.00000000000E+00  0.91188000000E+02  0.91188000000E+02 0.  0.
    9900012    2    3    3    0    0 -0.10282094125E+02  0.20667418824E+02 -0.28686527295E+02  0.54367075125E+02  0.39999979362E+02 0.  0.
        -12    1    3    3    0    0  0.10282094125E+02 -0.20667418824E+02  0.28686527295E+02  0.36820924875E+02  0.00000000000E+00 0.  1.
         11    1    4    4    0    0 -0.90194543451E+00 -0.27699202580E+01 -0.16732216507E+01  0.33594098821E+01  0.51100000000E-03 0. -1.
        -11    1    4    4    0    0 -0.10476907152E+02  0.93927807463E+01 -0.32867171130E+02  0.35752494346E+02  0.51100000000E-03 0.  1.
        -12    1    4    4    0    0  0.10967584611E+01  0.14044558335E+02  0.58538654859E+01  0.15255170897E+02  0.00000000000E+00 0.  1.
</event>
<event>
 8    1  0.2433390E-006  0.9118800E+02  0.7816164E-02  0.1184000E+00
        -11   -1    0    0    0    0  0.00000000000E+00  0.00000000000E+00  0.45593999997E+02  0.45594000000E+02  0.51100000000E-03 0. -1.
         11   -1    0    0    0    0 -0.00000000000E+00 -0.00000000000E+00 -0.45593999997E+02  0.45594000000E+02  0.51100000000E-03 0.  1.
         23    2    1    2    0    0  0.17763568394E-14  0.71054273576E-14  0.00000000000E+00  0.91188000000E+02  0.91188000000E+02 0.  0.
    9900012    2    3    3    0    0  0.12390398915E+02 -0.32568657385E+02 -0.11897096083E+02  0.54367077628E+02  0.39999985068E+02 0.  0.
         12    1    3    3    0    0 -0.12390398915E+02  0.32568657385E+02  0.11897096083E+02  0.36820922372E+02  0.00000000000E+00 0. -1.
         11    1    4    4    0    0  0.87190306860E+01  0.14902249272E+01  0.47709674778E+01  0.10050094396E+02  0.51100000000E-03 0. -1.
        -11    1    4    4    0    0 -0.76035820378E+01 -0.56635856842E+01  0.68316635126E-01  0.94813147839E+01  0.51100000000E-03 0.  1.
        -12    1    4    4    0    0  0.11274950267E+02 -0.28395296628E+02 -0.16736380196E+02  0.34835668447E+02  0.00000000000E+00 0.  1.
</event>
<event>
 8    1  0.2433390E-006  0.9118800E+02  0.7816164E-02  0.1184000E+00
        -11   -1    0    0    0    0  0.00000000000E+00  0.00000000000E+00  0.45593999997E+02  0.45594000000E+02  0.51100000000E-03 0.  1.
         11   -1    0    0    0    0 -0.00000000000E+00 -0.00000000000E+00 -0.45593999997E+02  0.45594000000E+02  0.51100000000E-03 0. -1.
         23    2    1    2    0    0  0.00000000000E+00  0.17763568394E-14  0.00000000000E+00  0.91188000000E+02  0.91188000000E+02 0.  0.
    9900012    2    3    3    0    0  0.90257364059E+01  0.82149294890E+01  0.34739460083E+02  0.54367094647E+02  0.40000023866E+02 0.  0.
         12    1    3    3    0    0 -0.90257364059E+01 -0.82149294890E+01 -0.34739460083E+02  0.36820905353E+02  0.00000000000E+00 0. -1.
         11    1    4    4    0    0  0.58351688760E+01  0.18471426264E+01  0.96409350430E+01  0.11419665514E+02  0.51100000000E-03 0. -1.
        -11    1    4    4    0    0  0.18910261446E+01  0.10172839937E+02  0.32727225026E+02  0.34323955344E+02  0.51100000000E-03 0.  1.
         12    1    4    4    0    0  0.12995413854E+01 -0.38050530743E+01 -0.76286999861E+01  0.86234737889E+01  0.00000000000E+00 0. -1.
</event>
<event>
 8    1  0.2433390E-006  0.9118800E+02  0.7816164E-02  0.1184000E+00
        -11   -1    0    0    0    0  0.00000000000E+00  0.00000000000E+00  0.45593999997E+02  0.45594000000E+02  0.51100000000E-03 0. -1.
         11   -1    0    0    0    0 -0.00000000000E+00 -0.00000000000E+00 -0.45593999997E+02  0.45594000000E+02  0.51100000000E-03 0.  1.
         23    2    1    2    0    0  0.00000000000E+00  0.00000000000E+00  0.00000000000E+00  0.91188000000E+02  0.91188000000E+02 0.  0.
    9900012    2    3    3    0    0 -0.15636288964E+02  0.24452417167E+02  0.22657801633E+02  0.54366943351E+02  0.39999678957E+02 0.  0.
        -12    1    3    3    0    0  0.15636288964E+02 -0.24452417167E+02 -0.22657801633E+02  0.36821056649E+02  0.00000000000E+00 0.  1.
         11    1    4    4    0    0 -0.32514421547E+01  0.79337525193E+01  0.53241799035E+01  0.10092729910E+02  0.51100000000E-03 0. -1.
        -11    1    4    4    0    0 -0.24028916786E+02  0.16228167187E+02  0.13728469607E+02  0.32081351750E+02  0.51100000000E-03 0.  1.
        -12    1    4    4    0    0  0.11644069976E+02  0.29049746090E+00  0.36051521233E+01  0.12192861691E+02  0.00000000000E+00 0.  1.
</event>
<event>
 8    1  0.2433390E-006  0.9118800E+02  0.7816164E-02  0.1184000E+00
        -11   -1    0    0    0    0  0.00000000000E+00  0.00000000000E+00  0.45593999997E+02  0.45594000000E+02  0.51100000000E-03 0.  1.
         11   -1    0    0    0    0 -0.00000000000E+00 -0.00000000000E+00 -0.45593999997E+02  0.45594000000E+02  0.51100000000E-03 0. -1.
         23    2    1    2    0    0  0.00000000000E+00  0.00000000000E+00  0.00000000000E+00  0.91188000000E+02  0.91188000000E+02 0.  0.
    9900012    2    3    3    0    0 -0.21499699407E+01  0.98513761900E+01 -0.35413388234E+02  0.54367081356E+02  0.39999993567E+02 0.  0.
        -12    1    3    3    0    0  0.21499699407E+01 -0.98513761900E+01  0.35413388234E+02  0.36820918644E+02  0.00000000000E+00 0.  1.
         11    1    4    4    0    0 -0.24077046152E+00 -0.19910392454E+01 -0.95022493116E+01  0.97115884351E+01  0.51100000000E-03 0. -1.
        -11    1    4    4    0    0 -0.12011200495E+02  0.84670012901E+01  0.19532995772E+01  0.14824790983E+02  0.51100000000E-03 0.  1.
         12    1    4    4    0    0  0.10102001016E+02  0.33754141454E+01 -0.27864438500E+02  0.29830701938E+02  0.00000000000E+00 0. -1.
</event>
<event>
 8    1  0.2433390E-006  0.9118800E+02  0.7816164E-02  0.1184000E+00
        -11   -1    0    0    0    0  0.00000000000E+00  0.00000000000E+00  0.45593999997E+02  0.45594000000E+02  0.51100000000E-03 0.  1.
         11   -1    0    0    0    0 -0.00000000000E+00 -0.00000000000E+00 -0.45593999997E+02  0.45594000000E+02  0.51100000000E-03 0. -1.
         23    2    1    2    0    0  0.00000000000E+00 -0.35527136788E-14  0.35527136788E-14  0.91188000000E+02  0.91188000000E+02 0.  0.
    9900012    2    3    3    0    0 -0.82860082266E+01 -0.23575197234E+02  0.27043143495E+02  0.54367089269E+02  0.40000011606E+02 0.  0.
         12    1    3    3    0    0  0.82860082266E+01  0.23575197234E+02 -0.27043143495E+02  0.36820910731E+02  0.00000000000E+00 0. -1.
         11    1    4    4    0    0  0.11052890261E+01 -0.41289421059E+01  0.60126257581E+01  0.73770926193E+01  0.51100000000E-03 0. -1.
        -11    1    4    4    0    0 -0.59222963074E+01 -0.73426495237E+01  0.30053892142E+02  0.31499595692E+02  0.51100000000E-03 0.  1.
         12    1    4    4    0    0 -0.34690009453E+01 -0.12103605605E+02 -0.90233744047E+01  0.15490400958E+02  0.00000000000E+00 0. -1.
</event>
<event>
 8    1  0.2433390E-006  0.9118800E+02  0.7816164E-02  0.1184000E+00
        -11   -1    0    0    0    0  0.00000000000E+00  0.00000000000E+00  0.45593999997E+02  0.45594000000E+02  0.51100000000E-03 0. -1.
         11   -1    0    0    0    0 -0.00000000000E+00 -0.00000000000E+00 -0.45593999997E+02  0.45594000000E+02  0.51100000000E-03 0.  1.
         23    2    1    2    0    0  0.00000000000E+00 -0.15543122345E-14  0.00000000000E+00  0.91188000000E+02  0.91188000000E+02 0.  0.
    9900012    2    3    3    0    0  0.93313479732E+01  0.18931288350E+01 -0.35568555494E+02  0.54367080243E+02  0.39999991031E+02 0.  0.
         12    1    3    3    0    0 -0.93313479732E+01 -0.18931288350E+01  0.35568555494E+02  0.36820919757E+02  0.00000000000E+00 0. -1.
         11    1    4    4    0    0  0.36734633608E+01  0.90029669704E+01 -0.14561656199E+02  0.17509699565E+02  0.51100000000E-03 0.  1.
        -11    1    4    4    0    0 -0.70978295489E+01 -0.45019137028E+01 -0.22244129937E+02  0.23779144816E+02  0.51100000000E-03 0. -1.
         12    1    4    4    0    0  0.12755714161E+02 -0.26079244326E+01  0.12372306413E+01  0.13078235862E+02  0.00000000000E+00 0. -1.
</event>
<event>
 8    1  0.2433390E-006  0.9118800E+02  0.7816164E-02  0.1184000E+00
        -11   -1    0    0    0    0  0.00000000000E+00  0.00000000000E+00  0.45593999997E+02  0.45594000000E+02  0.51100000000E-03 0. -1.
         11   -1    0    0    0    0 -0.00000000000E+00 -0.00000000000E+00 -0.45593999997E+02  0.45594000000E+02  0.51100000000E-03 0.  1.
         23    2    1    2    0    0  0.35527136788E-14  0.00000000000E+00  0.35527136788E-14  0.91188000000E+02  0.91188000000E+02 0.  0.
    9900012    2    3    3    0    0  0.26103282188E+02  0.15328128752E+02  0.20963039315E+02  0.54367056376E+02  0.39999936620E+02 0.  0.
        -12    1    3    3    0    0 -0.26103282188E+02 -0.15328128752E+02 -0.20963039315E+02  0.36820943624E+02  0.00000000000E+00 0.  1.
         11    1    4    4    0    0  0.18224819487E+02 -0.71224890430E+01  0.13706255408E+01  0.19615109231E+02  0.51100000000E-03 0. -1.
        -11    1    4    4    0    0 -0.30481112548E+01  0.71263770432E+01  0.23680354599E+00  0.77545024446E+01  0.51100000000E-03 0.  1.
         12    1    4    4    0    0  0.10926573955E+02  0.15324240752E+02  0.19355610228E+02  0.26997444700E+02  0.00000000000E+00 0. -1.
</event>
<event>
 8    1  0.2433390E-006  0.9118800E+02  0.7816164E-02  0.1184000E+00
        -11   -1    0    0    0    0  0.00000000000E+00  0.00000000000E+00  0.45593999997E+02  0.45594000000E+02  0.51100000000E-03 0.  1.
         11   -1    0    0    0    0 -0.00000000000E+00 -0.00000000000E+00 -0.45593999997E+02  0.45594000000E+02  0.51100000000E-03 0. -1.
         23    2    1    2    0    0 -0.35527136788E-14  0.35527136788E-14  0.00000000000E+00  0.91188000000E+02  0.91188000000E+02 0.  0.
    9900012    2    3    3    0    0 -0.20726484252E+02 -0.20471767605E+02  0.22518882463E+02  0.54367075437E+02  0.39999980073E+02 0.  0.
        -12    1    3    3    0    0  0.20726484252E+02  0.20471767605E+02 -0.22518882463E+02  0.36820924563E+02  0.00000000000E+00 0.  1.
         11    1    4    4    0    0 -0.32293497560E+02 -0.14712526734E+02  0.13883599801E+02  0.38106203842E+02  0.51100000000E-03 0. -1.
        -11    1    4    4    0    0  0.49733239272E+01 -0.35258217343E+01  0.66502873490E+01  0.90217344160E+01  0.51100000000E-03 0.  1.
         12    1    4    4    0    0  0.65936893810E+01 -0.22334191374E+01  0.19849953127E+01  0.72391371784E+01  0.00000000000E+00 0. -1.
</event>
<event>
 8    1  0.2433390E-006  0.9118800E+02  0.7816164E-02  0.1184000E+00
        -11   -1    0    0    0    0  0.00000000000E+00  0.00000000000E+00  0.45593999997E+02  0.45594000000E+02  0.51100000000E-03 0.  1.
         11   -1    0    0    0    0 -0.00000000000E+00 -0.00000000000E+00 -0.45593999997E+02  0.45594000000E+02  0.51100000000E-03 0. -1.
         23    2    1    2    0    0 -0.35527136788E-14 -0.44408920985E-15  0.00000000000E+00  0.91188000000E+02  0.91188000000E+02 0.  0.
    9900012    2    3    3    0    0  0.31937815982E+02  0.38991038351E+01 -0.17903925003E+02  0.54367114202E+02  0.40000068446E+02 0.  0.
        -12    1    3    3    0    0 -0.31937815982E+02 -0.38991038351E+01  0.17903925003E+02  0.36820885798E+02  0.00000000000E+00 0.  1.
         11    1    4    4    0    0  0.23005307914E+01  0.16949548821E+01  0.20216390850E+01  0.35003341020E+01  0.51100000000E-03 0.  1.
        -11    1    4    4    0    0 -0.13931122849E+01 -0.25824910602E+01  0.82030773212E+01  0.87120892852E+01  0.51100000000E-03 0. -1.
         12    1    4    4    0    0  0.31030397476E+02  0.47866400132E+01 -0.28128641410E+02  0.42154690815E+02  0.00000000000E+00 0. -1.
</event>
<event>
 8    1  0.2433390E-006  0.9118800E+02  0.7816164E-02  0.1184000E+00
        -11   -1    0    0    0    0  0.00000000000E+00  0.00000000000E+00  0.45593999997E+02  0.45594000000E+02  0.51100000000E-03 0. -1.
         11   -1    0    0    0    0 -0.00000000000E+00 -0.00000000000E+00 -0.45593999997E+02  0.45594000000E+02  0.51100000000E-03 0.  1.
         23    2    1    2    0    0 -0.88817841970E-15  0.00000000000E+00 -0.35527136788E-14  0.91188000000E+02  0.91188000000E+02 0.  0.
    9900012    2    3    3    0    0 -0.56337407748E+01  0.25372541425E+02 -0.26082062395E+02  0.54367097346E+02  0.40000030019E+02 0.  0.
         12    1    3    3    0    0  0.56337407748E+01 -0.25372541425E+02  0.26082062395E+02  0.36820902654E+02  0.00000000000E+00 0. -1.
         11    1    4    4    0    0 -0.74073029324E+00  0.97571024773E+01  0.36904484896E+01  0.10457970187E+02  0.51100000000E-03 0. -1.
        -11    1    4    4    0    0 -0.13565691801E+02  0.18380436102E+02 -0.18340804101E+02  0.29295964238E+02  0.51100000000E-03 0.  1.
         12    1    4    4    0    0  0.86726813191E+01 -0.27649971541E+01 -0.11431706784E+02  0.14613162920E+02  0.00000000000E+00 0. -1.
</event>
<event>
 8    1  0.2433390E-006  0.9118800E+02  0.7816164E-02  0.1184000E+00
        -11   -1    0    0    0    0  0.00000000000E+00  0.00000000000E+00  0.45593999997E+02  0.45594000000E+02  0.51100000000E-03 0.  1.
         11   -1    0    0    0    0 -0.00000000000E+00 -0.00000000000E+00 -0.45593999997E+02  0.45594000000E+02  0.51100000000E-03 0. -1.
         23    2    1    2    0    0 -0.17763568394E-14  0.44408920985E-15  0.00000000000E+00  0.91188000000E+02  0.91188000000E+02 0.  0.
    9900012    2    3    3    0    0 -0.14150901288E+02 -0.32721245579E+01  0.33835239633E+02  0.54367105831E+02  0.40000049364E+02 0.  0.
         12    1    3    3    0    0  0.14150901288E+02  0.32721245579E+01 -0.33835239633E+02  0.36820894169E+02  0.00000000000E+00 0. -1.
         11    1    4    4    0    0 -0.48404865436E+01 -0.41724838198E+01  0.74409002289E+01  0.98085130210E+01  0.51100000000E-03 0. -1.
        -11    1    4    4    0    0 -0.19259226086E+02 -0.93119128531E+01  0.18376311489E+02  0.28201388877E+02  0.51100000000E-03 0.  1.
         12    1    4    4    0    0  0.99488113414E+01  0.10212272115E+02  0.80180279151E+01  0.16357203933E+02  0.00000000000E+00 0. -1.
</event>
<event>
 8    1  0.2433390E-006  0.9118800E+02  0.7816164E-02  0.1184000E+00
        -11   -1    0    0    0    0  0.00000000000E+00  0.00000000000E+00  0.45593999997E+02  0.45594000000E+02  0.51100000000E-03 0. -1.
         11   -1    0    0    0    0 -0.00000000000E+00 -0.00000000000E+00 -0.45593999997E+02  0.45594000000E+02  0.51100000000E-03 0.  1.
         23    2    1    2    0    0  0.35527136788E-14  0.00000000000E+00 -0.35527136788E-14  0.91188000000E+02  0.91188000000E+02 0.  0.
    9900012    2    3    3    0    0 -0.20692004069E+02 -0.20097055865E+02  0.22885162495E+02  0.54367063710E+02  0.39999953341E+02 0.  0.
        -12    1    3    3    0    0  0.20692004069E+02  0.20097055865E+02 -0.22885162495E+02  0.36820936290E+02  0.00000000000E+00 0.  1.
         11    1    4    4    0    0 -0.75031647912E+01 -0.15346663393E+02  0.25531757277E+02  0.30719508282E+02  0.51100000000E-03 0. -1.
        -11    1    4    4    0    0  0.31175358885E-01 -0.59818874312E+01  0.54533266079E+01  0.80946105834E+01  0.51100000000E-03 0.  1.
        -12    1    4    4    0    0 -0.13220014636E+02  0.12314949592E+01 -0.80999213901E+01  0.15552944845E+02  0.00000000000E+00 0.  1.
</event>
<event>
 8    1  0.2433390E-006  0.9118800E+02  0.7816164E-02  0.1184000E+00
        -11   -1    0    0    0    0  0.00000000000E+00  0.00000000000E+00  0.45593999997E+02  0.45594000000E+02  0.51100000000E-03 0. -1.
         11   -1    0    0    0    0 -0.00000000000E+00 -0.00000000000E+00 -0.45593999997E+02  0.45594000000E+02  0.51100000000E-03 0.  1.
         23    2    1    2    0    0  0.71054273576E-14 -0.13322676296E-14  0.00000000000E+00  0.91188000000E+02  0.91188000000E+02 0.  0.
    9900012    2    3    3    0    0 -0.33520170966E+02  0.17255753469E+01  0.15139421282E+02  0.54367061003E+02  0.39999947169E+02 0.  0.
        -12    1    3    3    0    0  0.33520170966E+02 -0.17255753469E+01 -0.15139421282E+02  0.36820938997E+02  0.00000000000E+00 0.  1.
         11    1    4    4    0    0 -0.14409607705E+02  0.86997131488E+01  0.29856704744E+01  0.17094912446E+02  0.51100000000E-03 0. -1.
        -11    1    4    4    0    0  0.67880425135E+01 -0.84881114497E+00  0.76811637575E+01  0.10285829012E+02  0.51100000000E-03 0.  1.
         12    1    4    4    0    0 -0.25898605774E+02 -0.61253266570E+01  0.44725870501E+01  0.26986319546E+02  0.00000000000E+00 0. -1.
</event>
<event>
 8    1  0.2433390E-006  0.9118800E+02  0.7816164E-02  0.1184000E+00
        -11   -1    0    0    0    0  0.00000000000E+00  0.00000000000E+00  0.45593999997E+02  0.45594000000E+02  0.51100000000E-03 0.  1.
         11   -1    0    0    0    0 -0.00000000000E+00 -0.00000000000E+00 -0.45593999997E+02  0.45594000000E+02  0.51100000000E-03 0. -1.
         23    2    1    2    0    0  0.00000000000E+00  0.00000000000E+00  0.13322676296E-14  0.91188000000E+02  0.91188000000E+02 0.  0.
    9900012    2    3    3    0    0 -0.25941835995E+02 -0.25939577361E+02  0.31548039868E+01  0.54366901203E+02  0.39999582870E+02 0.  0.
         12    1    3    3    0    0  0.25941835995E+02  0.25939577361E+02 -0.31548039868E+01  0.36821098797E+02  0.00000000000E+00 0. -1.
         11    1    4    4    0    0  0.53337572170E+01  0.52475195817E+01  0.26117962883E+01  0.79250809411E+01  0.51100000000E-03 0. -1.
        -11    1    4    4    0    0 -0.14350411509E+02 -0.18433427440E+02 -0.62587365461E+01  0.24184650940E+02  0.51100000000E-03 0.  1.
        -12    1    4    4    0    0 -0.16925181703E+02 -0.12753669503E+02  0.68017442446E+01  0.22257169322E+02  0.00000000000E+00 0.  1.
</event>
<event>
 8    1  0.2433390E-006  0.9118800E+02  0.7816164E-02  0.1184000E+00
        -11   -1    0    0    0    0  0.00000000000E+00  0.00000000000E+00  0.45593999997E+02  0.45594000000E+02  0.51100000000E-03 0.  1.
         11   -1    0    0    0    0 -0.00000000000E+00 -0.00000000000E+00 -0.45593999997E+02  0.45594000000E+02  0.51100000000E-03 0. -1.
         23    2    1    2    0    0  0.35527136788E-14  0.00000000000E+00 -0.17763568394E-14  0.91188000000E+02  0.91188000000E+02 0.  0.
    9900012    2    3    3    0    0  0.21875309029E+02 -0.26305046655E+02 -0.13612371869E+02  0.54367064481E+02  0.39999955097E+02 0.  0.
         12    1    3    3    0    0 -0.21875309029E+02  0.26305046655E+02  0.13612371869E+02  0.36820935519E+02  0.00000000000E+00 0. -1.
         11    1    4    4    0    0  0.23068499211E+02 -0.29097074995E+00 -0.78904788937E+01  0.24382370214E+02  0.51100000000E-03 0. -1.
        -11    1    4    4    0    0 -0.41307486910E+01 -0.94338590193E+01  0.33859048733E+01  0.10840900923E+02  0.51100000000E-03 0.  1.
        -12    1    4    4    0    0  0.29375585091E+01 -0.16580216886E+02 -0.91077978485E+01  0.19143793344E+02  0.00000000000E+00 0.  1.
</event>
<event>
 8    1  0.2433390E-006  0.9118800E+02  0.7816164E-02  0.1184000E+00
        -11   -1    0    0    0    0  0.00000000000E+00  0.00000000000E+00  0.45593999997E+02  0.45594000000E+02  0.51100000000E-03 0.  1.
         11   -1    0    0    0    0 -0.00000000000E+00 -0.00000000000E+00 -0.45593999997E+02  0.45594000000E+02  0.51100000000E-03 0. -1.
         23    2    1    2    0    0  0.00000000000E+00  0.00000000000E+00  0.00000000000E+00  0.91188000000E+02  0.91188000000E+02 0.  0.
    9900012    2    3    3    0    0 -0.13978072251E+02 -0.20703897535E+02 -0.27050713126E+02  0.54367096187E+02  0.40000027377E+02 0.  0.
        -12    1    3    3    0    0  0.13978072251E+02  0.20703897535E+02  0.27050713126E+02  0.36820903813E+02  0.00000000000E+00 0.  1.
         11    1    4    4    0    0 -0.10447117877E+02 -0.93791677897E+01  0.54658725793E+01  0.15066081896E+02  0.51100000000E-03 0. -1.
        -11    1    4    4    0    0 -0.29012958655E+01  0.40771104693E+01 -0.15747748614E+02  0.16523677985E+02  0.51100000000E-03 0.  1.
         12    1    4    4    0    0 -0.62965850810E+00 -0.15401840215E+02 -0.16768837091E+02  0.22777336307E+02  0.00000000000E+00 0. -1.
</event>
<event>
 8    1  0.2433390E-006  0.9118800E+02  0.7816164E-02  0.1184000E+00
        -11   -1    0    0    0    0  0.00000000000E+00  0.00000000000E+00  0.45593999997E+02  0.45594000000E+02  0.51100000000E-03 0.  1.
         11   -1    0    0    0    0 -0.00000000000E+00 -0.00000000000E+00 -0.45593999997E+02  0.45594000000E+02  0.51100000000E-03 0. -1.
         23    2    1    2    0    0  0.17763568394E-14  0.00000000000E+00  0.00000000000E+00  0.91188000000E+02  0.91188000000E+02 0.  0.
    9900012    2    3    3    0    0 -0.56796497317E+01  0.35944344693E+02 -0.56147361335E+01  0.54367087486E+02  0.40000007542E+02 0.  0.
        -12    1    3    3    0    0  0.56796497317E+01 -0.35944344693E+02  0.56147361335E+01  0.36820912514E+02  0.00000000000E+00 0.  1.
         11    1    4    4    0    0 -0.76177626574E+01  0.14115509201E+02 -0.65826039074E+01  0.17338067434E+02  0.51100000000E-03 0.  1.
        -11    1    4    4    0    0  0.12602072681E+02  0.11174665605E+02 -0.88628740666E+01  0.19032496532E+02  0.51100000000E-03 0. -1.
        -12    1    4    4    0    0 -0.10663959756E+02  0.10654169887E+02  0.98307418404E+01  0.17996523520E+02  0.00000000000E+00 0.  1.
</event>
<event>
 8    1  0.2433390E-006  0.9118800E+02  0.7816164E-02  0.1184000E+00
        -11   -1    0    0    0    0  0.00000000000E+00  0.00000000000E+00  0.45593999997E+02  0.45594000000E+02  0.51100000000E-03 0.  1.
         11   -1    0    0    0    0 -0.00000000000E+00 -0.00000000000E+00 -0.45593999997E+02  0.45594000000E+02  0.51100000000E-03 0. -1.
         23    2    1    2    0    0  0.00000000000E+00 -0.35527136788E-14  0.00000000000E+00  0.91188000000E+02  0.91188000000E+02 0.  0.
    9900012    2    3    3    0    0  0.11586721036E+02  0.28520665400E+02  0.20201470107E+02  0.54367084019E+02  0.39999999639E+02 0.  0.
         12    1    3    3    0    0 -0.11586721036E+02 -0.28520665400E+02 -0.20201470107E+02  0.36820915981E+02  0.00000000000E+00 0. -1.
         11    1    4    4    0    0  0.12531192428E+01  0.89722300537E+01 -0.17942290837E+01  0.92352844157E+01  0.51100000000E-03 0. -1.
        -11    1    4    4    0    0 -0.87627620693E+01  0.17607222162E+02  0.73814979152E+01  0.21006827058E+02  0.51100000000E-03 0.  1.
        -12    1    4    4    0    0  0.19096363862E+02  0.19412131842E+01  0.14614201275E+02  0.24124972545E+02  0.00000000000E+00 0.  1.
</event>
<event>
 8    1  0.2433390E-006  0.9118800E+02  0.7816164E-02  0.1184000E+00
        -11   -1    0    0    0    0  0.00000000000E+00  0.00000000000E+00  0.45593999997E+02  0.45594000000E+02  0.51100000000E-03 0.  1.
         11   -1    0    0    0    0 -0.00000000000E+00 -0.00000000000E+00 -0.45593999997E+02  0.45594000000E+02  0.51100000000E-03 0. -1.
         23    2    1    2    0    0  0.17763568394E-14  0.00000000000E+00  0.00000000000E+00  0.91188000000E+02  0.91188000000E+02 0.  0.
    9900012    2    3    3    0    0 -0.10837793664E+02 -0.32353386798E+02 -0.13841270097E+02  0.54367079769E+02  0.39999989948E+02 0.  0.
        -12    1    3    3    0    0  0.10837793664E+02  0.32353386798E+02  0.13841270097E+02  0.36820920231E+02  0.00000000000E+00 0.  1.
         11    1    4    4    0    0 -0.13349182604E+01 -0.68280530476E+01 -0.13365753658E+02  0.15068101616E+02  0.51100000000E-03 0. -1.
        -11    1    4    4    0    0 -0.13006018576E+02 -0.27900289504E+02  0.61941166903E+01  0.31399836870E+02  0.51100000000E-03 0.  1.
        -12    1    4    4    0    0  0.35031431732E+01  0.23749557542E+01 -0.66696331293E+01  0.78991412828E+01  0.00000000000E+00 0.  1.
</event>
<event>
 8    1  0.2433390E-006  0.9118800E+02  0.7816164E-02  0.1184000E+00
        -11   -1    0    0    0    0  0.00000000000E+00  0.00000000000E+00  0.45593999997E+02  0.45594000000E+02  0.51100000000E-03 0.  1.
         11   -1    0    0    0    0 -0.00000000000E+00 -0.00000000000E+00 -0.45593999997E+02  0.45594000000E+02  0.51100000000E-03 0. -1.
         23    2    1    2    0    0  0.00000000000E+00  0.00000000000E+00  0.13322676296E-14  0.91188000000E+02  0.91188000000E+02 0.  0.
    9900012    2    3    3    0    0  0.22083133492E+02 -0.29369578581E+02 -0.23542847923E+01  0.54367087630E+02  0.40000007870E+02 0.  0.
         12    1    3    3    0    0 -0.22083133492E+02  0.29369578581E+02  0.23542847923E+01  0.36820912370E+02  0.00000000000E+00 0. -1.
         11    1    4    4    0    0  0.79005040243E+01  0.24389526495E+01 -0.10420444870E+02  0.13302335337E+02  0.51100000000E-03 0. -1.
        -11    1    4    4    0    0  0.16468240400E+02 -0.33365155142E+02  0.61808574805E+01  0.37717893883E+02  0.51100000000E-03 0.  1.
        -12    1    4    4    0    0 -0.22856109323E+01  0.15566239109E+01  0.18853025974E+01  0.33468584101E+01  0.00000000000E+00 0.  1.
</event>
<event>
 8    1  0.2433390E-006  0.9118800E+02  0.7816164E-02  0.1184000E+00
        -11   -1    0    0    0    0  0.00000000000E+00  0.00000000000E+00  0.45593999997E+02  0.45594000000E+02  0.51100000000E-03 0.  1.
         11   -1    0    0    0    0 -0.00000000000E+00 -0.00000000000E+00 -0.45593999997E+02  0.45594000000E+02  0.51100000000E-03 0. -1.
         23    2    1    2    0    0  0.17763568394E-14  0.00000000000E+00  0.00000000000E+00  0.91188000000E+02  0.91188000000E+02 0.  0.
    9900012    2    3    3    0    0  0.13499336371E+02  0.27871598990E+02  0.19917887536E+02  0.54367077189E+02  0.39999984069E+02 0.  0.
         12    1    3    3    0    0 -0.13499336371E+02 -0.27871598990E+02 -0.19917887536E+02  0.36820922811E+02  0.00000000000E+00 0. -1.
         11    1    4    4    0    0  0.12073419725E+02  0.42208062360E+01  0.11178226125E+02  0.16986330053E+02  0.51100000000E-03 0. -1.
        -11    1    4    4    0    0  0.50689774613E+01  0.27410922989E+01  0.14318914355E+02  0.15435006578E+02  0.51100000000E-03 0.  1.
        -12    1    4    4    0    0 -0.36430608150E+01  0.20909700455E+02 -0.55792529438E+01  0.21945740558E+02  0.00000000000E+00 0.  1.
</event>
<event>
 8    1  0.2433390E-006  0.9118800E+02  0.7816164E-02  0.1184000E+00
        -11   -1    0    0    0    0  0.00000000000E+00  0.00000000000E+00  0.45593999997E+02  0.45594000000E+02  0.51100000000E-03 0. -1.
         11   -1    0    0    0    0 -0.00000000000E+00 -0.00000000000E+00 -0.45593999997E+02  0.45594000000E+02  0.51100000000E-03 0.  1.
         23    2    1    2    0    0 -0.35527136788E-14  0.35527136788E-14  0.00000000000E+00  0.91188000000E+02  0.91188000000E+02 0.  0.
    9900012    2    3    3    0    0 -0.14162487267E+02  0.24406644655E+02 -0.23654170044E+02  0.54367080547E+02  0.39999991722E+02 0.  0.
         12    1    3    3    0    0  0.14162487267E+02 -0.24406644655E+02  0.23654170044E+02  0.36820919453E+02  0.00000000000E+00 0. -1.
         11    1    4    4    0    0  0.43319889917E+01  0.10963496813E+02 -0.11997450894E+02  0.16819727085E+02  0.51100000000E-03 0. -1.
        -11    1    4    4    0    0 -0.10078085644E+02  0.19555947199E+02 -0.14993272448E+02  0.26623318728E+02  0.51100000000E-03 0.  1.
         12    1    4    4    0    0 -0.84163906143E+01 -0.61127993575E+01  0.33365532978E+01  0.10924034734E+02  0.00000000000E+00 0. -1.
</event>
<event>
 8    1  0.2433390E-006  0.9118800E+02  0.7816164E-02  0.1184000E+00
        -11   -1    0    0    0    0  0.00000000000E+00  0.00000000000E+00  0.45593999997E+02  0.45594000000E+02  0.51100000000E-03 0. -1.
         11   -1    0    0    0    0 -0.00000000000E+00 -0.00000000000E+00 -0.45593999997E+02  0.45594000000E+02  0.51100000000E-03 0.  1.
         23    2    1    2    0    0  0.00000000000E+00  0.71054273576E-14  0.00000000000E+00  0.91188000000E+02  0.91188000000E+02 0.  0.
    9900012    2    3    3    0    0  0.25676354235E+02 -0.22984948213E+02  0.12969093634E+02  0.54367076589E+02  0.39999982700E+02 0.  0.
        -12    1    3    3    0    0 -0.25676354235E+02  0.22984948213E+02 -0.12969093634E+02  0.36820923411E+02  0.00000000000E+00 0.  1.
         11    1    4    4    0    0  0.21018690683E+02  0.28455485075E+01 -0.42037731022E+01  0.21623001940E+02  0.51100000000E-03 0. -1.
        -11    1    4    4    0    0 -0.10387618035E+01 -0.12842163993E+02  0.42779759817E+01  0.13575760784E+02  0.51100000000E-03 0.  1.
         12    1    4    4    0    0  0.56964253561E+01 -0.12988332728E+02  0.12894890754E+02  0.19168313866E+02  0.00000000000E+00 0. -1.
</event>
<event>
 8    1  0.2433390E-006  0.9118800E+02  0.7816164E-02  0.1184000E+00
        -11   -1    0    0    0    0  0.00000000000E+00  0.00000000000E+00  0.45593999997E+02  0.45594000000E+02  0.51100000000E-03 0.  1.
         11   -1    0    0    0    0 -0.00000000000E+00 -0.00000000000E+00 -0.45593999997E+02  0.45594000000E+02  0.51100000000E-03 0. -1.
         23    2    1    2    0    0  0.00000000000E+00  0.00000000000E+00  0.00000000000E+00  0.91188000000E+02  0.91188000000E+02 0.  0.
    9900012    2    3    3    0    0 -0.18125834123E+02  0.31297384482E+02 -0.69070304679E+01  0.54367092787E+02  0.40000019627E+02 0.  0.
        -12    1    3    3    0    0  0.18125834123E+02 -0.31297384482E+02  0.69070304679E+01  0.36820907213E+02  0.00000000000E+00 0.  1.
         11    1    4    4    0    0 -0.99584422984E+01  0.18056405770E+02 -0.12084642690E+02  0.23900689353E+02  0.51100000000E-03 0. -1.
        -11    1    4    4    0    0  0.25124448707E+01  0.14413354605E+02  0.10945683623E+02  0.18271977463E+02  0.51100000000E-03 0.  1.
        -12    1    4    4    0    0 -0.10679836695E+02 -0.11723758930E+01 -0.57680714002E+01  0.12194425970E+02  0.00000000000E+00 0.  1.
</event>
<event>
 8    1  0.2433390E-006  0.9118800E+02  0.7816164E-02  0.1184000E+00
        -11   -1    0    0    0    0  0.00000000000E+00  0.00000000000E+00  0.45593999997E+02  0.45594000000E+02  0.51100000000E-03 0.  1.
         11   -1    0    0    0    0 -0.00000000000E+00 -0.00000000000E+00 -0.45593999997E+02  0.45594000000E+02  0.51100000000E-03 0. -1.
         23    2    1    2    0    0  0.00000000000E+00  0.00000000000E+00  0.00000000000E+00  0.91188000000E+02  0.91188000000E+02 0.  0.
    9900012    2    3    3    0    0  0.10117056017E+02  0.85378943146E+01  0.34358836833E+02  0.54367080262E+02  0.39999991074E+02 0.  0.
         12    1    3    3    0    0 -0.10117056017E+02 -0.85378943146E+01 -0.34358836833E+02  0.36820919738E+02  0.00000000000E+00 0. -1.
         11    1    4    4    0    0  0.42490127872E+01 -0.21767967615E+01  0.35022951379E+01  0.59210324522E+01  0.51100000000E-03 0. -1.
        -11    1    4    4    0    0  0.14847872387E+02 -0.53587607233E+01  0.47205660741E+01  0.16476024255E+02  0.51100000000E-03 0.  1.
        -12    1    4    4    0    0 -0.89798291575E+01  0.16073451799E+02  0.26135975622E+02  0.31970023555E+02  0.00000000000E+00 0.  1.
</event>
<event>
 8    1  0.2433390E-006  0.9118800E+02  0.7816164E-02  0.1184000E+00
        -11   -1    0    0    0    0  0.00000000000E+00  0.00000000000E+00  0.45593999997E+02  0.45594000000E+02  0.51100000000E-03 0. -1.
         11   -1    0    0    0    0 -0.00000000000E+00 -0.00000000000E+00 -0.45593999997E+02  0.45594000000E+02  0.51100000000E-03 0.  1.
         23    2    1    2    0    0  0.44408920985E-15  0.71054273576E-14  0.17763568394E-14  0.91188000000E+02  0.91188000000E+02 0.  0.
    9900012    2    3    3    0    0 -0.38494665015E+01  0.33451935754E+02  0.14897303535E+02  0.54367081344E+02  0.39999993540E+02 0.  0.
        -12    1    3    3    0    0  0.38494665015E+01 -0.33451935754E+02 -0.14897303535E+02  0.36820918656E+02  0.00000000000E+00 0.  1.
         11    1    4    4    0    0  0.22010522121E+01  0.24432672724E+02  0.16991144550E+02  0.29841231890E+02  0.51100000000E-03 0. -1.
        -11    1    4    4    0    0  0.31205636809E+01  0.30747471402E+01  0.83370109552E+01  0.94179477378E+01  0.51100000000E-03 0.  1.
        -12    1    4    4    0    0 -0.91710823945E+01  0.59445158896E+01 -0.10430851971E+02  0.15107901717E+02  0.00000000000E+00 0.  1.
</event>
<event>
 8    1  0.2433390E-006  0.9118800E+02  0.7816164E-02  0.1184000E+00
        -11   -1    0    0    0    0  0.00000000000E+00  0.00000000000E+00  0.45593999997E+02  0.45594000000E+02  0.51100000000E-03 0. -1.
         11   -1    0    0    0    0 -0.00000000000E+00 -0.00000000000E+00 -0.45593999997E+02  0.45594000000E+02  0.51100000000E-03 0.  1.
         23    2    1    2    0    0 -0.17763568394E-14 -0.71054273576E-14  0.35527136788E-14  0.91188000000E+02  0.91188000000E+02 0.  0.
    9900012    2    3    3    0    0 -0.14392359997E+02 -0.25057778445E+02  0.22819894798E+02  0.54367083587E+02  0.39999998654E+02 0.  0.
        -12    1    3    3    0    0  0.14392359997E+02  0.25057778445E+02 -0.22819894798E+02  0.36820916413E+02  0.00000000000E+00 0.  1.
         11    1    4    4    0    0  0.36641726114E+01  0.17852153005E+01  0.41646533855E+01  0.58273057821E+01  0.51100000000E-03 0.  1.
        -11    1    4    4    0    0 -0.25800024183E+02 -0.16380614750E+02  0.18085012018E+02  0.35511032755E+02  0.51100000000E-03 0. -1.
         12    1    4    4    0    0  0.77434915742E+01 -0.10462378996E+02  0.57022939414E+00  0.13028745050E+02  0.00000000000E+00 0. -1.
</event>
<event>
 8    1  0.2433390E-006  0.9118800E+02  0.7816164E-02  0.1184000E+00
        -11   -1    0    0    0    0  0.00000000000E+00  0.00000000000E+00  0.45593999997E+02  0.45594000000E+02  0.51100000000E-03 0.  1.
         11   -1    0    0    0    0 -0.00000000000E+00 -0.00000000000E+00 -0.45593999997E+02  0.45594000000E+02  0.51100000000E-03 0. -1.
         23    2    1    2    0    0 -0.17763568394E-14  0.35527136788E-14  0.00000000000E+00  0.91188000000E+02  0.91188000000E+02 0.  0.
    9900012    2    3    3    0    0  0.15177755280E+02  0.28274919974E+02 -0.18053933702E+02  0.54367083702E+02  0.39999998915E+02 0.  0.
        -12    1    3    3    0    0 -0.15177755280E+02 -0.28274919974E+02  0.18053933702E+02  0.36820916298E+02  0.00000000000E+00 0.  1.
         11    1    4    4    0    0  0.85668048494E+01  0.26350163784E+01  0.10588005334E+01  0.90252155361E+01  0.51100000000E-03 0. -1.
        -11    1    4    4    0    0  0.69905102312E+01  0.14143853819E+02 -0.27086252538E+02  0.31346146669E+02  0.51100000000E-03 0.  1.
        -12    1    4    4    0    0 -0.37955980035E+00  0.11496049777E+02  0.79735183022E+01  0.13995721497E+02  0.00000000000E+00 0.  1.
</event>
<event>
 8    1  0.2433390E-006  0.9118800E+02  0.7816164E-02  0.1184000E+00
        -11   -1    0    0    0    0  0.00000000000E+00  0.00000000000E+00  0.45593999997E+02  0.45594000000E+02  0.51100000000E-03 0.  1.
         11   -1    0    0    0    0 -0.00000000000E+00 -0.00000000000E+00 -0.45593999997E+02  0.45594000000E+02  0.51100000000E-03 0. -1.
         23    2    1    2    0    0  0.00000000000E+00  0.00000000000E+00  0.00000000000E+00  0.91188000000E+02  0.91188000000E+02 0.  0.
    9900012    2    3    3    0    0  0.22023878194E+02 -0.13976122828E+02  0.25988393148E+02  0.54367084769E+02  0.40000001349E+02 0.  0.
         12    1    3    3    0    0 -0.22023878194E+02  0.13976122828E+02 -0.25988393148E+02  0.36820915231E+02  0.00000000000E+00 0. -1.
         11    1    4    4    0    0  0.22144144609E+02 -0.92901396324E+01  0.27283073556E+02  0.36346058077E+02  0.51100000000E-03 0. -1.
        -11    1    4    4    0    0  0.31410616233E+01 -0.77706880568E+01  0.53928230088E+01  0.99665641654E+01  0.51100000000E-03 0.  1.
         12    1    4    4    0    0 -0.32613280385E+01  0.30847048615E+01 -0.66875034160E+01  0.80544625269E+01  0.00000000000E+00 0. -1.
</event>
<event>
 8    1  0.2433390E-006  0.9118800E+02  0.7816164E-02  0.1184000E+00
        -11   -1    0    0    0    0  0.00000000000E+00  0.00000000000E+00  0.45593999997E+02  0.45594000000E+02  0.51100000000E-03 0. -1.
         11   -1    0    0    0    0 -0.00000000000E+00 -0.00000000000E+00 -0.45593999997E+02  0.45594000000E+02  0.51100000000E-03 0.  1.
         23    2    1    2    0    0  0.00000000000E+00  0.13322676296E-14  0.71054273576E-14  0.91188000000E+02  0.91188000000E+02 0.  0.
    9900012    2    3    3    0    0  0.11550096333E+02 -0.35905329157E+01 -0.34777664203E+02  0.54367047006E+02  0.39999915260E+02 0.  0.
         12    1    3    3    0    0 -0.11550096333E+02  0.35905329157E+01  0.34777664203E+02  0.36820952994E+02  0.00000000000E+00 0. -1.
         11    1    4    4    0    0 -0.10177317410E+02 -0.40612865261E+01 -0.50985332087E+01  0.12085813131E+02  0.51100000000E-03 0. -1.
        -11    1    4    4    0    0  0.12931399496E+02 -0.97545607217E+01 -0.12618645937E+02  0.20532967962E+02  0.51100000000E-03 0.  1.
        -12    1    4    4    0    0  0.87960142466E+01  0.10225314332E+02 -0.17060485058E+02  0.21748265913E+02  0.00000000000E+00 0.  1.
</event>
<event>
 8    1  0.2433390E-006  0.9118800E+02  0.7816164E-02  0.1184000E+00
        -11   -1    0    0    0    0  0.00000000000E+00  0.00000000000E+00  0.45593999997E+02  0.45594000000E+02  0.51100000000E-03 0. -1.
         11   -1    0    0    0    0 -0.00000000000E+00 -0.00000000000E+00 -0.45593999997E+02  0.45594000000E+02  0.51100000000E-03 0.  1.
         23    2    1    2    0    0  0.00000000000E+00  0.00000000000E+00  0.00000000000E+00  0.91188000000E+02  0.91188000000E+02 0.  0.
    9900012    2    3    3    0    0 -0.19629487638E+02 -0.21284824930E+02  0.22746847750E+02  0.54367086923E+02  0.40000006259E+02 0.  0.
        -12    1    3    3    0    0  0.19629487638E+02  0.21284824930E+02 -0.22746847750E+02  0.36820913077E+02  0.00000000000E+00 0.  1.
         11    1    4    4    0    0  0.38748193262E+01 -0.17937358048E+02  0.51285940387E+01  0.19054278145E+02  0.51100000000E-03 0. -1.
        -11    1    4    4    0    0 -0.17540325286E+02 -0.10656612363E+01  0.11043797629E+01  0.17607336538E+02  0.51100000000E-03 0.  1.
         12    1    4    4    0    0 -0.59639816781E+01 -0.22818056452E+01  0.16513873949E+02  0.17705472240E+02  0.00000000000E+00 0. -1.
</event>
<event>
 8    1  0.2433390E-006  0.9118800E+02  0.7816164E-02  0.1184000E+00
        -11   -1    0    0    0    0  0.00000000000E+00  0.00000000000E+00  0.45593999997E+02  0.45594000000E+02  0.51100000000E-03 0.  1.
         11   -1    0    0    0    0 -0.00000000000E+00 -0.00000000000E+00 -0.45593999997E+02  0.45594000000E+02  0.51100000000E-03 0. -1.
         23    2    1    2    0    0  0.00000000000E+00  0.17763568394E-14 -0.88817841970E-15  0.91188000000E+02  0.91188000000E+02 0.  0.
    9900012    2    3    3    0    0 -0.32933348116E+02  0.14887159414E+02 -0.70389110435E+01  0.54367092865E+02  0.40000019805E+02 0.  0.
        -12    1    3    3    0    0  0.32933348116E+02 -0.14887159414E+02  0.70389110435E+01  0.36820907135E+02  0.00000000000E+00 0.  1.
         11    1    4    4    0    0 -0.33609828735E+02 -0.12546975127E+01 -0.27995322763E+01  0.33749551622E+02  0.51100000000E-03 0. -1.
        -11    1    4    4    0    0 -0.20138000248E+01  0.33544617774E+01  0.36521349287E+01  0.53521859230E+01  0.51100000000E-03 0.  1.
         12    1    4    4    0    0  0.26902806441E+01  0.12787395149E+02 -0.78915136959E+01  0.15265355320E+02  0.00000000000E+00 0. -1.
</event>
<event>
 8    1  0.2433390E-006  0.9118800E+02  0.7816164E-02  0.1184000E+00
        -11   -1    0    0    0    0  0.00000000000E+00  0.00000000000E+00  0.45593999997E+02  0.45594000000E+02  0.51100000000E-03 0. -1.
         11   -1    0    0    0    0 -0.00000000000E+00 -0.00000000000E+00 -0.45593999997E+02  0.45594000000E+02  0.51100000000E-03 0.  1.
         23    2    1    2    0    0  0.00000000000E+00 -0.71054273576E-14  0.00000000000E+00  0.91188000000E+02  0.91188000000E+02 0.  0.
    9900012    2    3    3    0    0 -0.27580856251E+02  0.22339038270E+02 -0.98002417781E+01  0.54367068435E+02  0.39999964111E+02 0.  0.
         12    1    3    3    0    0  0.27580856251E+02 -0.22339038270E+02  0.98002417781E+01  0.36820931565E+02  0.00000000000E+00 0. -1.
         11    1    4    4    0    0 -0.33693416301E+01  0.18604972832E+01  0.88029627820E+01  0.96076046527E+01  0.51100000000E-03 0. -1.
        -11    1    4    4    0    0  0.51182681586E+01  0.81775731652E+00 -0.40081885656E+01  0.65521730601E+01  0.51100000000E-03 0.  1.
        -12    1    4    4    0    0 -0.29329782780E+02  0.19660783670E+02 -0.14595015995E+02  0.38207290722E+02  0.00000000000E+00 0.  1.
</event>
<event>
 8    1  0.2433390E-006  0.9118800E+02  0.7816164E-02  0.1184000E+00
        -11   -1    0    0    0    0  0.00000000000E+00  0.00000000000E+00  0.45593999997E+02  0.45594000000E+02  0.51100000000E-03 0. -1.
         11   -1    0    0    0    0 -0.00000000000E+00 -0.00000000000E+00 -0.45593999997E+02  0.45594000000E+02  0.51100000000E-03 0.  1.
         23    2    1    2    0    0 -0.10658141036E-13  0.00000000000E+00  0.00000000000E+00  0.91188000000E+02  0.91188000000E+02 0.  0.
    9900012    2    3    3    0    0 -0.30530071053E+02 -0.10857560723E+02  0.17487612301E+02  0.54366967324E+02  0.39999733607E+02 0.  0.
        -12    1    3    3    0    0  0.30530071053E+02  0.10857560723E+02 -0.17487612301E+02  0.36821032676E+02  0.00000000000E+00 0.  1.
         11    1    4    4    0    0 -0.26886997423E+02 -0.12826394018E+02  0.20678706354E+02  0.36263423869E+02  0.51100000000E-03 0. -1.
        -11    1    4    4    0    0  0.11575244589E+01  0.90556054581E+01 -0.27416376018E+01  0.95320737559E+01  0.51100000000E-03 0.  1.
        -12    1    4    4    0    0 -0.48005980888E+01 -0.70867721629E+01 -0.44945645143E+00  0.85714696991E+01  0.00000000000E+00 0.  1.
</event>
<event>
 8    1  0.2433390E-006  0.9118800E+02  0.7816164E-02  0.1184000E+00
        -11   -1    0    0    0    0  0.00000000000E+00  0.00000000000E+00  0.45593999997E+02  0.45594000000E+02  0.51100000000E-03 0.  1.
         11   -1    0    0    0    0 -0.00000000000E+00 -0.00000000000E+00 -0.45593999997E+02  0.45594000000E+02  0.51100000000E-03 0. -1.
         23    2    1    2    0    0  0.00000000000E+00  0.35527136788E-14  0.17763568394E-14  0.91188000000E+02  0.91188000000E+02 0.  0.
    9900012    2    3    3    0    0  0.34565386710E+02 -0.11944075443E+02  0.42841900972E+01  0.54367065989E+02  0.39999958536E+02 0.  0.
        -12    1    3    3    0    0 -0.34565386710E+02  0.11944075443E+02 -0.42841900972E+01  0.36820934011E+02  0.00000000000E+00 0.  1.
         11    1    4    4    0    0  0.17993410662E+02  0.30472202675E+01 -0.11437001912E+02  0.21537255898E+02  0.51100000000E-03 0. -1.
        -11    1    4    4    0    0  0.72984979854E+01 -0.14617770800E+01  0.14601199889E+02  0.16389017772E+02  0.51100000000E-03 0.  1.
        -12    1    4    4    0    0  0.92734780628E+01 -0.13529518630E+02  0.11199921200E+01  0.16440792319E+02  0.00000000000E+00 0.  1.
</event>
<event>
 8    1  0.2433390E-006  0.9118800E+02  0.7816164E-02  0.1184000E+00
        -11   -1    0    0    0    0  0.00000000000E+00  0.00000000000E+00  0.45593999997E+02  0.45594000000E+02  0.51100000000E-03 0.  1.
         11   -1    0    0    0    0 -0.00000000000E+00 -0.00000000000E+00 -0.45593999997E+02  0.45594000000E+02  0.51100000000E-03 0. -1.
         23    2    1    2    0    0 -0.17763568394E-14 -0.17763568394E-14  0.35527136788E-14  0.91188000000E+02  0.91188000000E+02 0.  0.
    9900012    2    3    3    0    0  0.92617873281E+01  0.15920491246E+02 -0.31883131165E+02  0.54367125501E+02  0.40000094204E+02 0.  0.
        -12    1    3    3    0    0 -0.92617873281E+01 -0.15920491246E+02  0.31883131165E+02  0.36820874499E+02  0.00000000000E+00 0.  1.
         11    1    4    4    0    0  0.28144444674E+01  0.69510255223E+01 -0.35309600863E+02  0.36097171175E+02  0.51100000000E-03 0. -1.
        -11    1    4    4    0    0  0.39315883665E+00  0.58920695144E+01 -0.47945729931E+01  0.76065095465E+01  0.51100000000E-03 0.  1.
        -12    1    4    4    0    0  0.60541840241E+01  0.30773962089E+01  0.82210426917E+01  0.10663444779E+02  0.00000000000E+00 0.  1.
</event>
<event>
 8    1  0.2433390E-006  0.9118800E+02  0.7816164E-02  0.1184000E+00
        -11   -1    0    0    0    0  0.00000000000E+00  0.00000000000E+00  0.45593999997E+02  0.45594000000E+02  0.51100000000E-03 0.  1.
         11   -1    0    0    0    0 -0.00000000000E+00 -0.00000000000E+00 -0.45593999997E+02  0.45594000000E+02  0.51100000000E-03 0. -1.
         23    2    1    2    0    0  0.44408920985E-15  0.13877787808E-15  0.71054273576E-14  0.91188000000E+02  0.91188000000E+02 0.  0.
    9900012    2    3    3    0    0 -0.33833174941E+01  0.16675771070E+00 -0.36664770973E+02  0.54367081001E+02  0.39999992758E+02 0.  0.
        -12    1    3    3    0    0  0.33833174941E+01 -0.16675771070E+00  0.36664770973E+02  0.36820918999E+02  0.00000000000E+00 0.  1.
         11    1    4    4    0    0  0.81228771758E+01 -0.11194115139E+02 -0.19969496775E+02  0.24291359555E+02  0.51100000000E-03 0. -1.
        -11    1    4    4    0    0  0.45746152837E+01  0.25732855981E+00 -0.67248734551E+01  0.81373980011E+01  0.51100000000E-03 0.  1.
         12    1    4    4    0    0 -0.16080809954E+02  0.11103544290E+02 -0.99704007438E+01  0.21938323444E+02  0.00000000000E+00 0. -1.
</event>
<event>
 8    1  0.2433390E-006  0.9118800E+02  0.7816164E-02  0.1184000E+00
        -11   -1    0    0    0    0  0.00000000000E+00  0.00000000000E+00  0.45593999997E+02  0.45594000000E+02  0.51100000000E-03 0. -1.
         11   -1    0    0    0    0 -0.00000000000E+00 -0.00000000000E+00 -0.45593999997E+02  0.45594000000E+02  0.51100000000E-03 0.  1.
         23    2    1    2    0    0  0.00000000000E+00  0.44408920985E-15  0.00000000000E+00  0.91188000000E+02  0.91188000000E+02 0.  0.
    9900012    2    3    3    0    0  0.33347617595E+02  0.12102606399E+01 -0.15564421348E+02  0.54367088252E+02  0.40000009288E+02 0.  0.
        -12    1    3    3    0    0 -0.33347617595E+02 -0.12102606399E+01  0.15564421348E+02  0.36820911748E+02  0.00000000000E+00 0.  1.
         11    1    4    4    0    0 -0.63713799179E+01 -0.46897488267E+00 -0.46192427985E+01  0.78836427996E+01  0.51100000000E-03 0. -1.
        -11    1    4    4    0    0  0.30798883151E+02  0.10116407786E+02 -0.10912497163E+02  0.34205197039E+02  0.51100000000E-03 0.  1.
        -12    1    4    4    0    0  0.89201143613E+01 -0.84371722639E+01 -0.32681386797E-01  0.12278248413E+02  0.00000000000E+00 0.  1.
</event>
<event>
 8    1  0.2433390E-006  0.9118800E+02  0.7816164E-02  0.1184000E+00
        -11   -1    0    0    0    0  0.00000000000E+00  0.00000000000E+00  0.45593999997E+02  0.45594000000E+02  0.51100000000E-03 0. -1.
         11   -1    0    0    0    0 -0.00000000000E+00 -0.00000000000E+00 -0.45593999997E+02  0.45594000000E+02  0.51100000000E-03 0.  1.
         23    2    1    2    0    0  0.00000000000E+00  0.17763568394E-14 -0.88817841970E-15  0.91188000000E+02  0.91188000000E+02 0.  0.
    9900012    2    3    3    0    0  0.33677399980E+02 -0.13948019189E+02  0.52025320096E+01  0.54367070516E+02  0.39999968856E+02 0.  0.
        -12    1    3    3    0    0 -0.33677399980E+02  0.13948019189E+02 -0.52025320096E+01  0.36820929484E+02  0.00000000000E+00 0.  1.
         11    1    4    4    0    0  0.63845311450E+01  0.24639508337E+00  0.59405161633E+01  0.87242581935E+01  0.51100000000E-03 0. -1.
        -11    1    4    4    0    0  0.15737689901E+02 -0.12898137898E+02  0.15564726894E+02  0.25618305334E+02  0.51100000000E-03 0.  1.
        -12    1    4    4    0    0  0.11555178934E+02 -0.12962763748E+01 -0.16302711048E+02  0.20024506989E+02  0.00000000000E+00 0.  1.
</event>
<event>
 8    1  0.2433390E-006  0.9118800E+02  0.7816164E-02  0.1184000E+00
        -11   -1    0    0    0    0  0.00000000000E+00  0.00000000000E+00  0.45593999997E+02  0.45594000000E+02  0.51100000000E-03 0.  1.
         11   -1    0    0    0    0 -0.00000000000E+00 -0.00000000000E+00 -0.45593999997E+02  0.45594000000E+02  0.51100000000E-03 0. -1.
         23    2    1    2    0    0  0.35527136788E-14  0.17763568394E-14 -0.35527136788E-14  0.91188000000E+02  0.91188000000E+02 0.  0.
    9900012    2    3    3    0    0  0.29596795982E+02  0.42282527119E+01 -0.21492598699E+02  0.54367078607E+02  0.39999987301E+02 0.  0.
        -12    1    3    3    0    0 -0.29596795982E+02 -0.42282527119E+01  0.21492598699E+02  0.36820921393E+02  0.00000000000E+00 0.  1.
         11    1    4    4    0    0  0.46336765302E+01 -0.83905432122E+01 -0.10236660132E+02  0.14023600982E+02  0.51100000000E-03 0. -1.
        -11    1    4    4    0    0 -0.39833755766E+01  0.44992576564E+01 -0.81412987143E+01  0.10118860878E+02  0.51100000000E-03 0.  1.
        -12    1    4    4    0    0  0.28946495029E+02  0.81195382677E+01 -0.31146398521E+01  0.30224616747E+02  0.00000000000E+00 0.  1.
</event>
<event>
 8    1  0.2433390E-006  0.9118800E+02  0.7816164E-02  0.1184000E+00
        -11   -1    0    0    0    0  0.00000000000E+00  0.00000000000E+00  0.45593999997E+02  0.45594000000E+02  0.51100000000E-03 0.  1.
         11   -1    0    0    0    0 -0.00000000000E+00 -0.00000000000E+00 -0.45593999997E+02  0.45594000000E+02  0.51100000000E-03 0. -1.
         23    2    1    2    0    0  0.00000000000E+00  0.00000000000E+00  0.00000000000E+00  0.91188000000E+02  0.91188000000E+02 0.  0.
    9900012    2    3    3    0    0  0.98832956789E+01  0.13033375993E+02 -0.32988359438E+02  0.54367078208E+02  0.39999986390E+02 0.  0.
        -12    1    3    3    0    0 -0.98832956789E+01 -0.13033375993E+02  0.32988359438E+02  0.36820921792E+02  0.00000000000E+00 0.  1.
         11    1    4    4    0    0 -0.17953024854E+01  0.52029236207E+01 -0.25115066619E+01  0.60498918330E+01  0.51100000000E-03 0. -1.
        -11    1    4    4    0    0  0.14072278977E+01  0.18592420456E+02 -0.58430857990E+01  0.19539704211E+02  0.51100000000E-03 0.  1.
        -12    1    4    4    0    0  0.10271370267E+02 -0.10761968084E+02 -0.24633766977E+02  0.28777482163E+02  0.00000000000E+00 0.  1.
</event>
<event>
 8    1  0.2433390E-006  0.9118800E+02  0.7816164E-02  0.1184000E+00
        -11   -1    0    0    0    0  0.00000000000E+00  0.00000000000E+00  0.45593999997E+02  0.45594000000E+02  0.51100000000E-03 0. -1.
         11   -1    0    0    0    0 -0.00000000000E+00 -0.00000000000E+00 -0.45593999997E+02  0.45594000000E+02  0.51100000000E-03 0.  1.
         23    2    1    2    0    0  0.00000000000E+00  0.00000000000E+00  0.35527136788E-14  0.91188000000E+02  0.91188000000E+02 0.  0.
    9900012    2    3    3    0    0  0.27463583990E+02 -0.12547253294E+02 -0.21073624803E+02  0.54367086471E+02  0.40000005228E+02 0.  0.
         12    1    3    3    0    0 -0.27463583990E+02  0.12547253294E+02  0.21073624803E+02  0.36820913529E+02  0.00000000000E+00 0. -1.
         11    1    4    4    0    0  0.54415830601E+00 -0.14630323790E+02 -0.17802272552E+02  0.23049151627E+02  0.51100000000E-03 0. -1.
        -11    1    4    4    0    0  0.11824189108E+02 -0.57027155647E+01  0.25310712990E+01  0.13369320665E+02  0.51100000000E-03 0.  1.
        -12    1    4    4    0    0  0.15095236576E+02  0.77857860611E+01 -0.58024235499E+01  0.17948614179E+02  0.00000000000E+00 0.  1.
</event>
<event>
 8    1  0.2616424E-006  0.9118800E+02  0.7816164E-02  0.1184000E+00
        -11   -1    0    0    0    0  0.00000000000E+00  0.00000000000E+00  0.45593999997E+02  0.45594000000E+02  0.51100000000E-03 0.  1.
         11   -1    0    0    0    0 -0.00000000000E+00 -0.00000000000E+00 -0.45593999997E+02  0.45594000000E+02  0.51100000000E-03 0. -1.
         23    2    1    2    0    0  0.55511151231E-15  0.00000000000E+00  0.00000000000E+00  0.91188000000E+02  0.91188000000E+02 0.  0.
    9900012    2    3    3    0    0 -0.66303048032E+00  0.26728505857E+02 -0.25316538338E+02  0.54367085452E+02  0.40000002905E+02 0.  0.
        -12    1    3    3    0    0  0.66303048032E+00 -0.26728505857E+02  0.25316538338E+02  0.36820914548E+02  0.00000000000E+00 0.  1.
         11    1    4    4    0    0 -0.44602471401E+00 -0.23448810287E+01  0.21329292681E+01  0.32010611691E+01  0.51100000000E-03 0. -1.
        -11    1    4    4    0    0  0.38524234529E+01 -0.58027660989E+01 -0.65164393474E+00  0.69955629465E+01  0.51100000000E-03 0.  1.
         12    1    4    4    0    0 -0.40694292193E+01  0.34876152985E+02 -0.26797823671E+02  0.44170461336E+02  0.00000000000E+00 0. -1.
</event>
<event>
 8    1  0.2433390E-006  0.9118800E+02  0.7816164E-02  0.1184000E+00
        -11   -1    0    0    0    0  0.00000000000E+00  0.00000000000E+00  0.45593999997E+02  0.45594000000E+02  0.51100000000E-03 0.  1.
         11   -1    0    0    0    0 -0.00000000000E+00 -0.00000000000E+00 -0.45593999997E+02  0.45594000000E+02  0.51100000000E-03 0. -1.
         23    2    1    2    0    0  0.00000000000E+00  0.00000000000E+00  0.00000000000E+00  0.91188000000E+02  0.91188000000E+02 0.  0.
    9900012    2    3    3    0    0 -0.24473035044E+02 -0.27238341275E+02  0.38630722101E+01  0.54367081943E+02  0.39999994906E+02 0.  0.
        -12    1    3    3    0    0  0.24473035044E+02  0.27238341275E+02 -0.38630722101E+01  0.36820918057E+02  0.00000000000E+00 0.  1.
         11    1    4    4    0    0 -0.25527763217E+02 -0.22525795273E+02  0.11483073260E+02  0.35929641235E+02  0.51100000000E-03 0. -1.
        -11    1    4    4    0    0 -0.32378817067E+01  0.40876377673E+01  0.10961553340E+01  0.53286224525E+01  0.51100000000E-03 0.  1.
         12    1    4    4    0    0  0.42926098796E+01 -0.88001837695E+01 -0.87161563839E+01  0.13108818256E+02  0.00000000000E+00 0. -1.
</event>
<event>
 8    1  0.2433390E-006  0.9118800E+02  0.7816164E-02  0.1184000E+00
        -11   -1    0    0    0    0  0.00000000000E+00  0.00000000000E+00  0.45593999997E+02  0.45594000000E+02  0.51100000000E-03 0. -1.
         11   -1    0    0    0    0 -0.00000000000E+00 -0.00000000000E+00 -0.45593999997E+02  0.45594000000E+02  0.51100000000E-03 0.  1.
         23    2    1    2    0    0  0.88817841970E-15  0.00000000000E+00 -0.17763568394E-14  0.91188000000E+02  0.91188000000E+02 0.  0.
    9900012    2    3    3    0    0 -0.51368271089E+01 -0.33963629469E+02 -0.13261468246E+02  0.54367059497E+02  0.39999943735E+02 0.  0.
         12    1    3    3    0    0  0.51368271089E+01  0.33963629469E+02  0.13261468246E+02  0.36820940503E+02  0.00000000000E+00 0. -1.
         11    1    4    4    0    0  0.10549172621E+02 -0.10140962365E+02 -0.34736765557E+01  0.15039633964E+02  0.51100000000E-03 0. -1.
        -11    1    4    4    0    0 -0.15028670175E+02 -0.25218506722E+02  0.62458049712E-01  0.29357075974E+02  0.51100000000E-03 0.  1.
        -12    1    4    4    0    0 -0.65732955556E+00  0.13958396175E+01 -0.98502497404E+01  0.99703495591E+01  0.00000000000E+00 0.  1.
</event>
<event>
 8    1  0.2433390E-006  0.9118800E+02  0.7816164E-02  0.1184000E+00
        -11   -1    0    0    0    0  0.00000000000E+00  0.00000000000E+00  0.45593999997E+02  0.45594000000E+02  0.51100000000E-03 0.  1.
         11   -1    0    0    0    0 -0.00000000000E+00 -0.00000000000E+00 -0.45593999997E+02  0.45594000000E+02  0.51100000000E-03 0. -1.
         23    2    1    2    0    0  0.88817841970E-15  0.00000000000E+00 -0.17763568394E-14  0.91188000000E+02  0.91188000000E+02 0.  0.
    9900012    2    3    3    0    0  0.52310716407E+01 -0.35993978058E+02 -0.57314730029E+01  0.54367077283E+02  0.39999984282E+02 0.  0.
         12    1    3    3    0    0 -0.52310716407E+01  0.35993978058E+02  0.57314730029E+01  0.36820922717E+02  0.00000000000E+00 0. -1.
         11    1    4    4    0    0 -0.38360057211E+01  0.93034079483E-01  0.24126225837E+01  0.45325868138E+01  0.51100000000E-03 0. -1.
        -11    1    4    4    0    0 -0.94249437444E+01 -0.25431224416E+02 -0.38158740547E+00  0.27124202276E+02  0.51100000000E-03 0.  1.
         12    1    4    4    0    0  0.18492021106E+02 -0.10655787721E+02 -0.77625081811E+01  0.22710288193E+02  0.00000000000E+00 0. -1.
</event>
<event>
 8    1  0.2433390E-006  0.9118800E+02  0.7816164E-02  0.1184000E+00
        -11   -1    0    0    0    0  0.00000000000E+00  0.00000000000E+00  0.45593999997E+02  0.45594000000E+02  0.51100000000E-03 0. -1.
         11   -1    0    0    0    0 -0.00000000000E+00 -0.00000000000E+00 -0.45593999997E+02  0.45594000000E+02  0.51100000000E-03 0.  1.
         23    2    1    2    0    0  0.00000000000E+00  0.00000000000E+00 -0.88817841970E-15  0.91188000000E+02  0.91188000000E+02 0.  0.
    9900012    2    3    3    0    0 -0.31496710476E+02 -0.18515255388E+02 -0.45742694649E+01  0.54367063102E+02  0.39999951954E+02 0.  0.
        -12    1    3    3    0    0  0.31496710476E+02  0.18515255388E+02  0.45742694649E+01  0.36820936898E+02  0.00000000000E+00 0.  1.
         11    1    4    4    0    0 -0.19083038080E+02 -0.30298240594E+01  0.50016088406E+01  0.19958914486E+02  0.51100000000E-03 0. -1.
        -11    1    4    4    0    0 -0.39937408952E+01  0.31916871567E+01  0.65689579030E+01  0.83239438631E+01  0.51100000000E-03 0.  1.
        -12    1    4    4    0    0 -0.84199315007E+01 -0.18677118485E+02 -0.16144836208E+02  0.26084204753E+02  0.00000000000E+00 0.  1.
</event>
<event>
 8    1  0.2433390E-006  0.9118800E+02  0.7816164E-02  0.1184000E+00
        -11   -1    0    0    0    0  0.00000000000E+00  0.00000000000E+00  0.45593999997E+02  0.45594000000E+02  0.51100000000E-03 0. -1.
         11   -1    0    0    0    0 -0.00000000000E+00 -0.00000000000E+00 -0.45593999997E+02  0.45594000000E+02  0.51100000000E-03 0.  1.
         23    2    1    2    0    0  0.00000000000E+00  0.17763568394E-14 -0.35527136788E-14  0.91188000000E+02  0.91188000000E+02 0.  0.
    9900012    2    3    3    0    0 -0.27499756654E+02 -0.98721547480E+01 -0.22407347163E+02  0.54367010575E+02  0.39999832207E+02 0.  0.
         12    1    3    3    0    0  0.27499756654E+02  0.98721547480E+01  0.22407347163E+02  0.36820989425E+02  0.00000000000E+00 0. -1.
         11    1    4    4    0    0 -0.57335589392E+01  0.10472091575E+02 -0.42057377973E+01  0.12658065838E+02  0.51100000000E-03 0. -1.
        -11    1    4    4    0    0 -0.14592556572E+02 -0.42512858635E+00 -0.13716211809E+01  0.14663041518E+02  0.51100000000E-03 0.  1.
         12    1    4    4    0    0 -0.71736411424E+01 -0.19919117737E+02 -0.16829988185E+02  0.27045903219E+02  0.00000000000E+00 0. -1.
</event>
<event>
 8    1  0.2433390E-006  0.9118800E+02  0.7816164E-02  0.1184000E+00
        -11   -1    0    0    0    0  0.00000000000E+00  0.00000000000E+00  0.45593999997E+02  0.45594000000E+02  0.51100000000E-03 0. -1.
         11   -1    0    0    0    0 -0.00000000000E+00 -0.00000000000E+00 -0.45593999997E+02  0.45594000000E+02  0.51100000000E-03 0.  1.
         23    2    1    2    0    0  0.00000000000E+00 -0.35527136788E-14  0.35527136788E-14  0.91188000000E+02  0.91188000000E+02 0.  0.
    9900012    2    3    3    0    0  0.52456185592E+01 -0.28712498640E+02  0.22446728442E+02  0.54367085971E+02  0.40000004088E+02 0.  0.
        -12    1    3    3    0    0 -0.52456185592E+01  0.28712498640E+02 -0.22446728442E+02  0.36820914029E+02  0.00000000000E+00 0.  1.
         11    1    4    4    0    0  0.39206077008E+01 -0.63295347896E+01  0.12349237442E+02  0.14420049967E+02  0.51100000000E-03 0. -1.
        -11    1    4    4    0    0  0.78945074453E+01 -0.25480110832E+02  0.15539672247E+02  0.30871357431E+02  0.51100000000E-03 0.  1.
        -12    1    4    4    0    0 -0.65694965868E+01  0.30971469822E+01 -0.54421812470E+01  0.90756785729E+01  0.00000000000E+00 0.  1.
</event>
<event>
 8    1  0.2433390E-006  0.9118800E+02  0.7816164E-02  0.1184000E+00
        -11   -1    0    0    0    0  0.00000000000E+00  0.00000000000E+00  0.45593999997E+02  0.45594000000E+02  0.51100000000E-03 0. -1.
         11   -1    0    0    0    0 -0.00000000000E+00 -0.00000000000E+00 -0.45593999997E+02  0.45594000000E+02  0.51100000000E-03 0.  1.
         23    2    1    2    0    0  0.00000000000E+00 -0.35527136788E-14  0.00000000000E+00  0.91188000000E+02  0.91188000000E+02 0.  0.
    9900012    2    3    3    0    0  0.13708945663E+02  0.26419376828E+02 -0.21676478084E+02  0.54366968438E+02  0.39999736147E+02 0.  0.
         12    1    3    3    0    0 -0.13708945663E+02 -0.26419376828E+02  0.21676478084E+02  0.36821031562E+02  0.00000000000E+00 0. -1.
         11    1    4    4    0    0  0.65376612175E+00  0.37827206996E+01  0.28528850372E+01  0.47828170914E+01  0.51100000000E-03 0. -1.
        -11    1    4    4    0    0  0.15372150925E+02  0.29271639066E+02 -0.26402358852E+02  0.42310949302E+02  0.51100000000E-03 0.  1.
         12    1    4    4    0    0 -0.23169713831E+01 -0.66349829373E+01  0.18729957310E+01  0.72732020443E+01  0.00000000000E+00 0. -1.
</event>
<event>
 8    1  0.2433390E-006  0.9118800E+02  0.7816164E-02  0.1184000E+00
        -11   -1    0    0    0    0  0.00000000000E+00  0.00000000000E+00  0.45593999997E+02  0.45594000000E+02  0.51100000000E-03 0.  1.
         11   -1    0    0    0    0 -0.00000000000E+00 -0.00000000000E+00 -0.45593999997E+02  0.45594000000E+02  0.51100000000E-03 0. -1.
         23    2    1    2    0    0  0.71054273576E-14  0.00000000000E+00  0.00000000000E+00  0.91188000000E+02  0.91188000000E+02 0.  0.
    9900012    2    3    3    0    0 -0.31501634064E+02 -0.95969127845E+01  0.16471997790E+02  0.54367076670E+02  0.39999982884E+02 0.  0.
         12    1    3    3    0    0  0.31501634064E+02  0.95969127845E+01 -0.16471997790E+02  0.36820923330E+02  0.00000000000E+00 0. -1.
         11    1    4    4    0    0  0.73542657393E+01 -0.24446890828E+00  0.10123731499E+01  0.74276435878E+01  0.51100000000E-03 0. -1.
        -11    1    4    4    0    0 -0.14451941170E+02 -0.18686189297E+01  0.15689289957E+02  0.21412710242E+02  0.51100000000E-03 0.  1.
         12    1    4    4    0    0 -0.24403958633E+02 -0.74838249465E+01 -0.22966531714E+00  0.25526722840E+02  0.00000000000E+00 0. -1.
</event>
<event>
 8    1  0.2433390E-006  0.9118800E+02  0.7816164E-02  0.1184000E+00
        -11   -1    0    0    0    0  0.00000000000E+00  0.00000000000E+00  0.45593999997E+02  0.45594000000E+02  0.51100000000E-03 0.  1.
         11   -1    0    0    0    0 -0.00000000000E+00 -0.00000000000E+00 -0.45593999997E+02  0.45594000000E+02  0.51100000000E-03 0. -1.
         23    2    1    2    0    0  0.00000000000E+00  0.00000000000E+00  0.35527136788E-14  0.91188000000E+02  0.91188000000E+02 0.  0.
    9900012    2    3    3    0    0 -0.26714600733E+02  0.47194218444E+01  0.24896493854E+02  0.54367105916E+02  0.40000049558E+02 0.  0.
         12    1    3    3    0    0  0.26714600733E+02 -0.47194218444E+01 -0.24896493854E+02  0.36820894084E+02  0.00000000000E+00 0. -1.
         11    1    4    4    0    0 -0.18531973325E+02  0.10060481671E+02 -0.39044336343E+01  0.21445091024E+02  0.51100000000E-03 0. -1.
        -11    1    4    4    0    0  0.16453552417E+00  0.50407046093E+00  0.18235311508E+02  0.18243019077E+02  0.51100000000E-03 0.  1.
         12    1    4    4    0    0 -0.83471629322E+01 -0.58451302878E+01  0.10565615980E+02  0.14678995815E+02  0.00000000000E+00 0. -1.
</event>
<event>
 8    1  0.2433390E-006  0.9118800E+02  0.7816164E-02  0.1184000E+00
        -11   -1    0    0    0    0  0.00000000000E+00  0.00000000000E+00  0.45593999997E+02  0.45594000000E+02  0.51100000000E-03 0. -1.
         11   -1    0    0    0    0 -0.00000000000E+00 -0.00000000000E+00 -0.45593999997E+02  0.45594000000E+02  0.51100000000E-03 0.  1.
         23    2    1    2    0    0  0.00000000000E+00  0.00000000000E+00  0.17763568394E-14  0.91188000000E+02  0.91188000000E+02 0.  0.
    9900012    2    3    3    0    0 -0.22575810416E+02 -0.25157610982E+02  0.14601513125E+02  0.54367125597E+02  0.40000094423E+02 0.  0.
        -12    1    3    3    0    0  0.22575810416E+02  0.25157610982E+02 -0.14601513125E+02  0.36820874403E+02  0.00000000000E+00 0.  1.
         11    1    4    4    0    0 -0.20633010510E+02 -0.45374687960E+01  0.14607072874E+02  0.25684164849E+02  0.51100000000E-03 0. -1.
        -11    1    4    4    0    0 -0.96463622000E+01 -0.95984704759E+01 -0.47652836380E+01  0.14418421120E+02  0.51100000000E-03 0.  1.
        -12    1    4    4    0    0  0.77035622938E+01 -0.11021671710E+02  0.47597238890E+01  0.14264539628E+02  0.00000000000E+00 0.  1.
</event>
<event>
 8    1  0.2433390E-006  0.9118800E+02  0.7816164E-02  0.1184000E+00
        -11   -1    0    0    0    0  0.00000000000E+00  0.00000000000E+00  0.45593999997E+02  0.45594000000E+02  0.51100000000E-03 0.  1.
         11   -1    0    0    0    0 -0.00000000000E+00 -0.00000000000E+00 -0.45593999997E+02  0.45594000000E+02  0.51100000000E-03 0. -1.
         23    2    1    2    0    0  0.00000000000E+00  0.17763568394E-14  0.00000000000E+00  0.91188000000E+02  0.91188000000E+02 0.  0.
    9900012    2    3    3    0    0  0.25344194827E+02 -0.23432576530E+01 -0.26607407093E+02  0.54367174642E+02  0.40000206230E+02 0.  0.
        -12    1    3    3    0    0 -0.25344194827E+02  0.23432576530E+01  0.26607407093E+02  0.36820825358E+02  0.00000000000E+00 0.  1.
         11    1    4    4    0    0  0.42789981214E+01 -0.11917445190E+02 -0.16877549908E+02  0.21099455346E+02  0.51100000000E-03 0. -1.
        -11    1    4    4    0    0  0.81366645751E+01  0.14978878097E+02 -0.89016901667E+01  0.19230501490E+02  0.51100000000E-03 0.  1.
        -12    1    4    4    0    0  0.12928532130E+02 -0.54046905609E+01 -0.82816701871E+00  0.14037217805E+02  0.00000000000E+00 0.  1.
</event>
<event>
 8    1  0.2433390E-006  0.9118800E+02  0.7816164E-02  0.1184000E+00
        -11   -1    0    0    0    0  0.00000000000E+00  0.00000000000E+00  0.45593999997E+02  0.45594000000E+02  0.51100000000E-03 0.  1.
         11   -1    0    0    0    0 -0.00000000000E+00 -0.00000000000E+00 -0.45593999997E+02  0.45594000000E+02  0.51100000000E-03 0. -1.
         23    2    1    2    0    0 -0.17763568394E-14 -0.88817841970E-15  0.00000000000E+00  0.91188000000E+02  0.91188000000E+02 0.  0.
    9900012    2    3    3    0    0 -0.10309437492E+02 -0.25448639758E+01 -0.35256474872E+02  0.54367084009E+02  0.39999999615E+02 0.  0.
         12    1    3    3    0    0  0.10309437492E+02  0.25448639758E+01  0.35256474872E+02  0.36820915991E+02  0.00000000000E+00 0. -1.
         11    1    4    4    0    0 -0.88988392258E+01  0.10569493992E+01 -0.13823336783E+02  0.16473952825E+02  0.51100000000E-03 0. -1.
        -11    1    4    4    0    0 -0.11712528608E+02 -0.91685964734E+01 -0.21547445563E+02  0.26182797754E+02  0.51100000000E-03 0.  1.
         12    1    4    4    0    0  0.10301930342E+02  0.55667830984E+01  0.11430747441E+00  0.11710333430E+02  0.00000000000E+00 0. -1.
</event>
<event>
 8    1  0.2433390E-006  0.9118800E+02  0.7816164E-02  0.1184000E+00
        -11   -1    0    0    0    0  0.00000000000E+00  0.00000000000E+00  0.45593999997E+02  0.45594000000E+02  0.51100000000E-03 0. -1.
         11   -1    0    0    0    0 -0.00000000000E+00 -0.00000000000E+00 -0.45593999997E+02  0.45594000000E+02  0.51100000000E-03 0.  1.
         23    2    1    2    0    0  0.00000000000E+00  0.00000000000E+00 -0.35527136788E-14  0.91188000000E+02  0.91188000000E+02 0.  0.
    9900012    2    3    3    0    0 -0.20745795175E+02  0.16458834462E+02 -0.25583181748E+02  0.54367076090E+02  0.39999981562E+02 0.  0.
         12    1    3    3    0    0  0.20745795175E+02 -0.16458834462E+02  0.25583181748E+02  0.36820923910E+02  0.00000000000E+00 0. -1.
         11    1    4    4    0    0  0.10506965858E+02  0.46017243883E+01 -0.98951117811E+00  0.11513093916E+02  0.51100000000E-03 0. -1.
        -11    1    4    4    0    0 -0.18087205609E+02  0.10607419247E+02 -0.10234004548E+02  0.23332363772E+02  0.51100000000E-03 0.  1.
        -12    1    4    4    0    0 -0.13165555424E+02  0.12496908266E+01 -0.14359666021E+02  0.19521618402E+02  0.00000000000E+00 0.  1.
</event>
<event>
 8    1  0.2433390E-006  0.9118800E+02  0.7816164E-02  0.1184000E+00
        -11   -1    0    0    0    0  0.00000000000E+00  0.00000000000E+00  0.45593999997E+02  0.45594000000E+02  0.51100000000E-03 0. -1.
         11   -1    0    0    0    0 -0.00000000000E+00 -0.00000000000E+00 -0.45593999997E+02  0.45594000000E+02  0.51100000000E-03 0.  1.
         23    2    1    2    0    0  0.35527136788E-14  0.35527136788E-14 -0.35527136788E-14  0.91188000000E+02  0.91188000000E+02 0.  0.
    9900012    2    3    3    0    0 -0.15859959924E+02 -0.17689734008E+02  0.28130343248E+02  0.54367065339E+02  0.39999957053E+02 0.  0.
        -12    1    3    3    0    0  0.15859959924E+02  0.17689734008E+02 -0.28130343248E+02  0.36820934661E+02  0.00000000000E+00 0.  1.
         11    1    4    4    0    0 -0.13523158591E+02 -0.75910478111E+01  0.51372964981E+01  0.16336818562E+02  0.51100000000E-03 0. -1.
        -11    1    4    4    0    0  0.65922279747E+01  0.74636947296E+01  0.42165384916E+01  0.10814037442E+02  0.51100000000E-03 0.  1.
         12    1    4    4    0    0 -0.89290293073E+01 -0.17562380926E+02  0.18776508259E+02  0.27216209335E+02  0.00000000000E+00 0. -1.
</event>
<event>
 8    1  0.2433390E-006  0.9118800E+02  0.7816164E-02  0.1184000E+00
        -11   -1    0    0    0    0  0.00000000000E+00  0.00000000000E+00  0.45593999997E+02  0.45594000000E+02  0.51100000000E-03 0.  1.
         11   -1    0    0    0    0 -0.00000000000E+00 -0.00000000000E+00 -0.45593999997E+02  0.45594000000E+02  0.51100000000E-03 0. -1.
         23    2    1    2    0    0  0.88817841970E-15  0.88817841970E-15  0.00000000000E+00  0.91188000000E+02  0.91188000000E+02 0.  0.
    9900012    2    3    3    0    0 -0.58877798202E+01 -0.49368186611E+01  0.36010290847E+02  0.54367093214E+02  0.40000020599E+02 0.  0.
         12    1    3    3    0    0  0.58877798202E+01  0.49368186611E+01 -0.36010290847E+02  0.36820906786E+02  0.00000000000E+00 0. -1.
         11    1    4    4    0    0 -0.72870736227E+01  0.71627601453E+01  0.98340072320E+01  0.14181476418E+02  0.51100000000E-03 0. -1.
        -11    1    4    4    0    0 -0.18097074229E+01  0.89057369204E+01  0.97436842111E+01  0.13323909836E+02  0.51100000000E-03 0.  1.
         12    1    4    4    0    0  0.32090012254E+01 -0.21005315727E+02  0.16432599404E+02  0.26861706960E+02  0.00000000000E+00 0. -1.
</event>
<event>
 8    1  0.2433390E-006  0.9118800E+02  0.7816164E-02  0.1184000E+00
        -11   -1    0    0    0    0  0.00000000000E+00  0.00000000000E+00  0.45593999997E+02  0.45594000000E+02  0.51100000000E-03 0.  1.
         11   -1    0    0    0    0 -0.00000000000E+00 -0.00000000000E+00 -0.45593999997E+02  0.45594000000E+02  0.51100000000E-03 0. -1.
         23    2    1    2    0    0 -0.88817841970E-15  0.00000000000E+00 -0.35527136788E-14  0.91188000000E+02  0.91188000000E+02 0.  0.
    9900012    2    3    3    0    0  0.28646907289E+01  0.30298192395E+02  0.20726625945E+02  0.54367082868E+02  0.39999997014E+02 0.  0.
         12    1    3    3    0    0 -0.28646907289E+01 -0.30298192395E+02 -0.20726625945E+02  0.36820917132E+02  0.00000000000E+00 0. -1.
         11    1    4    4    0    0  0.14765293925E+02  0.56002580069E+01  0.27433449251E+01  0.16028185676E+02  0.51100000000E-03 0. -1.
        -11    1    4    4    0    0  0.27626922361E+01  0.14797361351E+02  0.13175108634E+02  0.20004445984E+02  0.51100000000E-03 0.  1.
         12    1    4    4    0    0 -0.14663295432E+02  0.99005730375E+01  0.48081723855E+01  0.18334451208E+02  0.00000000000E+00 0. -1.
</event>
<event>
 8    1  0.2433390E-006  0.9118800E+02  0.7816164E-02  0.1184000E+00
        -11   -1    0    0    0    0  0.00000000000E+00  0.00000000000E+00  0.45593999997E+02  0.45594000000E+02  0.51100000000E-03 0. -1.
         11   -1    0    0    0    0 -0.00000000000E+00 -0.00000000000E+00 -0.45593999997E+02  0.45594000000E+02  0.51100000000E-03 0.  1.
         23    2    1    2    0    0  0.00000000000E+00 -0.17763568394E-14  0.00000000000E+00  0.91188000000E+02  0.91188000000E+02 0.  0.
    9900012    2    3    3    0    0 -0.26698962462E+02 -0.14537817937E+02 -0.20774890019E+02  0.54367098297E+02  0.40000032188E+02 0.  0.
         12    1    3    3    0    0  0.26698962462E+02  0.14537817937E+02  0.20774890019E+02  0.36820901703E+02  0.00000000000E+00 0. -1.
         11    1    4    4    0    0 -0.10117243795E+02 -0.18966572262E+02  0.17941597792E+01  0.21571010522E+02  0.51100000000E-03 0. -1.
        -11    1    4    4    0    0  0.24691010853E+01 -0.20206732955E+01 -0.57574008749E+01  0.65823434909E+01  0.51100000000E-03 0.  1.
        -12    1    4    4    0    0 -0.19050819752E+02  0.64494276209E+01 -0.16811648924E+02  0.26213744284E+02  0.00000000000E+00 0.  1.
</event>
<event>
 8    1  0.2433390E-006  0.9118800E+02  0.7816164E-02  0.1184000E+00
        -11   -1    0    0    0    0  0.00000000000E+00  0.00000000000E+00  0.45593999997E+02  0.45594000000E+02  0.51100000000E-03 0. -1.
         11   -1    0    0    0    0 -0.00000000000E+00 -0.00000000000E+00 -0.45593999997E+02  0.45594000000E+02  0.51100000000E-03 0.  1.
         23    2    1    2    0    0  0.00000000000E+00  0.00000000000E+00  0.00000000000E+00  0.91188000000E+02  0.91188000000E+02 0.  0.
    9900012    2    3    3    0    0 -0.26545456480E+02  0.10143040022E+02  0.23414489927E+02  0.54367070366E+02  0.39999968512E+02 0.  0.
        -12    1    3    3    0    0  0.26545456480E+02 -0.10143040022E+02 -0.23414489927E+02  0.36820929634E+02  0.00000000000E+00 0.  1.
         11    1    4    4    0    0 -0.25770424245E+02  0.53263349348E+00 -0.72274313099E-01  0.25776029331E+02  0.51100000000E-03 0. -1.
        -11    1    4    4    0    0 -0.58760396376E-01  0.20912528454E+01 -0.14434605560E+01  0.25417257691E+01  0.51100000000E-03 0.  1.
         12    1    4    4    0    0 -0.71627183845E+00  0.75191536827E+01  0.24930224796E+02  0.26049315266E+02  0.00000000000E+00 0. -1.
</event>
<event>
 8    1  0.2433390E-006  0.9118800E+02  0.7816164E-02  0.1184000E+00
        -11   -1    0    0    0    0  0.00000000000E+00  0.00000000000E+00  0.45593999997E+02  0.45594000000E+02  0.51100000000E-03 0. -1.
         11   -1    0    0    0    0 -0.00000000000E+00 -0.00000000000E+00 -0.45593999997E+02  0.45594000000E+02  0.51100000000E-03 0.  1.
         23    2    1    2    0    0  0.00000000000E+00  0.00000000000E+00  0.17763568394E-14  0.91188000000E+02  0.91188000000E+02 0.  0.
    9900012    2    3    3    0    0  0.33357320940E+02  0.11379062089E+02 -0.10657962472E+02  0.54366999493E+02  0.39999806943E+02 0.  0.
        -12    1    3    3    0    0 -0.33357320940E+02 -0.11379062089E+02  0.10657962472E+02  0.36821000507E+02  0.00000000000E+00 0.  1.
         11    1    4    4    0    0  0.19924956229E+02  0.13537941049E+02  0.54503833066E+01  0.24697902888E+02  0.51100000000E-03 0. -1.
        -11    1    4    4    0    0  0.21631597450E+01  0.75979366980E+01 -0.11713831080E+02  0.14128755818E+02  0.51100000000E-03 0.  1.
         12    1    4    4    0    0  0.11269204965E+02 -0.97568156581E+01 -0.43945146983E+01  0.15540340787E+02  0.00000000000E+00 0. -1.
</event>
<event>
 8    1  0.2433390E-006  0.9118800E+02  0.7816164E-02  0.1184000E+00
        -11   -1    0    0    0    0  0.00000000000E+00  0.00000000000E+00  0.45593999997E+02  0.45594000000E+02  0.51100000000E-03 0.  1.
         11   -1    0    0    0    0 -0.00000000000E+00 -0.00000000000E+00 -0.45593999997E+02  0.45594000000E+02  0.51100000000E-03 0. -1.
         23    2    1    2    0    0  0.00000000000E+00 -0.35527136788E-14  0.35527136788E-14  0.91188000000E+02  0.91188000000E+02 0.  0.
    9900012    2    3    3    0    0 -0.19953772073E+02 -0.23354014791E+02  0.20303127910E+02  0.54367081628E+02  0.39999994188E+02 0.  0.
         12    1    3    3    0    0  0.19953772073E+02  0.23354014791E+02 -0.20303127910E+02  0.36820918372E+02  0.00000000000E+00 0. -1.
         11    1    4    4    0    0 -0.61159919930E+00 -0.10385540588E+01 -0.60946609015E+01  0.62126918384E+01  0.51100000000E-03 0. -1.
        -11    1    4    4    0    0 -0.22119250474E+02 -0.72339633051E+01  0.22413245029E+02  0.32310138031E+02  0.51100000000E-03 0.  1.
         12    1    4    4    0    0  0.27770775998E+01 -0.15081497427E+02  0.39845437826E+01  0.15844251759E+02  0.00000000000E+00 0. -1.
</event>
<event>
 8    1  0.2433390E-006  0.9118800E+02  0.7816164E-02  0.1184000E+00
        -11   -1    0    0    0    0  0.00000000000E+00  0.00000000000E+00  0.45593999997E+02  0.45594000000E+02  0.51100000000E-03 0.  1.
         11   -1    0    0    0    0 -0.00000000000E+00 -0.00000000000E+00 -0.45593999997E+02  0.45594000000E+02  0.51100000000E-03 0. -1.
         23    2    1    2    0    0  0.00000000000E+00  0.00000000000E+00  0.00000000000E+00  0.91188000000E+02  0.91188000000E+02 0.  0.
    9900012    2    3    3    0    0 -0.29215291989E+02  0.13495266979E+02  0.17892017754E+02  0.54367084529E+02  0.40000000800E+02 0.  0.
         12    1    3    3    0    0  0.29215291989E+02 -0.13495266979E+02 -0.17892017754E+02  0.36820915471E+02  0.00000000000E+00 0. -1.
         11    1    4    4    0    0 -0.21099875842E+02  0.22117860266E+02  0.95807139789E+00  0.30583041124E+02  0.51100000000E-03 0. -1.
        -11    1    4    4    0    0 -0.11204405917E+02 -0.65927530001E+01  0.13414662628E+02  0.18680371457E+02  0.51100000000E-03 0.  1.
         12    1    4    4    0    0  0.30889897706E+01 -0.20298402868E+01  0.35192837286E+01  0.51036719482E+01  0.00000000000E+00 0. -1.
</event>
<event>
 8    1  0.2433390E-006  0.9118800E+02  0.7816164E-02  0.1184000E+00
        -11   -1    0    0    0    0  0.00000000000E+00  0.00000000000E+00  0.45593999997E+02  0.45594000000E+02  0.51100000000E-03 0.  1.
         11   -1    0    0    0    0 -0.00000000000E+00 -0.00000000000E+00 -0.45593999997E+02  0.45594000000E+02  0.51100000000E-03 0. -1.
         23    2    1    2    0    0 -0.17763568394E-14  0.00000000000E+00  0.66613381478E-15  0.91188000000E+02  0.91188000000E+02 0.  0.
    9900012    2    3    3    0    0  0.91959085503E+01 -0.35619866889E+02 -0.15620729557E+01  0.54367085791E+02  0.40000003677E+02 0.  0.
         12    1    3    3    0    0 -0.91959085503E+01  0.35619866889E+02  0.15620729557E+01  0.36820914209E+02  0.00000000000E+00 0. -1.
         11    1    4    4    0    0 -0.52659710089E+01 -0.45941583414E+01  0.13846799067E+02  0.15510338043E+02  0.51100000000E-03 0. -1.
        -11    1    4    4    0    0  0.17777417014E+01 -0.30944574973E+01  0.14510476821E+01  0.38524761383E+01  0.51100000000E-03 0.  1.
         12    1    4    4    0    0  0.12684137858E+02 -0.27931251051E+02 -0.16859919705E+02  0.35004271610E+02  0.00000000000E+00 0. -1.
</event>
<event>
 8    1  0.2433390E-006  0.9118800E+02  0.7816164E-02  0.1184000E+00
        -11   -1    0    0    0    0  0.00000000000E+00  0.00000000000E+00  0.45593999997E+02  0.45594000000E+02  0.51100000000E-03 0. -1.
         11   -1    0    0    0    0 -0.00000000000E+00 -0.00000000000E+00 -0.45593999997E+02  0.45594000000E+02  0.51100000000E-03 0.  1.
         23    2    1    2    0    0 -0.35527136788E-14 -0.35527136788E-14  0.88817841970E-15  0.91188000000E+02  0.91188000000E+02 0.  0.
    9900012    2    3    3    0    0  0.30672001671E+02  0.20143975716E+02 -0.30374541042E+01  0.54367115009E+02  0.40000070285E+02 0.  0.
        -12    1    3    3    0    0 -0.30672001671E+02 -0.20143975716E+02  0.30374541042E+01  0.36820884991E+02  0.00000000000E+00 0.  1.
         11    1    4    4    0    0  0.18280664640E+02  0.69227075606E+01 -0.56066679648E+01  0.20335715025E+02  0.51100000000E-03 0. -1.
        -11    1    4    4    0    0 -0.48629325912E+00  0.95001252810E+01 -0.11281330886E+02  0.14756601516E+02  0.51100000000E-03 0.  1.
         12    1    4    4    0    0  0.12877630289E+02  0.37211428740E+01  0.13850544747E+02  0.19274798467E+02  0.00000000000E+00 0. -1.
</event>
<event>
 8    1  0.2433390E-006  0.9118800E+02  0.7816164E-02  0.1184000E+00
        -11   -1    0    0    0    0  0.00000000000E+00  0.00000000000E+00  0.45593999997E+02  0.45594000000E+02  0.51100000000E-03 0. -1.
         11   -1    0    0    0    0 -0.00000000000E+00 -0.00000000000E+00 -0.45593999997E+02  0.45594000000E+02  0.51100000000E-03 0.  1.
         23    2    1    2    0    0  0.00000000000E+00 -0.99920072216E-15  0.00000000000E+00  0.91188000000E+02  0.91188000000E+02 0.  0.
    9900012    2    3    3    0    0 -0.81408234647E+01  0.44091956771E+00  0.35906983640E+02  0.54367097093E+02  0.40000029444E+02 0.  0.
        -12    1    3    3    0    0  0.81408234647E+01 -0.44091956771E+00 -0.35906983640E+02  0.36820902907E+02  0.00000000000E+00 0.  1.
         11    1    4    4    0    0 -0.32807984007E+01  0.80667415051E+01 -0.41709190981E+01  0.96556989929E+01  0.51100000000E-03 0. -1.
        -11    1    4    4    0    0 -0.99330180170E+01 -0.25106182690E+01  0.12267862294E+02  0.15983381887E+02  0.51100000000E-03 0.  1.
         12    1    4    4    0    0  0.50729929530E+01 -0.51152036685E+01  0.27810040444E+02  0.28728016214E+02  0.00000000000E+00 0. -1.
</event>
<event>
 8    1  0.2433390E-006  0.9118800E+02  0.7816164E-02  0.1184000E+00
        -11   -1    0    0    0    0  0.00000000000E+00  0.00000000000E+00  0.45593999997E+02  0.45594000000E+02  0.51100000000E-03 0. -1.
         11   -1    0    0    0    0 -0.00000000000E+00 -0.00000000000E+00 -0.45593999997E+02  0.45594000000E+02  0.51100000000E-03 0.  1.
         23    2    1    2    0    0  0.00000000000E+00  0.88817841970E-15  0.00000000000E+00  0.91188000000E+02  0.91188000000E+02 0.  0.
    9900012    2    3    3    0    0  0.33401272986E+02  0.43721309466E+01  0.14866730439E+02  0.54367078772E+02  0.39999987678E+02 0.  0.
        -12    1    3    3    0    0 -0.33401272986E+02 -0.43721309466E+01 -0.14866730439E+02  0.36820921228E+02  0.00000000000E+00 0.  1.
         11    1    4    4    0    0  0.25006469323E+02  0.13084649278E+02 -0.30582763097E+01  0.28388106823E+02  0.51100000000E-03 0. -1.
        -11    1    4    4    0    0 -0.18657772172E+01 -0.19036151694E+01 -0.14404873457E+01  0.30298315781E+01  0.51100000000E-03 0.  1.
        -12    1    4    4    0    0  0.10260580880E+02 -0.68089031621E+01  0.19365494095E+02  0.22949140371E+02  0.00000000000E+00 0.  1.
</event>
<event>
 8    1  0.2433390E-006  0.9118800E+02  0.7816164E-02  0.1184000E+00
        -11   -1    0    0    0    0  0.00000000000E+00  0.00000000000E+00  0.45593999997E+02  0.45594000000E+02  0.51100000000E-03 0. -1.
         11   -1    0    0    0    0 -0.00000000000E+00 -0.00000000000E+00 -0.45593999997E+02  0.45594000000E+02  0.51100000000E-03 0.  1.
         23    2    1    2    0    0  0.11102230246E-14  0.71054273576E-14 -0.66613381478E-15  0.91188000000E+02  0.91188000000E+02 0.  0.
    9900012    2    3    3    0    0 -0.59604988620E+00 -0.36782735001E+02  0.15665840627E+01  0.54367094861E+02  0.40000024354E+02 0.  0.
        -12    1    3    3    0    0  0.59604988620E+00  0.36782735001E+02 -0.15665840627E+01  0.36820905139E+02  0.00000000000E+00 0.  1.
         11    1    4    4    0    0 -0.95537053424E+01  0.22887998556E+01 -0.16522889897E+01  0.99620253822E+01  0.51100000000E-03 0. -1.
        -11    1    4    4    0    0  0.90476124084E+01 -0.19538628989E+02  0.99836178713E+01  0.23733729988E+02  0.51100000000E-03 0.  1.
         12    1    4    4    0    0 -0.89956952156E-01 -0.19532905868E+02 -0.67647448189E+01  0.20671339491E+02  0.00000000000E+00 0. -1.
</event>
<event>
 8    1  0.2433390E-006  0.9118800E+02  0.7816164E-02  0.1184000E+00
        -11   -1    0    0    0    0  0.00000000000E+00  0.00000000000E+00  0.45593999997E+02  0.45594000000E+02  0.51100000000E-03 0. -1.
         11   -1    0    0    0    0 -0.00000000000E+00 -0.00000000000E+00 -0.45593999997E+02  0.45594000000E+02  0.51100000000E-03 0.  1.
         23    2    1    2    0    0 -0.17763568394E-14 -0.17763568394E-14  0.71054273576E-14  0.91188000000E+02  0.91188000000E+02 0.  0.
    9900012    2    3    3    0    0  0.12042033295E+02  0.12943221654E+02  0.32299252748E+02  0.54367091800E+02  0.40000017376E+02 0.  0.
        -12    1    3    3    0    0 -0.12042033295E+02 -0.12943221654E+02 -0.32299252748E+02  0.36820908200E+02  0.00000000000E+00 0.  1.
         11    1    4    4    0    0 -0.16036627174E+01  0.57713092279E+01  0.13262799524E+02  0.14552717815E+02  0.51100000000E-03 0.  1.
        -11    1    4    4    0    0  0.46719528485E+01  0.21311530366E+01  0.26568500832E+02  0.27060195738E+02  0.51100000000E-03 0. -1.
        -12    1    4    4    0    0  0.89737431635E+01  0.50407593892E+01 -0.75320476081E+01  0.12754178247E+02  0.00000000000E+00 0.  1.
</event>
<event>
 8    1  0.2433390E-006  0.9118800E+02  0.7816164E-02  0.1184000E+00
        -11   -1    0    0    0    0  0.00000000000E+00  0.00000000000E+00  0.45593999997E+02  0.45594000000E+02  0.51100000000E-03 0. -1.
         11   -1    0    0    0    0 -0.00000000000E+00 -0.00000000000E+00 -0.45593999997E+02  0.45594000000E+02  0.51100000000E-03 0.  1.
         23    2    1    2    0    0 -0.35527136788E-14  0.35527136788E-14  0.17763568394E-14  0.91188000000E+02  0.91188000000E+02 0.  0.
    9900012    2    3    3    0    0  0.25668210748E+02 -0.24242054197E+02 -0.10452075305E+02  0.54367080499E+02  0.39999991614E+02 0.  0.
         12    1    3    3    0    0 -0.25668210748E+02  0.24242054197E+02  0.10452075305E+02  0.36820919501E+02  0.00000000000E+00 0. -1.
         11    1    4    4    0    0 -0.10665080243E+01  0.81566724691E+01 -0.43734164730E+01  0.93164111675E+01  0.51100000000E-03 0. -1.
        -11    1    4    4    0    0  0.81022500291E+01 -0.19778150602E+02 -0.71036153153E+01  0.22522944914E+02  0.51100000000E-03 0.  1.
        -12    1    4    4    0    0  0.18632468743E+02 -0.12620576064E+02  0.10249564832E+01  0.22527724418E+02  0.00000000000E+00 0.  1.
</event>
<event>
 8    1  0.2433390E-006  0.9118800E+02  0.7816164E-02  0.1184000E+00
        -11   -1    0    0    0    0  0.00000000000E+00  0.00000000000E+00  0.45593999997E+02  0.45594000000E+02  0.51100000000E-03 0.  1.
         11   -1    0    0    0    0 -0.00000000000E+00 -0.00000000000E+00 -0.45593999997E+02  0.45594000000E+02  0.51100000000E-03 0. -1.
         23    2    1    2    0    0  0.00000000000E+00  0.00000000000E+00  0.00000000000E+00  0.91188000000E+02  0.91188000000E+02 0.  0.
    9900012    2    3    3    0    0  0.92802537802E+01  0.30977850209E+02 -0.17607660265E+02  0.54367081844E+02  0.39999994681E+02 0.  0.
        -12    1    3    3    0    0 -0.92802537802E+01 -0.30977850209E+02  0.17607660265E+02  0.36820918156E+02  0.00000000000E+00 0.  1.
         11    1    4    4    0    0  0.13519401413E+02  0.13920134353E+02 -0.86962779952E+01  0.21264280054E+02  0.51100000000E-03 0. -1.
        -11    1    4    4    0    0 -0.22601280807E+01  0.40448699315E+00  0.85733595361E+01  0.88754877424E+01  0.51100000000E-03 0.  1.
        -12    1    4    4    0    0 -0.19790195525E+01  0.16653228863E+02 -0.17484741806E+02  0.24227314048E+02  0.00000000000E+00 0.  1.
</event>
<event>
 8    1  0.2433390E-006  0.9118800E+02  0.7816164E-02  0.1184000E+00
        -11   -1    0    0    0    0  0.00000000000E+00  0.00000000000E+00  0.45593999997E+02  0.45594000000E+02  0.51100000000E-03 0.  1.
         11   -1    0    0    0    0 -0.00000000000E+00 -0.00000000000E+00 -0.45593999997E+02  0.45594000000E+02  0.51100000000E-03 0. -1.
         23    2    1    2    0    0  0.00000000000E+00  0.35527136788E-14  0.00000000000E+00  0.91188000000E+02  0.91188000000E+02 0.  0.
    9900012    2    3    3    0    0  0.22425260335E+02  0.26930293452E+02 -0.11298093173E+02  0.54367083175E+02  0.39999997714E+02 0.  0.
        -12    1    3    3    0    0 -0.22425260335E+02 -0.26930293452E+02  0.11298093173E+02  0.36820916825E+02  0.00000000000E+00 0.  1.
         11    1    4    4    0    0  0.10674497978E+02  0.21186741791E+02 -0.47715807319E+01  0.24198985883E+02  0.51100000000E-03 0. -1.
        -11    1    4    4    0    0  0.98333050870E+01  0.11144705187E+02 -0.14223248061E+02  0.20571804206E+02  0.51100000000E-03 0.  1.
        -12    1    4    4    0    0  0.19174572701E+01 -0.54011535260E+01  0.76967356198E+01  0.95962930862E+01  0.00000000000E+00 0.  1.
</event>
<event>
 8    1  0.2433390E-006  0.9118800E+02  0.7816164E-02  0.1184000E+00
        -11   -1    0    0    0    0  0.00000000000E+00  0.00000000000E+00  0.45593999997E+02  0.45594000000E+02  0.51100000000E-03 0.  1.
         11   -1    0    0    0    0 -0.00000000000E+00 -0.00000000000E+00 -0.45593999997E+02  0.45594000000E+02  0.51100000000E-03 0. -1.
         23    2    1    2    0    0  0.00000000000E+00  0.00000000000E+00 -0.33306690739E-15  0.91188000000E+02  0.91188000000E+02 0.  0.
    9900012    2    3    3    0    0 -0.29221490290E+02  0.22381212217E+02 -0.98458753517E+00  0.54367033586E+02  0.39999884665E+02 0.  0.
        -12    1    3    3    0    0  0.29221490290E+02 -0.22381212217E+02  0.98458753517E+00  0.36820966414E+02  0.00000000000E+00 0.  1.
         11    1    4    4    0    0 -0.26794772784E+02  0.15678287774E+02  0.48362360973E+01  0.31419066439E+02  0.51100000000E-03 0. -1.
        -11    1    4    4    0    0 -0.81819669533E+01  0.10137911625E+02  0.13919027581E+01  0.13101878831E+02  0.51100000000E-03 0.  1.
         12    1    4    4    0    0  0.57552494471E+01 -0.34349871819E+01 -0.72127263906E+01  0.98460883159E+01  0.00000000000E+00 0. -1.
</event>
<event>
 8    1  0.2433390E-006  0.9118800E+02  0.7816164E-02  0.1184000E+00
        -11   -1    0    0    0    0  0.00000000000E+00  0.00000000000E+00  0.45593999997E+02  0.45594000000E+02  0.51100000000E-03 0. -1.
         11   -1    0    0    0    0 -0.00000000000E+00 -0.00000000000E+00 -0.45593999997E+02  0.45594000000E+02  0.51100000000E-03 0.  1.
         23    2    1    2    0    0 -0.44408920985E-15 -0.35527136788E-14  0.35527136788E-14  0.91188000000E+02  0.91188000000E+02 0.  0.
    9900012    2    3    3    0    0 -0.30456843772E+01  0.18129082717E+02  0.31903593898E+02  0.54367093749E+02  0.40000021820E+02 0.  0.
        -12    1    3    3    0    0  0.30456843772E+01 -0.18129082717E+02 -0.31903593898E+02  0.36820906251E+02  0.00000000000E+00 0.  1.
         11    1    4    4    0    0 -0.51006517946E+00  0.18850432713E+01  0.13637344817E+02  0.13776455587E+02  0.51100000000E-03 0. -1.
        -11    1    4    4    0    0  0.12947472877E+02  0.18632967558E+01  0.67974355314E+00  0.13098510612E+02  0.51100000000E-03 0.  1.
         12    1    4    4    0    0 -0.15483092075E+02  0.14380742690E+02  0.17586505528E+02  0.27492127549E+02  0.00000000000E+00 0. -1.
</event>
<event>
 8    1  0.2433390E-006  0.9118800E+02  0.7816164E-02  0.1184000E+00
        -11   -1    0    0    0    0  0.00000000000E+00  0.00000000000E+00  0.45593999997E+02  0.45594000000E+02  0.51100000000E-03 0. -1.
         11   -1    0    0    0    0 -0.00000000000E+00 -0.00000000000E+00 -0.45593999997E+02  0.45594000000E+02  0.51100000000E-03 0.  1.
         23    2    1    2    0    0  0.44408920985E-15  0.00000000000E+00  0.00000000000E+00  0.91188000000E+02  0.91188000000E+02 0.  0.
    9900012    2    3    3    0    0  0.18337292595E+01  0.32937020001E+02 -0.16357547059E+02  0.54367092959E+02  0.40000020018E+02 0.  0.
         12    1    3    3    0    0 -0.18337292595E+01 -0.32937020001E+02  0.16357547059E+02  0.36820907041E+02  0.00000000000E+00 0. -1.
         11    1    4    4    0    0 -0.54337375421E+01  0.14064610866E+02 -0.18701182401E+02  0.24022343890E+02  0.51100000000E-03 0.  1.
        -11    1    4    4    0    0  0.94498512256E+01  0.69406265358E+00  0.66003431459E+01  0.11547551301E+02  0.51100000000E-03 0. -1.
        -12    1    4    4    0    0 -0.21823844240E+01  0.18178346482E+02 -0.42567078038E+01  0.18797197768E+02  0.00000000000E+00 0.  1.
</event>
<event>
 8    1  0.2433390E-006  0.9118800E+02  0.7816164E-02  0.1184000E+00
        -11   -1    0    0    0    0  0.00000000000E+00  0.00000000000E+00  0.45593999997E+02  0.45594000000E+02  0.51100000000E-03 0.  1.
         11   -1    0    0    0    0 -0.00000000000E+00 -0.00000000000E+00 -0.45593999997E+02  0.45594000000E+02  0.51100000000E-03 0. -1.
         23    2    1    2    0    0  0.44408920985E-15  0.00000000000E+00  0.17763568394E-14  0.91188000000E+02  0.91188000000E+02 0.  0.
    9900012    2    3    3    0    0  0.22394748214E+01 -0.33191212028E+02  0.15783156227E+02  0.54367084424E+02  0.40000000561E+02 0.  0.
         12    1    3    3    0    0 -0.22394748214E+01  0.33191212028E+02 -0.15783156227E+02  0.36820915576E+02  0.00000000000E+00 0. -1.
         11    1    4    4    0    0  0.81738106866E+01 -0.13715668257E+01  0.89351540241E+01  0.12187261973E+02  0.51100000000E-03 0. -1.
        -11    1    4    4    0    0 -0.10819819027E+02 -0.11285129010E+02  0.12847980102E+02  0.20235938662E+02  0.51100000000E-03 0.  1.
         12    1    4    4    0    0  0.48854831619E+01 -0.20534516192E+02 -0.59999778986E+01  0.21943883790E+02  0.00000000000E+00 0. -1.
</event>
<event>
 8    1  0.2433390E-006  0.9118800E+02  0.7816164E-02  0.1184000E+00
        -11   -1    0    0    0    0  0.00000000000E+00  0.00000000000E+00  0.45593999997E+02  0.45594000000E+02  0.51100000000E-03 0.  1.
         11   -1    0    0    0    0 -0.00000000000E+00 -0.00000000000E+00 -0.45593999997E+02  0.45594000000E+02  0.51100000000E-03 0. -1.
         23    2    1    2    0    0  0.00000000000E+00  0.00000000000E+00  0.00000000000E+00  0.91188000000E+02  0.91188000000E+02 0.  0.
    9900012    2    3    3    0    0  0.28097933815E+01 -0.34014470604E+02 -0.13816674896E+02  0.54367086724E+02  0.40000005805E+02 0.  0.
        -12    1    3    3    0    0 -0.28097933815E+01  0.34014470604E+02  0.13816674896E+02  0.36820913276E+02  0.00000000000E+00 0.  1.
         11    1    4    4    0    0  0.14095207406E+02 -0.24988788861E+02 -0.11153151892E+02  0.30781605513E+02  0.51100000000E-03 0. -1.
        -11    1    4    4    0    0 -0.14764064139E+01 -0.88673803474E+01  0.57419229588E+01  0.10666765660E+02  0.51100000000E-03 0.  1.
        -12    1    4    4    0    0 -0.98090076108E+01 -0.15830139481E+00 -0.84054459629E+01  0.12918715551E+02  0.00000000000E+00 0.  1.
</event>
<event>
 8    1  0.2433390E-006  0.9118800E+02  0.7816164E-02  0.1184000E+00
        -11   -1    0    0    0    0  0.00000000000E+00  0.00000000000E+00  0.45593999997E+02  0.45594000000E+02  0.51100000000E-03 0.  1.
         11   -1    0    0    0    0 -0.00000000000E+00 -0.00000000000E+00 -0.45593999997E+02  0.45594000000E+02  0.51100000000E-03 0. -1.
         23    2    1    2    0    0 -0.35527136788E-14 -0.17763568394E-14  0.35527136788E-14  0.91188000000E+02  0.91188000000E+02 0.  0.
    9900012    2    3    3    0    0 -0.23149008309E+02 -0.37890796389E+01 -0.28382141809E+02  0.54367086325E+02  0.40000004895E+02 0.  0.
        -12    1    3    3    0    0  0.23149008309E+02  0.37890796389E+01  0.28382141809E+02  0.36820913675E+02  0.00000000000E+00 0.  1.
         11    1    4    4    0    0 -0.72425786626E+01  0.51921808091E+01 -0.16502735243E+02  0.18755104852E+02  0.51100000000E-03 0. -1.
        -11    1    4    4    0    0 -0.11835150084E+02 -0.15707548839E+02  0.18880632345E+01  0.19757597300E+02  0.51100000000E-03 0.  1.
        -12    1    4    4    0    0 -0.40712795633E+01  0.67262883913E+01 -0.13767469800E+02  0.15854384173E+02  0.00000000000E+00 0.  1.
</event>
<event>
 8    1  0.2433390E-006  0.9118800E+02  0.7816164E-02  0.1184000E+00
        -11   -1    0    0    0    0  0.00000000000E+00  0.00000000000E+00  0.45593999997E+02  0.45594000000E+02  0.51100000000E-03 0.  1.
         11   -1    0    0    0    0 -0.00000000000E+00 -0.00000000000E+00 -0.45593999997E+02  0.45594000000E+02  0.51100000000E-03 0. -1.
         23    2    1    2    0    0  0.00000000000E+00  0.00000000000E+00  0.00000000000E+00  0.91188000000E+02  0.91188000000E+02 0.  0.
    9900012    2    3    3    0    0  0.19380264225E+02  0.13448885364E+02 -0.28272200632E+02  0.54367021095E+02  0.39999856190E+02 0.  0.
        -12    1    3    3    0    0 -0.19380264225E+02 -0.13448885364E+02  0.28272200632E+02  0.36820978905E+02  0.00000000000E+00 0.  1.
         11    1    4    4    0    0  0.10321376711E+01 -0.25550931532E+01 -0.66919952761E+01  0.72371686611E+01  0.51100000000E-03 0. -1.
        -11    1    4    4    0    0 -0.95227690514E+01 -0.41575907819E+00 -0.43212865517E+01  0.10465634417E+02  0.51100000000E-03 0.  1.
         12    1    4    4    0    0  0.27870895605E+02  0.16419737596E+02 -0.17258918804E+02  0.36664218017E+02  0.00000000000E+00 0. -1.
</event>
<event>
 8    1  0.2433390E-006  0.9118800E+02  0.7816164E-02  0.1184000E+00
        -11   -1    0    0    0    0  0.00000000000E+00  0.00000000000E+00  0.45593999997E+02  0.45594000000E+02  0.51100000000E-03 0.  1.
         11   -1    0    0    0    0 -0.00000000000E+00 -0.00000000000E+00 -0.45593999997E+02  0.45594000000E+02  0.51100000000E-03 0. -1.
         23    2    1    2    0    0 -0.17763568394E-14 -0.17763568394E-14 -0.71054273576E-14  0.91188000000E+02  0.91188000000E+02 0.  0.
    9900012    2    3    3    0    0  0.70949457486E+01  0.15549587112E+02  0.32613683154E+02  0.54367078727E+02  0.39999987573E+02 0.  0.
         12    1    3    3    0    0 -0.70949457486E+01 -0.15549587112E+02 -0.32613683154E+02  0.36820921273E+02  0.00000000000E+00 0. -1.
         11    1    4    4    0    0  0.38894283988E+01 -0.87451870647E+00 -0.70038987130E+01  0.80589722472E+01  0.51100000000E-03 0. -1.
        -11    1    4    4    0    0 -0.33351472657E+01  0.55109055345E+01  0.29088740871E+02  0.29793424322E+02  0.51100000000E-03 0.  1.
        -12    1    4    4    0    0  0.65406646155E+01  0.10913200284E+02  0.10528840996E+02  0.16514682157E+02  0.00000000000E+00 0.  1.
</event>
<event>
 8    1  0.2433390E-006  0.9118800E+02  0.7816164E-02  0.1184000E+00
        -11   -1    0    0    0    0  0.00000000000E+00  0.00000000000E+00  0.45593999997E+02  0.45594000000E+02  0.51100000000E-03 0. -1.
         11   -1    0    0    0    0 -0.00000000000E+00 -0.00000000000E+00 -0.45593999997E+02  0.45594000000E+02  0.51100000000E-03 0.  1.
         23    2    1    2    0    0  0.00000000000E+00  0.11102230246E-14  0.00000000000E+00  0.91188000000E+02  0.91188000000E+02 0.  0.
    9900012    2    3    3    0    0 -0.12297860751E+02  0.17441886664E+01  0.34662631395E+02  0.54367114781E+02  0.40000069765E+02 0.  0.
        -12    1    3    3    0    0  0.12297860751E+02 -0.17441886664E+01 -0.34662631395E+02  0.36820885219E+02  0.00000000000E+00 0.  1.
         11    1    4    4    0    0 -0.19155656768E+02 -0.67146089186E+01  0.11675905271E+02  0.23416915324E+02  0.51100000000E-03 0.  1.
        -11    1    4    4    0    0  0.15816798119E+01  0.12104982913E+02  0.20902980165E+02  0.24206753240E+02  0.51100000000E-03 0. -1.
         12    1    4    4    0    0  0.52761162053E+01 -0.36461853285E+01  0.20837459588E+01  0.67434462171E+01  0.00000000000E+00 0. -1.
</event>
<event>
 8    1  0.2433390E-006  0.9118800E+02  0.7816164E-02  0.1184000E+00
        -11   -1    0    0    0    0  0.00000000000E+00  0.00000000000E+00  0.45593999997E+02  0.45594000000E+02  0.51100000000E-03 0. -1.
         11   -1    0    0    0    0 -0.00000000000E+00 -0.00000000000E+00 -0.45593999997E+02  0.45594000000E+02  0.51100000000E-03 0.  1.
         23    2    1    2    0    0  0.35527136788E-14  0.35527136788E-14 -0.17763568394E-14  0.91188000000E+02  0.91188000000E+02 0.  0.
    9900012    2    3    3    0    0 -0.16053733121E+02  0.31770579342E+02  0.94172900901E+01  0.54367117182E+02  0.40000075240E+02 0.  0.
        -12    1    3    3    0    0  0.16053733121E+02 -0.31770579342E+02 -0.94172900901E+01  0.36820882818E+02  0.00000000000E+00 0.  1.
         11    1    4    4    0    0 -0.10444683075E+02  0.10445137983E+02  0.95151781548E+01  0.17570740667E+02  0.51100000000E-03 0. -1.
        -11    1    4    4    0    0 -0.11537231170E+02  0.26309802431E+02 -0.20742522400E+01  0.28803054172E+02  0.51100000000E-03 0.  1.
        -12    1    4    4    0    0  0.59281811238E+01 -0.49843610711E+01  0.19763641753E+01  0.79933223429E+01  0.00000000000E+00 0.  1.
</event>
<event>
 8    1  0.2433390E-006  0.9118800E+02  0.7816164E-02  0.1184000E+00
        -11   -1    0    0    0    0  0.00000000000E+00  0.00000000000E+00  0.45593999997E+02  0.45594000000E+02  0.51100000000E-03 0.  1.
         11   -1    0    0    0    0 -0.00000000000E+00 -0.00000000000E+00 -0.45593999997E+02  0.45594000000E+02  0.51100000000E-03 0. -1.
         23    2    1    2    0    0 -0.35527136788E-14  0.17763568394E-14 -0.35527136788E-14  0.91188000000E+02  0.91188000000E+02 0.  0.
    9900012    2    3    3    0    0 -0.26891933301E+02 -0.80106150802E+01  0.23841879139E+02  0.54367065310E+02  0.39999956986E+02 0.  0.
         12    1    3    3    0    0  0.26891933301E+02  0.80106150802E+01 -0.23841879139E+02  0.36820934690E+02  0.00000000000E+00 0. -1.
         11    1    4    4    0    0 -0.21275207167E+02  0.17382701600E+00 -0.54250414417E+01  0.21956678499E+02  0.51100000000E-03 0. -1.
        -11    1    4    4    0    0 -0.60244890555E+01 -0.57647477480E+01  0.10146238326E+02  0.13132895241E+02  0.51100000000E-03 0.  1.
        -12    1    4    4    0    0  0.40776292179E+00 -0.24196943482E+01  0.19120682254E+02  0.19277491569E+02  0.00000000000E+00 0.  1.
</event>
<event>
 8    1  0.2433390E-006  0.9118800E+02  0.7816164E-02  0.1184000E+00
        -11   -1    0    0    0    0  0.00000000000E+00  0.00000000000E+00  0.45593999997E+02  0.45594000000E+02  0.51100000000E-03 0.  1.
         11   -1    0    0    0    0 -0.00000000000E+00 -0.00000000000E+00 -0.45593999997E+02  0.45594000000E+02  0.51100000000E-03 0. -1.
         23    2    1    2    0    0  0.11102230246E-14  0.00000000000E+00 -0.71054273576E-14  0.91188000000E+02  0.91188000000E+02 0.  0.
    9900012    2    3    3    0    0 -0.14467820186E+01  0.41640920754E+01 -0.36556094130E+02  0.54367070366E+02  0.39999968514E+02 0.  0.
        -12    1    3    3    0    0  0.14467820186E+01 -0.41640920754E+01  0.36556094130E+02  0.36820929634E+02  0.00000000000E+00 0.  1.
         11    1    4    4    0    0  0.10968556808E+01  0.77552970911E+00  0.32455085797E+01  0.35125297032E+01  0.51100000000E-03 0.  1.
        -11    1    4    4    0    0 -0.93958964318E+01 -0.78853781157E+01 -0.43286353101E+01  0.13007657041E+02  0.51100000000E-03 0. -1.
         12    1    4    4    0    0  0.68522587324E+01  0.11273940482E+02 -0.35472967400E+02  0.37846883622E+02  0.00000000000E+00 0. -1.
</event>
<event>
 8    1  0.2433390E-006  0.9118800E+02  0.7816164E-02  0.1184000E+00
        -11   -1    0    0    0    0  0.00000000000E+00  0.00000000000E+00  0.45593999997E+02  0.45594000000E+02  0.51100000000E-03 0.  1.
         11   -1    0    0    0    0 -0.00000000000E+00 -0.00000000000E+00 -0.45593999997E+02  0.45594000000E+02  0.51100000000E-03 0. -1.
         23    2    1    2    0    0 -0.35527136788E-14  0.00000000000E+00  0.55511151231E-15  0.91188000000E+02  0.91188000000E+02 0.  0.
    9900012    2    3    3    0    0  0.15989995305E+02 -0.33167682152E+02  0.78097586527E-01  0.54367065894E+02  0.39999958319E+02 0.  0.
        -12    1    3    3    0    0 -0.15989995305E+02  0.33167682152E+02 -0.78097586527E-01  0.36820934106E+02  0.00000000000E+00 0.  1.
         11    1    4    4    0    0 -0.29608216544E+01 -0.11857004086E+02 -0.54813451793E+01  0.13394034344E+02  0.51100000000E-03 0. -1.
        -11    1    4    4    0    0  0.47221164570E+01 -0.12102004791E+02  0.16348815535E+02  0.20881586947E+02  0.51100000000E-03 0.  1.
        -12    1    4    4    0    0  0.14228700503E+02 -0.92086732748E+01 -0.10789372769E+02  0.20091444603E+02  0.00000000000E+00 0.  1.
</event>
<event>
 8    1  0.2433390E-006  0.9118800E+02  0.7816164E-02  0.1184000E+00
        -11   -1    0    0    0    0  0.00000000000E+00  0.00000000000E+00  0.45593999997E+02  0.45594000000E+02  0.51100000000E-03 0.  1.
         11   -1    0    0    0    0 -0.00000000000E+00 -0.00000000000E+00 -0.45593999997E+02  0.45594000000E+02  0.51100000000E-03 0. -1.
         23    2    1    2    0    0 -0.26645352591E-14 -0.44408920985E-15  0.00000000000E+00  0.91188000000E+02  0.91188000000E+02 0.  0.
    9900012    2    3    3    0    0  0.37530200884E+01  0.28365459021E+01  0.36519162458E+02  0.54367076885E+02  0.39999983374E+02 0.  0.
         12    1    3    3    0    0 -0.37530200884E+01 -0.28365459021E+01 -0.36519162458E+02  0.36820923115E+02  0.00000000000E+00 0. -1.
         11    1    4    4    0    0 -0.11095824346E+02 -0.67130948984E+01  0.84837792950E+01  0.15497014952E+02  0.51100000000E-03 0. -1.
        -11    1    4    4    0    0  0.19856839084E+02  0.70147993421E+01  0.19813928823E+02  0.28915276998E+02  0.51100000000E-03 0.  1.
        -12    1    4    4    0    0 -0.50079946491E+01  0.25348414584E+01  0.82214543398E+01  0.99547849342E+01  0.00000000000E+00 0.  1.
</event>
<event>
 8    1  0.2433390E-006  0.9118800E+02  0.7816164E-02  0.1184000E+00
        -11   -1    0    0    0    0  0.00000000000E+00  0.00000000000E+00  0.45593999997E+02  0.45594000000E+02  0.51100000000E-03 0.  1.
         11   -1    0    0    0    0 -0.00000000000E+00 -0.00000000000E+00 -0.45593999997E+02  0.45594000000E+02  0.51100000000E-03 0. -1.
         23    2    1    2    0    0  0.88817841970E-15  0.00000000000E+00  0.00000000000E+00  0.91188000000E+02  0.91188000000E+02 0.  0.
    9900012    2    3    3    0    0 -0.14724075994E+01 -0.30205117459E+01 -0.36667282007E+02  0.54367067840E+02  0.39999962755E+02 0.  0.
        -12    1    3    3    0    0  0.14724075994E+01  0.30205117459E+01  0.36667282007E+02  0.36820932160E+02  0.00000000000E+00 0.  1.
         11    1    4    4    0    0  0.56215257979E+01  0.53225555223E+01 -0.30579830513E+02  0.31544527006E+02  0.51100000000E-03 0. -1.
        -11    1    4    4    0    0  0.55220890670E+01 -0.61558426610E+01 -0.56412097040E+01  0.10010550121E+02  0.51100000000E-03 0.  1.
        -12    1    4    4    0    0 -0.12616022464E+02 -0.21872246072E+01 -0.44624178989E+00  0.12811990713E+02  0.00000000000E+00 0.  1.
</event>
<event>
 8    1  0.2433390E-006  0.9118800E+02  0.7816164E-02  0.1184000E+00
        -11   -1    0    0    0    0  0.00000000000E+00  0.00000000000E+00  0.45593999997E+02  0.45594000000E+02  0.51100000000E-03 0. -1.
         11   -1    0    0    0    0 -0.00000000000E+00 -0.00000000000E+00 -0.45593999997E+02  0.45594000000E+02  0.51100000000E-03 0.  1.
         23    2    1    2    0    0  0.00000000000E+00  0.00000000000E+00 -0.44408920985E-15  0.91188000000E+02  0.91188000000E+02 0.  0.
    9900012    2    3    3    0    0 -0.31035972291E+02  0.19735210409E+02 -0.17521852550E+01  0.54367078513E+02  0.39999987087E+02 0.  0.
        -12    1    3    3    0    0  0.31035972291E+02 -0.19735210409E+02  0.17521852550E+01  0.36820921487E+02  0.00000000000E+00 0.  1.
         11    1    4    4    0    0 -0.12050209353E+02  0.94348525605E+01  0.50048998097E+01  0.16101956734E+02  0.51100000000E-03 0. -1.
        -11    1    4    4    0    0 -0.20892064314E+02  0.15127223141E+02  0.42073539040E+01  0.26134518522E+02  0.51100000000E-03 0.  1.
        -12    1    4    4    0    0  0.19063013758E+01 -0.48268652925E+01 -0.10964438969E+02  0.12130603257E+02  0.00000000000E+00 0.  1.
</event>
<event>
 8    1  0.2433390E-006  0.9118800E+02  0.7816164E-02  0.1184000E+00
        -11   -1    0    0    0    0  0.00000000000E+00  0.00000000000E+00  0.45593999997E+02  0.45594000000E+02  0.51100000000E-03 0. -1.
         11   -1    0    0    0    0 -0.00000000000E+00 -0.00000000000E+00 -0.45593999997E+02  0.45594000000E+02  0.51100000000E-03 0.  1.
         23    2    1    2    0    0  0.17763568394E-14  0.71054273576E-14 -0.17763568394E-14  0.91188000000E+02  0.91188000000E+02 0.  0.
    9900012    2    3    3    0    0  0.88533583601E+01 -0.32304303304E+02 -0.15291497346E+02  0.54367083970E+02  0.39999999526E+02 0.  0.
         12    1    3    3    0    0 -0.88533583601E+01  0.32304303304E+02  0.15291497346E+02  0.36820916030E+02  0.00000000000E+00 0. -1.
         11    1    4    4    0    0 -0.27482379476E+01  0.50663019701E+01  0.28986622931E+01  0.64515479398E+01  0.51100000000E-03 0. -1.
        -11    1    4    4    0    0  0.15549833324E+02 -0.26581782748E+02 -0.19346992326E+02  0.36368868593E+02  0.51100000000E-03 0.  1.
         12    1    4    4    0    0 -0.39482370159E+01 -0.10788822526E+02  0.11568326864E+01  0.11546667437E+02  0.00000000000E+00 0. -1.
</event>
<event>
 8    1  0.2433390E-006  0.9118800E+02  0.7816164E-02  0.1184000E+00
        -11   -1    0    0    0    0  0.00000000000E+00  0.00000000000E+00  0.45593999997E+02  0.45594000000E+02  0.51100000000E-03 0. -1.
         11   -1    0    0    0    0 -0.00000000000E+00 -0.00000000000E+00 -0.45593999997E+02  0.45594000000E+02  0.51100000000E-03 0.  1.
         23    2    1    2    0    0 -0.88817841970E-15  0.00000000000E+00 -0.17763568394E-14  0.91188000000E+02  0.91188000000E+02 0.  0.
    9900012    2    3    3    0    0 -0.70028831321E+01  0.35838224930E+02  0.47287756046E+01  0.54367081258E+02  0.39999993343E+02 0.  0.
         12    1    3    3    0    0  0.70028831321E+01 -0.35838224930E+02 -0.47287756046E+01  0.36820918742E+02  0.00000000000E+00 0. -1.
         11    1    4    4    0    0 -0.18034314668E+01  0.86039467202E+00  0.15800096966E+02  0.15925944507E+02  0.51100000000E-03 0. -1.
        -11    1    4    4    0    0 -0.74448954787E+01  0.16668034167E+02 -0.69931134716E+01  0.19548745943E+02  0.51100000000E-03 0.  1.
         12    1    4    4    0    0  0.22454438134E+01  0.18309796092E+02 -0.40782078895E+01  0.18892390807E+02  0.00000000000E+00 0. -1.
</event>
<event>
 8    1  0.2433390E-006  0.9118800E+02  0.7816164E-02  0.1184000E+00
        -11   -1    0    0    0    0  0.00000000000E+00  0.00000000000E+00  0.45593999997E+02  0.45594000000E+02  0.51100000000E-03 0.  1.
         11   -1    0    0    0    0 -0.00000000000E+00 -0.00000000000E+00 -0.45593999997E+02  0.45594000000E+02  0.51100000000E-03 0. -1.
         23    2    1    2    0    0  0.35527136788E-14  0.00000000000E+00 -0.35527136788E-14  0.91188000000E+02  0.91188000000E+02 0.  0.
    9900012    2    3    3    0    0 -0.21745974164E+02  0.26668053044E+02  0.13103729859E+02  0.54367079565E+02  0.39999989484E+02 0.  0.
         12    1    3    3    0    0  0.21745974164E+02 -0.26668053044E+02 -0.13103729859E+02  0.36820920435E+02  0.00000000000E+00 0. -1.
         11    1    4    4    0    0 -0.16200845254E+02  0.23518045774E+02 -0.11690416859E+01  0.28582031466E+02  0.51100000000E-03 0. -1.
        -11    1    4    4    0    0  0.44268507427E+01  0.81258896177E+01  0.25242508243E+01  0.95916073763E+01  0.51100000000E-03 0.  1.
         12    1    4    4    0    0 -0.99719796527E+01 -0.49758823481E+01  0.11748520720E+02  0.16193440723E+02  0.00000000000E+00 0. -1.
</event>
<event>
 8    1  0.2433390E-006  0.9118800E+02  0.7816164E-02  0.1184000E+00
        -11   -1    0    0    0    0  0.00000000000E+00  0.00000000000E+00  0.45593999997E+02  0.45594000000E+02  0.51100000000E-03 0.  1.
         11   -1    0    0    0    0 -0.00000000000E+00 -0.00000000000E+00 -0.45593999997E+02  0.45594000000E+02  0.51100000000E-03 0. -1.
         23    2    1    2    0    0  0.99920072216E-15  0.00000000000E+00  0.17763568394E-14  0.91188000000E+02  0.91188000000E+02 0.  0.
    9900012    2    3    3    0    0 -0.34373448753E+00  0.36300877051E+02  0.61569757984E+01  0.54367079600E+02  0.39999989565E+02 0.  0.
         12    1    3    3    0    0  0.34373448753E+00 -0.36300877051E+02 -0.61569757984E+01  0.36820920400E+02  0.00000000000E+00 0. -1.
         11    1    4    4    0    0 -0.42968101307E+01 -0.24047218099E+01  0.93796293007E+01  0.10593522094E+02  0.51100000000E-03 0. -1.
        -11    1    4    4    0    0  0.88594434355E+01  0.18058605723E+02 -0.86076039706E+01  0.21879072764E+02  0.51100000000E-03 0.  1.
        -12    1    4    4    0    0 -0.49063677924E+01  0.20646993138E+02  0.53849504683E+01  0.21894484742E+02  0.00000000000E+00 0.  1.
</event>
<event>
 8    1  0.2433390E-006  0.9118800E+02  0.7816164E-02  0.1184000E+00
        -11   -1    0    0    0    0  0.00000000000E+00  0.00000000000E+00  0.45593999997E+02  0.45594000000E+02  0.51100000000E-03 0.  1.
         11   -1    0    0    0    0 -0.00000000000E+00 -0.00000000000E+00 -0.45593999997E+02  0.45594000000E+02  0.51100000000E-03 0. -1.
         23    2    1    2    0    0  0.00000000000E+00  0.00000000000E+00  0.35527136788E-14  0.91188000000E+02  0.91188000000E+02 0.  0.
    9900012    2    3    3    0    0 -0.23780066364E+01 -0.24660110052E+02  0.27239745753E+02  0.54367086214E+02  0.40000004642E+02 0.  0.
         12    1    3    3    0    0  0.23780066364E+01  0.24660110052E+02 -0.27239745753E+02  0.36820913786E+02  0.00000000000E+00 0. -1.
         11    1    4    4    0    0 -0.12312334808E+01  0.57176498125E+01 -0.14821183424E+01  0.60335835376E+01  0.51100000000E-03 0. -1.
        -11    1    4    4    0    0 -0.12414052875E+02 -0.18057640015E+02  0.13482068456E+02  0.25728451990E+02  0.51100000000E-03 0.  1.
         12    1    4    4    0    0  0.11267279720E+02 -0.12320119850E+02  0.15239795640E+02  0.22605050687E+02  0.00000000000E+00 0. -1.
</event>
<event>
 8    1  0.2433390E-006  0.9118800E+02  0.7816164E-02  0.1184000E+00
        -11   -1    0    0    0    0  0.00000000000E+00  0.00000000000E+00  0.45593999997E+02  0.45594000000E+02  0.51100000000E-03 0.  1.
         11   -1    0    0    0    0 -0.00000000000E+00 -0.00000000000E+00 -0.45593999997E+02  0.45594000000E+02  0.51100000000E-03 0. -1.
         23    2    1    2    0    0  0.00000000000E+00  0.17763568394E-14  0.00000000000E+00  0.91188000000E+02  0.91188000000E+02 0.  0.
    9900012    2    3    3    0    0 -0.34406184153E+02 -0.80814408603E+01 -0.10328819443E+02  0.54367086032E+02  0.40000004227E+02 0.  0.
        -12    1    3    3    0    0  0.34406184153E+02  0.80814408603E+01  0.10328819443E+02  0.36820913968E+02  0.00000000000E+00 0.  1.
         11    1    4    4    0    0 -0.26359648269E+02 -0.51476593628E+01 -0.20401533415E+01  0.26934952751E+02  0.51100000000E-03 0. -1.
        -11    1    4    4    0    0  0.13002199431E+01  0.10042381364E+02 -0.25569282429E+01  0.10444035507E+02  0.51100000000E-03 0.  1.
        -12    1    4    4    0    0 -0.93467558277E+01 -0.12976162862E+02 -0.57317378590E+01  0.16988097775E+02  0.00000000000E+00 0.  1.
</event>
<event>
 8    1  0.2433390E-006  0.9118800E+02  0.7816164E-02  0.1184000E+00
        -11   -1    0    0    0    0  0.00000000000E+00  0.00000000000E+00  0.45593999997E+02  0.45594000000E+02  0.51100000000E-03 0. -1.
         11   -1    0    0    0    0 -0.00000000000E+00 -0.00000000000E+00 -0.45593999997E+02  0.45594000000E+02  0.51100000000E-03 0.  1.
         23    2    1    2    0    0  0.00000000000E+00  0.35527136788E-14  0.00000000000E+00  0.91188000000E+02  0.91188000000E+02 0.  0.
    9900012    2    3    3    0    0 -0.13705383709E+02  0.18654507113E+02  0.28634801438E+02  0.54367081602E+02  0.39999994129E+02 0.  0.
        -12    1    3    3    0    0  0.13705383709E+02 -0.18654507113E+02 -0.28634801438E+02  0.36820918398E+02  0.00000000000E+00 0.  1.
         11    1    4    4    0    0 -0.43121530529E+01  0.20611075822E+02  0.68571273123E+01  0.22145683682E+02  0.51100000000E-03 0. -1.
        -11    1    4    4    0    0  0.48486943928E+01 -0.39114315133E+01  0.12473782902E+00  0.62309464438E+01  0.51100000000E-03 0.  1.
         12    1    4    4    0    0 -0.14241925049E+02  0.19548628042E+01  0.21652936297E+02  0.25990451477E+02  0.00000000000E+00 0. -1.
</event>
<event>
 8    1  0.2433390E-006  0.9118800E+02  0.7816164E-02  0.1184000E+00
        -11   -1    0    0    0    0  0.00000000000E+00  0.00000000000E+00  0.45593999997E+02  0.45594000000E+02  0.51100000000E-03 0.  1.
         11   -1    0    0    0    0 -0.00000000000E+00 -0.00000000000E+00 -0.45593999997E+02  0.45594000000E+02  0.51100000000E-03 0. -1.
         23    2    1    2    0    0  0.00000000000E+00  0.17763568394E-14  0.35527136788E-14  0.91188000000E+02  0.91188000000E+02 0.  0.
    9900012    2    3    3    0    0  0.18505013322E+02  0.77549644298E+01 -0.30874049794E+02  0.54367055661E+02  0.39999934990E+02 0.  0.
        -12    1    3    3    0    0 -0.18505013322E+02 -0.77549644298E+01  0.30874049794E+02  0.36820944339E+02  0.00000000000E+00 0.  1.
         11    1    4    4    0    0  0.13318022259E+02  0.18462838247E+02 -0.41954149800E+01  0.23148382668E+02  0.51100000000E-03 0. -1.
        -11    1    4    4    0    0  0.44624787546E+01 -0.11909685576E+02 -0.15956064032E+02  0.20404663850E+02  0.51100000000E-03 0.  1.
         12    1    4    4    0    0  0.72451230873E+00  0.12018117586E+01 -0.10722570781E+02  0.10814009143E+02  0.00000000000E+00 0. -1.
</event>
<event>
 8    1  0.2433390E-006  0.9118800E+02  0.7816164E-02  0.1184000E+00
        -11   -1    0    0    0    0  0.00000000000E+00  0.00000000000E+00  0.45593999997E+02  0.45594000000E+02  0.51100000000E-03 0. -1.
         11   -1    0    0    0    0 -0.00000000000E+00 -0.00000000000E+00 -0.45593999997E+02  0.45594000000E+02  0.51100000000E-03 0.  1.
         23    2    1    2    0    0 -0.35527136788E-14  0.00000000000E+00  0.00000000000E+00  0.91188000000E+02  0.91188000000E+02 0.  0.
    9900012    2    3    3    0    0 -0.24851760139E+02  0.82554392264E+01  0.25884669344E+02  0.54367104222E+02  0.40000045694E+02 0.  0.
        -12    1    3    3    0    0  0.24851760139E+02 -0.82554392264E+01 -0.25884669344E+02  0.36820895778E+02  0.00000000000E+00 0.  1.
         11    1    4    4    0    0 -0.17418234234E+02  0.20071428186E+02  0.98745829838E+01  0.28350740777E+02  0.51100000000E-03 0. -1.
        -11    1    4    4    0    0 -0.50093079185E+00 -0.10724777906E+02  0.28601396173E+01  0.11110904179E+02  0.51100000000E-03 0.  1.
        -12    1    4    4    0    0 -0.69325951138E+01 -0.10912110539E+01  0.13149946743E+02  0.14905459266E+02  0.00000000000E+00 0.  1.
</event>
<event>
 8    1  0.2433390E-006  0.9118800E+02  0.7816164E-02  0.1184000E+00
        -11   -1    0    0    0    0  0.00000000000E+00  0.00000000000E+00  0.45593999997E+02  0.45594000000E+02  0.51100000000E-03 0. -1.
         11   -1    0    0    0    0 -0.00000000000E+00 -0.00000000000E+00 -0.45593999997E+02  0.45594000000E+02  0.51100000000E-03 0.  1.
         23    2    1    2    0    0  0.00000000000E+00 -0.71054273576E-14  0.00000000000E+00  0.91188000000E+02  0.91188000000E+02 0.  0.
    9900012    2    3    3    0    0 -0.31568097162E+01  0.33764418990E+02  0.14344985513E+02  0.54367081398E+02  0.39999993664E+02 0.  0.
        -12    1    3    3    0    0  0.31568097162E+01 -0.33764418990E+02 -0.14344985513E+02  0.36820918602E+02  0.00000000000E+00 0.  1.
         11    1    4    4    0    0  0.24050684212E+01  0.31976846920E+00 -0.10258152947E+01  0.26341798087E+01  0.51100000000E-03 0. -1.
        -11    1    4    4    0    0  0.24905794938E+01 -0.58098014063E+01  0.92392254588E+01  0.11194644520E+02  0.51100000000E-03 0.  1.
         12    1    4    4    0    0 -0.80524576312E+01  0.39254451927E+02  0.61315753485E+01  0.40538257070E+02  0.00000000000E+00 0. -1.
</event>
<event>
 8    1  0.2433390E-006  0.9118800E+02  0.7816164E-02  0.1184000E+00
        -11   -1    0    0    0    0  0.00000000000E+00  0.00000000000E+00  0.45593999997E+02  0.45594000000E+02  0.51100000000E-03 0. -1.
         11   -1    0    0    0    0 -0.00000000000E+00 -0.00000000000E+00 -0.45593999997E+02  0.45594000000E+02  0.51100000000E-03 0.  1.
         23    2    1    2    0    0 -0.17763568394E-14 -0.35527136788E-14  0.00000000000E+00  0.91188000000E+02  0.91188000000E+02 0.  0.
    9900012    2    3    3    0    0 -0.11457253985E+02 -0.30315338029E+02 -0.17478398820E+02  0.54367043820E+02  0.39999907996E+02 0.  0.
         12    1    3    3    0    0  0.11457253985E+02  0.30315338029E+02  0.17478398820E+02  0.36820956180E+02  0.00000000000E+00 0. -1.
         11    1    4    4    0    0  0.61260485300E+01 -0.49932646532E+01 -0.43603820928E+01  0.90263001693E+01  0.51100000000E-03 0.  1.
        -11    1    4    4    0    0 -0.18867661378E+02 -0.30874805928E+02 -0.67730462134E+01  0.36811906256E+02  0.51100000000E-03 0. -1.
         12    1    4    4    0    0  0.12843588628E+01  0.55527325514E+01 -0.63449705140E+01  0.85288373943E+01  0.00000000000E+00 0. -1.
</event>
<event>
 8    1  0.2433390E-006  0.9118800E+02  0.7816164E-02  0.1184000E+00
        -11   -1    0    0    0    0  0.00000000000E+00  0.00000000000E+00  0.45593999997E+02  0.45594000000E+02  0.51100000000E-03 0.  1.
         11   -1    0    0    0    0 -0.00000000000E+00 -0.00000000000E+00 -0.45593999997E+02  0.45594000000E+02  0.51100000000E-03 0. -1.
         23    2    1    2    0    0  0.00000000000E+00 -0.35527136788E-14  0.00000000000E+00  0.91188000000E+02  0.91188000000E+02 0.  0.
    9900012    2    3    3    0    0  0.45460275106E+01 -0.30933145574E+02 -0.19448737157E+02  0.54367092377E+02  0.40000018691E+02 0.  0.
        -12    1    3    3    0    0 -0.45460275106E+01  0.30933145574E+02  0.19448737157E+02  0.36820907623E+02  0.00000000000E+00 0.  1.
         11    1    4    4    0    0 -0.49739785418E+01 -0.11104151006E+02 -0.75638642920E+01  0.14326711953E+02  0.51100000000E-03 0. -1.
        -11    1    4    4    0    0  0.78846980793E+01 -0.10426106019E+01  0.89269260090E+01  0.11955982139E+02  0.51100000000E-03 0.  1.
        -12    1    4    4    0    0  0.16353079730E+01 -0.18786383966E+02 -0.20811798874E+02  0.28084398285E+02  0.00000000000E+00 0.  1.
</event>
<event>
 8    1  0.2433390E-006  0.9118800E+02  0.7816164E-02  0.1184000E+00
        -11   -1    0    0    0    0  0.00000000000E+00  0.00000000000E+00  0.45593999997E+02  0.45594000000E+02  0.51100000000E-03 0. -1.
         11   -1    0    0    0    0 -0.00000000000E+00 -0.00000000000E+00 -0.45593999997E+02  0.45594000000E+02  0.51100000000E-03 0.  1.
         23    2    1    2    0    0 -0.35527136788E-14 -0.35527136788E-14  0.00000000000E+00  0.91188000000E+02  0.91188000000E+02 0.  0.
    9900012    2    3    3    0    0  0.19687258752E+02  0.19321053711E+02 -0.24390306607E+02  0.54367104709E+02  0.40000046804E+02 0.  0.
         12    1    3    3    0    0 -0.19687258752E+02 -0.19321053711E+02  0.24390306607E+02  0.36820895291E+02  0.00000000000E+00 0. -1.
         11    1    4    4    0    0  0.64215829985E+01  0.52045838227E+01  0.38236274135E+01  0.91073897376E+01  0.51100000000E-03 0. -1.
        -11    1    4    4    0    0  0.16282185118E+02 -0.39788952002E+01 -0.16334585161E+02  0.23404269522E+02  0.51100000000E-03 0.  1.
        -12    1    4    4    0    0 -0.30165093644E+01  0.18095365088E+02 -0.11879348860E+02  0.21855445449E+02  0.00000000000E+00 0.  1.
</event>
<event>
 8    1  0.2433390E-006  0.9118800E+02  0.7816164E-02  0.1184000E+00
        -11   -1    0    0    0    0  0.00000000000E+00  0.00000000000E+00  0.45593999997E+02  0.45594000000E+02  0.51100000000E-03 0. -1.
         11   -1    0    0    0    0 -0.00000000000E+00 -0.00000000000E+00 -0.45593999997E+02  0.45594000000E+02  0.51100000000E-03 0.  1.
         23    2    1    2    0    0  0.00000000000E+00  0.00000000000E+00  0.00000000000E+00  0.91188000000E+02  0.91188000000E+02 0.  0.
    9900012    2    3    3    0    0 -0.31047581165E+02 -0.15422920168E+02 -0.12408098887E+02  0.54367086368E+02  0.40000004993E+02 0.  0.
         12    1    3    3    0    0  0.31047581165E+02  0.15422920168E+02  0.12408098887E+02  0.36820913632E+02  0.00000000000E+00 0. -1.
         11    1    4    4    0    0  0.55515162191E+00 -0.28082119290E+00  0.42061921306E+01  0.42519532413E+01  0.51100000000E-03 0.  1.
        -11    1    4    4    0    0 -0.25463019642E+02  0.51426565941E+01 -0.74440698878E+01  0.27022702731E+02  0.51100000000E-03 0. -1.
        -12    1    4    4    0    0 -0.61397131446E+01 -0.20284755569E+02 -0.91702211300E+01  0.23092430395E+02  0.00000000000E+00 0.  1.
</event>
<event>
 8    1  0.2433390E-006  0.9118800E+02  0.7816164E-02  0.1184000E+00
        -11   -1    0    0    0    0  0.00000000000E+00  0.00000000000E+00  0.45593999997E+02  0.45594000000E+02  0.51100000000E-03 0. -1.
         11   -1    0    0    0    0 -0.00000000000E+00 -0.00000000000E+00 -0.45593999997E+02  0.45594000000E+02  0.51100000000E-03 0.  1.
         23    2    1    2    0    0 -0.17763568394E-14  0.35527136788E-14  0.35527136788E-14  0.91188000000E+02  0.91188000000E+02 0.  0.
    9900012    2    3    3    0    0  0.14051235403E+02 -0.15868902773E+02  0.30108759375E+02  0.54366855494E+02  0.39999478667E+02 0.  0.
        -12    1    3    3    0    0 -0.14051235403E+02  0.15868902773E+02 -0.30108759375E+02  0.36821144506E+02  0.00000000000E+00 0.  1.
         11    1    4    4    0    0 -0.32444560973E+01 -0.80746034259E+01  0.32467460018E+02  0.33613415121E+02  0.51100000000E-03 0. -1.
        -11    1    4    4    0    0  0.66862748854E+01 -0.26440570942E+01  0.30110211265E+01  0.77950983474E+01  0.51100000000E-03 0.  1.
        -12    1    4    4    0    0  0.10609416615E+02 -0.51502422533E+01 -0.53697217689E+01  0.12958342026E+02  0.00000000000E+00 0.  1.
</event>
<event>
 8    1  0.2433390E-006  0.9118800E+02  0.7816164E-02  0.1184000E+00
        -11   -1    0    0    0    0  0.00000000000E+00  0.00000000000E+00  0.45593999997E+02  0.45594000000E+02  0.51100000000E-03 0. -1.
         11   -1    0    0    0    0 -0.00000000000E+00 -0.00000000000E+00 -0.45593999997E+02  0.45594000000E+02  0.51100000000E-03 0.  1.
         23    2    1    2    0    0  0.00000000000E+00  0.00000000000E+00  0.00000000000E+00  0.91188000000E+02  0.91188000000E+02 0.  0.
    9900012    2    3    3    0    0  0.10283205732E+02  0.29736635108E+02  0.19125100541E+02  0.54367064944E+02  0.39999956153E+02 0.  0.
         12    1    3    3    0    0 -0.10283205732E+02 -0.29736635108E+02 -0.19125100541E+02  0.36820935056E+02  0.00000000000E+00 0. -1.
         11    1    4    4    0    0 -0.17831759716E+01  0.41548052604E+01  0.12110022775E+02  0.12926514424E+02  0.51100000000E-03 0. -1.
        -11    1    4    4    0    0  0.60348638322E+01 -0.31371147175E+01  0.98373147610E+01  0.11959675254E+02  0.51100000000E-03 0.  1.
        -12    1    4    4    0    0  0.60315178715E+01  0.28718944565E+02 -0.28222369945E+01  0.29480875265E+02  0.00000000000E+00 0.  1.
</event>
<event>
 8    1  0.2433390E-006  0.9118800E+02  0.7816164E-02  0.1184000E+00
        -11   -1    0    0    0    0  0.00000000000E+00  0.00000000000E+00  0.45593999997E+02  0.45594000000E+02  0.51100000000E-03 0.  1.
         11   -1    0    0    0    0 -0.00000000000E+00 -0.00000000000E+00 -0.45593999997E+02  0.45594000000E+02  0.51100000000E-03 0. -1.
         23    2    1    2    0    0  0.00000000000E+00 -0.35527136788E-14 -0.88817841970E-15  0.91188000000E+02  0.91188000000E+02 0.  0.
    9900012    2    3    3    0    0 -0.25669384862E+02 -0.26059661693E+02  0.42136557212E+01  0.54367106729E+02  0.40000051410E+02 0.  0.
         12    1    3    3    0    0  0.25669384862E+02  0.26059661693E+02 -0.42136557212E+01  0.36820893271E+02  0.00000000000E+00 0. -1.
         11    1    4    4    0    0 -0.16587446053E+02 -0.26125506816E+02  0.57178775965E+01  0.31470297066E+02  0.51100000000E-03 0. -1.
        -11    1    4    4    0    0 -0.92257603682E+01 -0.25422445725E+01  0.83511553912E+01  0.12701159729E+02  0.51100000000E-03 0.  1.
         12    1    4    4    0    0  0.14382155951E+00  0.26080896959E+01 -0.98553772666E+01  0.10195649934E+02  0.00000000000E+00 0. -1.
</event>
<event>
 8    1  0.2433390E-006  0.9118800E+02  0.7816164E-02  0.1184000E+00
        -11   -1    0    0    0    0  0.00000000000E+00  0.00000000000E+00  0.45593999997E+02  0.45594000000E+02  0.51100000000E-03 0.  1.
         11   -1    0    0    0    0 -0.00000000000E+00 -0.00000000000E+00 -0.45593999997E+02  0.45594000000E+02  0.51100000000E-03 0. -1.
         23    2    1    2    0    0  0.00000000000E+00  0.00000000000E+00  0.00000000000E+00  0.91188000000E+02  0.91188000000E+02 0.  0.
    9900012    2    3    3    0    0  0.16361451932E+02 -0.20484570650E+02  0.25854698043E+02  0.54367079928E+02  0.39999990312E+02 0.  0.
         12    1    3    3    0    0 -0.16361451932E+02  0.20484570650E+02 -0.25854698043E+02  0.36820920072E+02  0.00000000000E+00 0. -1.
         11    1    4    4    0    0  0.70840758523E+01 -0.15197277741E+02 -0.26458065524E+01  0.16974736345E+02  0.51100000000E-03 0.  1.
        -11    1    4    4    0    0 -0.11285237613E+01  0.65429486590E+01  0.27126900905E+01  0.71723378910E+01  0.51100000000E-03 0. -1.
        -12    1    4    4    0    0  0.10405899841E+02 -0.11830241569E+02  0.25787814505E+02  0.30220005692E+02  0.00000000000E+00 0.  1.
</event>
<event>
 8    1  0.2433390E-006  0.9118800E+02  0.7816164E-02  0.1184000E+00
        -11   -1    0    0    0    0  0.00000000000E+00  0.00000000000E+00  0.45593999997E+02  0.45594000000E+02  0.51100000000E-03 0.  1.
         11   -1    0    0    0    0 -0.00000000000E+00 -0.00000000000E+00 -0.45593999997E+02  0.45594000000E+02  0.51100000000E-03 0. -1.
         23    2    1    2    0    0  0.00000000000E+00  0.17763568394E-14  0.35527136788E-14  0.91188000000E+02  0.91188000000E+02 0.  0.
    9900012    2    3    3    0    0  0.16756041152E+02  0.14153683623E+02 -0.29575126264E+02  0.54367085173E+02  0.40000002268E+02 0.  0.
        -12    1    3    3    0    0 -0.16756041152E+02 -0.14153683623E+02  0.29575126264E+02  0.36820914827E+02  0.00000000000E+00 0.  1.
         11    1    4    4    0    0  0.15663480091E+00  0.40198903661E+01  0.27929039391E+01  0.48973835555E+01  0.51100000000E-03 0. -1.
        -11    1    4    4    0    0  0.16598570115E+02  0.28708627722E+01 -0.57201032512E+00  0.16854719783E+02  0.51100000000E-03 0.  1.
        -12    1    4    4    0    0  0.83623608504E-03  0.72629304846E+01 -0.31796019878E+02  0.32614981834E+02  0.00000000000E+00 0.  1.
</event>
<event>
 8    1  0.2433390E-006  0.9118800E+02  0.7816164E-02  0.1184000E+00
        -11   -1    0    0    0    0  0.00000000000E+00  0.00000000000E+00  0.45593999997E+02  0.45594000000E+02  0.51100000000E-03 0. -1.
         11   -1    0    0    0    0 -0.00000000000E+00 -0.00000000000E+00 -0.45593999997E+02  0.45594000000E+02  0.51100000000E-03 0.  1.
         23    2    1    2    0    0  0.00000000000E+00  0.00000000000E+00  0.00000000000E+00  0.91188000000E+02  0.91188000000E+02 0.  0.
    9900012    2    3    3    0    0  0.25742353365E+02  0.21812361878E+02 -0.14742162609E+02  0.54367092272E+02  0.40000018454E+02 0.  0.
         12    1    3    3    0    0 -0.25742353365E+02 -0.21812361878E+02  0.14742162609E+02  0.36820907728E+02  0.00000000000E+00 0. -1.
         11    1    4    4    0    0  0.95691690403E+01 -0.42210479786E+01 -0.35036175310E+01  0.11030030744E+02  0.51100000000E-03 0. -1.
        -11    1    4    4    0    0  0.19839085343E+02  0.74790509988E+01  0.25872707945E+00  0.21203595239E+02  0.51100000000E-03 0.  1.
         12    1    4    4    0    0 -0.36659010181E+01  0.18554358858E+02 -0.11497272157E+02  0.22133466289E+02  0.00000000000E+00 0. -1.
</event>
<event>
 8    1  0.2433390E-006  0.9118800E+02  0.7816164E-02  0.1184000E+00
        -11   -1    0    0    0    0  0.00000000000E+00  0.00000000000E+00  0.45593999997E+02  0.45594000000E+02  0.51100000000E-03 0.  1.
         11   -1    0    0    0    0 -0.00000000000E+00 -0.00000000000E+00 -0.45593999997E+02  0.45594000000E+02  0.51100000000E-03 0. -1.
         23    2    1    2    0    0  0.00000000000E+00 -0.35527136788E-14  0.00000000000E+00  0.91188000000E+02  0.91188000000E+02 0.  0.
    9900012    2    3    3    0    0 -0.12955126903E+02  0.30940192754E+02 -0.15187333895E+02  0.54367001214E+02  0.39999810867E+02 0.  0.
        -12    1    3    3    0    0  0.12955126903E+02 -0.30940192754E+02  0.15187333895E+02  0.36820998786E+02  0.00000000000E+00 0.  1.
         11    1    4    4    0    0 -0.18735998858E+01  0.26499752940E+01 -0.53458856124E+01  0.62538978911E+01  0.51100000000E-03 0. -1.
        -11    1    4    4    0    0  0.90512275371E+01 -0.31305622915E+01 -0.24037439177E+00  0.95803403018E+01  0.51100000000E-03 0.  1.
        -12    1    4    4    0    0 -0.20132754555E+02  0.31420779752E+02 -0.96010738909E+01  0.38532763021E+02  0.00000000000E+00 0.  1.
</event>
<event>
 8    1  0.2433390E-006  0.9118800E+02  0.7816164E-02  0.1184000E+00
        -11   -1    0    0    0    0  0.00000000000E+00  0.00000000000E+00  0.45593999997E+02  0.45594000000E+02  0.51100000000E-03 0.  1.
         11   -1    0    0    0    0 -0.00000000000E+00 -0.00000000000E+00 -0.45593999997E+02  0.45594000000E+02  0.51100000000E-03 0. -1.
         23    2    1    2    0    0  0.35527136788E-14  0.00000000000E+00  0.35527136788E-14  0.91188000000E+02  0.91188000000E+02 0.  0.
    9900012    2    3    3    0    0  0.21656799828E+02  0.91502782334E+01  0.28337874482E+02  0.54367086096E+02  0.40000004374E+02 0.  0.
         12    1    3    3    0    0 -0.21656799828E+02 -0.91502782334E+01 -0.28337874482E+02  0.36820913904E+02  0.00000000000E+00 0. -1.
         11    1    4    4    0    0  0.54368544430E+01  0.45885922563E+01 -0.20115834768E+01  0.73933100486E+01  0.51100000000E-03 0. -1.
        -11    1    4    4    0    0  0.19057932511E+02  0.86636800274E+01  0.34586667485E+02  0.40428971186E+02  0.51100000000E-03 0.  1.
        -12    1    4    4    0    0 -0.28379871255E+01 -0.41019940503E+01 -0.42372095259E+01  0.65448048619E+01  0.00000000000E+00 0.  1.
</event>
<event>
 8    1  0.2433390E-006  0.9118800E+02  0.7816164E-02  0.1184000E+00
        -11   -1    0    0    0    0  0.00000000000E+00  0.00000000000E+00  0.45593999997E+02  0.45594000000E+02  0.51100000000E-03 0. -1.
         11   -1    0    0    0    0 -0.00000000000E+00 -0.00000000000E+00 -0.45593999997E+02  0.45594000000E+02  0.51100000000E-03 0.  1.
         23    2    1    2    0    0 -0.88817841970E-15  0.00000000000E+00  0.00000000000E+00  0.91188000000E+02  0.91188000000E+02 0.  0.
    9900012    2    3    3    0    0 -0.75145664601E+01  0.32277077364E+02  0.16046833774E+02  0.54367091450E+02  0.40000016579E+02 0.  0.
        -12    1    3    3    0    0  0.75145664601E+01 -0.32277077364E+02 -0.16046833774E+02  0.36820908550E+02  0.00000000000E+00 0.  1.
         11    1    4    4    0    0 -0.16777868422E+02  0.20383513029E+02  0.13600493236E+02  0.29697775821E+02  0.51100000000E-03 0. -1.
        -11    1    4    4    0    0  0.99035394992E+01 -0.19144828055E+01 -0.17193651156E+01  0.10232377812E+02  0.51100000000E-03 0.  1.
         12    1    4    4    0    0 -0.64023753769E+00  0.13808047141E+02  0.41657056538E+01  0.14436937817E+02  0.00000000000E+00 0. -1.
</event>
<event>
 8    1  0.2433390E-006  0.9118800E+02  0.7816164E-02  0.1184000E+00
        -11   -1    0    0    0    0  0.00000000000E+00  0.00000000000E+00  0.45593999997E+02  0.45594000000E+02  0.51100000000E-03 0.  1.
         11   -1    0    0    0    0 -0.00000000000E+00 -0.00000000000E+00 -0.45593999997E+02  0.45594000000E+02  0.51100000000E-03 0. -1.
         23    2    1    2    0    0  0.35527136788E-14  0.35527136788E-14  0.00000000000E+00  0.91188000000E+02  0.91188000000E+02 0.  0.
    9900012    2    3    3    0    0  0.22595061348E+02  0.23555065624E+02 -0.17041180513E+02  0.54367085466E+02  0.40000002936E+02 0.  0.
        -12    1    3    3    0    0 -0.22595061348E+02 -0.23555065624E+02  0.17041180513E+02  0.36820914534E+02  0.00000000000E+00 0.  1.
         11    1    4    4    0    0  0.21771724423E+02  0.34643425989E+01 -0.20770104452E+02  0.30288725513E+02  0.51100000000E-03 0. -1.
        -11    1    4    4    0    0  0.23047495444E+01  0.10120434209E+02  0.80262304246E+01  0.13120801581E+02  0.51100000000E-03 0.  1.
         12    1    4    4    0    0 -0.14814126194E+01  0.99702888162E+01 -0.42973064849E+01  0.10957558371E+02  0.00000000000E+00 0. -1.
</event>
<event>
 8    1  0.2433390E-006  0.9118800E+02  0.7816164E-02  0.1184000E+00
        -11   -1    0    0    0    0  0.00000000000E+00  0.00000000000E+00  0.45593999997E+02  0.45594000000E+02  0.51100000000E-03 0.  1.
         11   -1    0    0    0    0 -0.00000000000E+00 -0.00000000000E+00 -0.45593999997E+02  0.45594000000E+02  0.51100000000E-03 0. -1.
         23    2    1    2    0    0  0.35527136788E-14  0.88817841970E-15  0.00000000000E+00  0.91188000000E+02  0.91188000000E+02 0.  0.
    9900012    2    3    3    0    0 -0.30200147855E+02  0.39987788154E+01  0.20681907121E+02  0.54367075994E+02  0.39999981344E+02 0.  0.
        -12    1    3    3    0    0  0.30200147855E+02 -0.39987788154E+01 -0.20681907121E+02  0.36820924006E+02  0.00000000000E+00 0.  1.
         11    1    4    4    0    0 -0.66300226702E+01 -0.91996587006E+01  0.26006192543E+01  0.11634179884E+02  0.51100000000E-03 0. -1.
        -11    1    4    4    0    0 -0.81158396139E+01 -0.59430588803E+01 -0.28248151581E+01  0.10448271744E+02  0.51100000000E-03 0.  1.
        -12    1    4    4    0    0 -0.15454285571E+02  0.19141496396E+02  0.20906103024E+02  0.32284624366E+02  0.00000000000E+00 0.  1.
</event>
<event>
 8    1  0.2433390E-006  0.9118800E+02  0.7816164E-02  0.1184000E+00
        -11   -1    0    0    0    0  0.00000000000E+00  0.00000000000E+00  0.45593999997E+02  0.45594000000E+02  0.51100000000E-03 0. -1.
         11   -1    0    0    0    0 -0.00000000000E+00 -0.00000000000E+00 -0.45593999997E+02  0.45594000000E+02  0.51100000000E-03 0.  1.
         23    2    1    2    0    0  0.71054273576E-14  0.71054273576E-14  0.00000000000E+00  0.91188000000E+02  0.91188000000E+02 0.  0.
    9900012    2    3    3    0    0  0.12131609300E+02  0.30598105347E+02  0.16503386923E+02  0.54367057929E+02  0.39999940162E+02 0.  0.
        -12    1    3    3    0    0 -0.12131609300E+02 -0.30598105347E+02 -0.16503386923E+02  0.36820942071E+02  0.00000000000E+00 0.  1.
         11    1    4    4    0    0  0.15015346539E+02  0.21211011623E+02  0.75910882555E+01  0.27073829927E+02  0.51100000000E-03 0. -1.
        -11    1    4    4    0    0 -0.10353875075E+02  0.37003458360E+01 -0.36724543608E+01  0.11592334091E+02  0.51100000000E-03 0.  1.
        -12    1    4    4    0    0  0.74701378366E+01  0.56867478876E+01  0.12584753028E+02  0.15700893911E+02  0.00000000000E+00 0.  1.
</event>
<event>
 8    1  0.2433390E-006  0.9118800E+02  0.7816164E-02  0.1184000E+00
        -11   -1    0    0    0    0  0.00000000000E+00  0.00000000000E+00  0.45593999997E+02  0.45594000000E+02  0.51100000000E-03 0. -1.
         11   -1    0    0    0    0 -0.00000000000E+00 -0.00000000000E+00 -0.45593999997E+02  0.45594000000E+02  0.51100000000E-03 0.  1.
         23    2    1    2    0    0 -0.35527136788E-14 -0.35527136788E-14  0.35527136788E-14  0.91188000000E+02  0.91188000000E+02 0.  0.
    9900012    2    3    3    0    0  0.20893635083E+02  0.16797859276E+02  0.25240177968E+02  0.54367100403E+02  0.40000036989E+02 0.  0.
        -12    1    3    3    0    0 -0.20893635083E+02 -0.16797859276E+02 -0.25240177968E+02  0.36820899597E+02  0.00000000000E+00 0.  1.
         11    1    4    4    0    0 -0.11717325321E+01  0.44689445772E+01  0.19782303471E+02  0.20314624132E+02  0.51100000000E-03 0.  1.
        -11    1    4    4    0    0  0.62933422762E+01  0.11305263442E+02 -0.62634918180E+01  0.14375203251E+02  0.51100000000E-03 0. -1.
         12    1    4    4    0    0  0.15772025339E+02  0.10236512570E+01  0.11721366316E+02  0.19677273020E+02  0.00000000000E+00 0. -1.
</event>
<event>
 8    1  0.2433390E-006  0.9118800E+02  0.7816164E-02  0.1184000E+00
        -11   -1    0    0    0    0  0.00000000000E+00  0.00000000000E+00  0.45593999997E+02  0.45594000000E+02  0.51100000000E-03 0.  1.
         11   -1    0    0    0    0 -0.00000000000E+00 -0.00000000000E+00 -0.45593999997E+02  0.45594000000E+02  0.51100000000E-03 0. -1.
         23    2    1    2    0    0  0.00000000000E+00  0.00000000000E+00  0.17763568394E-14  0.91188000000E+02  0.91188000000E+02 0.  0.
    9900012    2    3    3    0    0  0.31916454137E+02  0.11002333249E+02  0.14699310756E+02  0.54367066846E+02  0.39999960489E+02 0.  0.
         12    1    3    3    0    0 -0.31916454137E+02 -0.11002333249E+02 -0.14699310756E+02  0.36820933154E+02  0.00000000000E+00 0. -1.
         11    1    4    4    0    0 -0.49941762910E+01 -0.19894456272E+01 -0.67387046826E+01  0.86203150633E+01  0.51100000000E-03 0. -1.
        -11    1    4    4    0    0  0.11053530011E+02  0.30699254802E+01  0.11709026423E+02  0.16392262449E+02  0.51100000000E-03 0.  1.
         12    1    4    4    0    0  0.25857100417E+02  0.99218533960E+01  0.97289890162E+01  0.29354489334E+02  0.00000000000E+00 0. -1.
</event>
<event>
 8    1  0.2433390E-006  0.9118800E+02  0.7816164E-02  0.1184000E+00
        -11   -1    0    0    0    0  0.00000000000E+00  0.00000000000E+00  0.45593999997E+02  0.45594000000E+02  0.51100000000E-03 0. -1.
         11   -1    0    0    0    0 -0.00000000000E+00 -0.00000000000E+00 -0.45593999997E+02  0.45594000000E+02  0.51100000000E-03 0.  1.
         23    2    1    2    0    0  0.71054273576E-14  0.00000000000E+00  0.00000000000E+00  0.91188000000E+02  0.91188000000E+02 0.  0.
    9900012    2    3    3    0    0 -0.18170197495E+02  0.15754022789E+02 -0.27882505200E+02  0.54367090081E+02  0.40000013457E+02 0.  0.
         12    1    3    3    0    0  0.18170197495E+02 -0.15754022789E+02  0.27882505200E+02  0.36820909919E+02  0.00000000000E+00 0. -1.
         11    1    4    4    0    0  0.29319316300E+01  0.12317758934E+02 -0.11668586631E+01  0.12715540399E+02  0.51100000000E-03 0. -1.
        -11    1    4    4    0    0 -0.11839203385E+02 -0.15342300474E+01  0.10286969456E+01  0.11982437827E+02  0.51100000000E-03 0.  1.
         12    1    4    4    0    0 -0.92629257402E+01  0.49704939019E+01 -0.27744343483E+02  0.29669111854E+02  0.00000000000E+00 0. -1.
</event>
<event>
 8    1  0.2433390E-006  0.9118800E+02  0.7816164E-02  0.1184000E+00
        -11   -1    0    0    0    0  0.00000000000E+00  0.00000000000E+00  0.45593999997E+02  0.45594000000E+02  0.51100000000E-03 0.  1.
         11   -1    0    0    0    0 -0.00000000000E+00 -0.00000000000E+00 -0.45593999997E+02  0.45594000000E+02  0.51100000000E-03 0. -1.
         23    2    1    2    0    0  0.00000000000E+00  0.35527136788E-14  0.00000000000E+00  0.91188000000E+02  0.91188000000E+02 0.  0.
    9900012    2    3    3    0    0  0.89576035957E+01 -0.25758774220E+02  0.24738828757E+02  0.54367316142E+02  0.40000528805E+02 0.  0.
         12    1    3    3    0    0 -0.89576035957E+01  0.25758774220E+02 -0.24738828757E+02  0.36820683858E+02  0.00000000000E+00 0. -1.
         11    1    4    4    0    0  0.40929633347E+01  0.55469042743E+01  0.66749379603E+01  0.95955871588E+01  0.51100000000E-03 0. -1.
        -11    1    4    4    0    0 -0.10462327127E+02 -0.15639621993E+02  0.10728428548E+02  0.21660037959E+02  0.51100000000E-03 0.  1.
         12    1    4    4    0    0  0.15326967388E+02 -0.15666056501E+02  0.73354622488E+01  0.23111691024E+02  0.00000000000E+00 0. -1.
</event>
<event>
 8    1  0.2433390E-006  0.9118800E+02  0.7816164E-02  0.1184000E+00
        -11   -1    0    0    0    0  0.00000000000E+00  0.00000000000E+00  0.45593999997E+02  0.45594000000E+02  0.51100000000E-03 0. -1.
         11   -1    0    0    0    0 -0.00000000000E+00 -0.00000000000E+00 -0.45593999997E+02  0.45594000000E+02  0.51100000000E-03 0.  1.
         23    2    1    2    0    0  0.00000000000E+00 -0.27755575616E-15  0.00000000000E+00  0.91188000000E+02  0.91188000000E+02 0.  0.
    9900012    2    3    3    0    0 -0.15557309306E+02 -0.41020549539E+00  0.33370346430E+02  0.54367106987E+02  0.40000051999E+02 0.  0.
        -12    1    3    3    0    0  0.15557309306E+02  0.41020549539E+00 -0.33370346430E+02  0.36820893013E+02  0.00000000000E+00 0.  1.
         11    1    4    4    0    0 -0.71864172656E+00  0.59662147795E+00  0.10468449590E+02  0.10510035214E+02  0.51100000000E-03 0. -1.
        -11    1    4    4    0    0 -0.29449970877E+01 -0.15445360373E+02  0.19149975523E+02  0.24778089670E+02  0.51100000000E-03 0.  1.
        -12    1    4    4    0    0 -0.11893670492E+02  0.14438533400E+02  0.37519213171E+01  0.19078982103E+02  0.00000000000E+00 0.  1.
</event>
<event>
 8    1  0.2433390E-006  0.9118800E+02  0.7816164E-02  0.1184000E+00
        -11   -1    0    0    0    0  0.00000000000E+00  0.00000000000E+00  0.45593999997E+02  0.45594000000E+02  0.51100000000E-03 0. -1.
         11   -1    0    0    0    0 -0.00000000000E+00 -0.00000000000E+00 -0.45593999997E+02  0.45594000000E+02  0.51100000000E-03 0.  1.
         23    2    1    2    0    0  0.88817841970E-15  0.17763568394E-14 -0.71054273576E-14  0.91188000000E+02  0.91188000000E+02 0.  0.
    9900012    2    3    3    0    0  0.76273403411E+01  0.10818317171E+02 -0.34359408208E+02  0.54367065201E+02  0.39999956738E+02 0.  0.
         12    1    3    3    0    0 -0.76273403411E+01 -0.10818317171E+02  0.34359408208E+02  0.36820934799E+02  0.00000000000E+00 0. -1.
         11    1    4    4    0    0  0.13459909633E+01  0.53645275199E+01 -0.43848138028E+01  0.70580761919E+01  0.51100000000E-03 0.  1.
        -11    1    4    4    0    0  0.40906484844E+01  0.14552020291E+02  0.80572038563E+00  0.15137499304E+02  0.51100000000E-03 0. -1.
         12    1    4    4    0    0  0.21907008933E+01 -0.90982306400E+01 -0.30780314791E+02  0.32171489705E+02  0.00000000000E+00 0. -1.
</event>
<event>
 8    1  0.2433390E-006  0.9118800E+02  0.7816164E-02  0.1184000E+00
        -11   -1    0    0    0    0  0.00000000000E+00  0.00000000000E+00  0.45593999997E+02  0.45594000000E+02  0.51100000000E-03 0. -1.
         11   -1    0    0    0    0 -0.00000000000E+00 -0.00000000000E+00 -0.45593999997E+02  0.45594000000E+02  0.51100000000E-03 0.  1.
         23    2    1    2    0    0  0.00000000000E+00 -0.55511151231E-15  0.71054273576E-14  0.91188000000E+02  0.91188000000E+02 0.  0.
    9900012    2    3    3    0    0  0.58198880055E+01 -0.46829250916E+00 -0.36355074909E+02  0.54367056695E+02  0.39999937347E+02 0.  0.
         12    1    3    3    0    0 -0.58198880055E+01  0.46829250916E+00  0.36355074909E+02  0.36820943305E+02  0.00000000000E+00 0. -1.
         11    1    4    4    0    0  0.42744634482E+01  0.24391670136E+01  0.79827032465E+01  0.93778528925E+01  0.51100000000E-03 0. -1.
        -11    1    4    4    0    0 -0.26253279901E+01 -0.19313813028E+01 -0.22554858460E+02  0.22789125064E+02  0.51100000000E-03 0.  1.
         12    1    4    4    0    0  0.41707525474E+01 -0.97607821995E+00 -0.21782919696E+02  0.22200078738E+02  0.00000000000E+00 0. -1.
</event>
<event>
 8    1  0.2433390E-006  0.9118800E+02  0.7816164E-02  0.1184000E+00
        -11   -1    0    0    0    0  0.00000000000E+00  0.00000000000E+00  0.45593999997E+02  0.45594000000E+02  0.51100000000E-03 0.  1.
         11   -1    0    0    0    0 -0.00000000000E+00 -0.00000000000E+00 -0.45593999997E+02  0.45594000000E+02  0.51100000000E-03 0. -1.
         23    2    1    2    0    0  0.35527136788E-14 -0.26645352591E-14 -0.35527136788E-14  0.91188000000E+02  0.91188000000E+02 0.  0.
    9900012    2    3    3    0    0 -0.29605466317E+02  0.78961110523E+01  0.20419269855E+02  0.54367098504E+02  0.40000032659E+02 0.  0.
         12    1    3    3    0    0  0.29605466317E+02 -0.78961110523E+01 -0.20419269855E+02  0.36820901496E+02  0.00000000000E+00 0. -1.
         11    1    4    4    0    0 -0.21245679286E+01 -0.33330804487E+01 -0.41440258652E+01  0.57267935875E+01  0.51100000000E-03 0. -1.
        -11    1    4    4    0    0 -0.18826329414E+02 -0.13437087275E+01  0.27243827228E+02  0.33143058921E+02  0.51100000000E-03 0.  1.
         12    1    4    4    0    0 -0.86545689740E+01  0.12572900228E+02 -0.26805315079E+01  0.15497245996E+02  0.00000000000E+00 0. -1.
</event>
<event>
 8    1  0.2433390E-006  0.9118800E+02  0.7816164E-02  0.1184000E+00
        -11   -1    0    0    0    0  0.00000000000E+00  0.00000000000E+00  0.45593999997E+02  0.45594000000E+02  0.51100000000E-03 0.  1.
         11   -1    0    0    0    0 -0.00000000000E+00 -0.00000000000E+00 -0.45593999997E+02  0.45594000000E+02  0.51100000000E-03 0. -1.
         23    2    1    2    0    0  0.00000000000E+00  0.00000000000E+00  0.00000000000E+00  0.91188000000E+02  0.91188000000E+02 0.  0.
    9900012    2    3    3    0    0 -0.34157649170E+02  0.10301997374E+02 -0.91052330490E+01  0.54367062810E+02  0.39999951287E+02 0.  0.
        -12    1    3    3    0    0  0.34157649170E+02 -0.10301997374E+02  0.91052330490E+01  0.36820937190E+02  0.00000000000E+00 0.  1.
         11    1    4    4    0    0 -0.67056641162E+01  0.35435655712E+01 -0.16655235528E+02  0.18300810336E+02  0.51100000000E-03 0. -1.
        -11    1    4    4    0    0 -0.17153366692E+02  0.11259617318E+02  0.12234993413E+02  0.23889580052E+02  0.51100000000E-03 0.  1.
        -12    1    4    4    0    0 -0.10298618362E+02 -0.45011855155E+01 -0.46849909342E+01  0.12176672422E+02  0.00000000000E+00 0.  1.
</event>
<event>
 8    1  0.2433390E-006  0.9118800E+02  0.7816164E-02  0.1184000E+00
        -11   -1    0    0    0    0  0.00000000000E+00  0.00000000000E+00  0.45593999997E+02  0.45594000000E+02  0.51100000000E-03 0.  1.
         11   -1    0    0    0    0 -0.00000000000E+00 -0.00000000000E+00 -0.45593999997E+02  0.45594000000E+02  0.51100000000E-03 0. -1.
         23    2    1    2    0    0  0.00000000000E+00  0.00000000000E+00 -0.88817841970E-15  0.91188000000E+02  0.91188000000E+02 0.  0.
    9900012    2    3    3    0    0  0.25966085575E+02  0.25967760265E+02  0.26863104186E+01  0.54367103258E+02  0.40000043497E+02 0.  0.
        -12    1    3    3    0    0 -0.25966085575E+02 -0.25967760265E+02 -0.26863104186E+01  0.36820896742E+02  0.00000000000E+00 0.  1.
         11    1    4    4    0    0  0.16970708039E+02  0.24023859895E+02  0.12031063510E+02  0.31778880802E+02  0.51100000000E-03 0. -1.
        -11    1    4    4    0    0 -0.18607213470E+01  0.78952773057E+01 -0.46338161212E+01  0.93418381366E+01  0.51100000000E-03 0.  1.
         12    1    4    4    0    0  0.10856098883E+02 -0.59513769358E+01 -0.47109369703E+01  0.13246384319E+02  0.00000000000E+00 0. -1.
</event>
<event>
 8    1  0.2433390E-006  0.9118800E+02  0.7816164E-02  0.1184000E+00
        -11   -1    0    0    0    0  0.00000000000E+00  0.00000000000E+00  0.45593999997E+02  0.45594000000E+02  0.51100000000E-03 0. -1.
         11   -1    0    0    0    0 -0.00000000000E+00 -0.00000000000E+00 -0.45593999997E+02  0.45594000000E+02  0.51100000000E-03 0.  1.
         23    2    1    2    0    0  0.00000000000E+00 -0.17763568394E-14  0.00000000000E+00  0.91188000000E+02  0.91188000000E+02 0.  0.
    9900012    2    3    3    0    0  0.18998487026E+02  0.68902048576E+01 -0.30779255634E+02  0.54367081901E+02  0.39999994810E+02 0.  0.
         12    1    3    3    0    0 -0.18998487026E+02 -0.68902048576E+01  0.30779255634E+02  0.36820918099E+02  0.00000000000E+00 0. -1.
         11    1    4    4    0    0  0.16481995703E+02 -0.12006973732E+02 -0.19707362814E+02  0.28358486382E+02  0.51100000000E-03 0. -1.
        -11    1    4    4    0    0  0.50298935394E+01  0.39012528645E+01 -0.84496448340E+01  0.10579040647E+02  0.51100000000E-03 0.  1.
         12    1    4    4    0    0 -0.25134022167E+01  0.14995925725E+02 -0.26222479860E+01  0.15429554872E+02  0.00000000000E+00 0. -1.
</event>
<event>
 8    1  0.2433390E-006  0.9118800E+02  0.7816164E-02  0.1184000E+00
        -11   -1    0    0    0    0  0.00000000000E+00  0.00000000000E+00  0.45593999997E+02  0.45594000000E+02  0.51100000000E-03 0.  1.
         11   -1    0    0    0    0 -0.00000000000E+00 -0.00000000000E+00 -0.45593999997E+02  0.45594000000E+02  0.51100000000E-03 0. -1.
         23    2    1    2    0    0  0.17763568394E-14  0.00000000000E+00  0.00000000000E+00  0.91188000000E+02  0.91188000000E+02 0.  0.
    9900012    2    3    3    0    0  0.12167999850E+02 -0.23343816956E+02  0.25744581278E+02  0.54367116311E+02  0.40000073255E+02 0.  0.
         12    1    3    3    0    0 -0.12167999850E+02  0.23343816956E+02 -0.25744581278E+02  0.36820883689E+02  0.00000000000E+00 0. -1.
         11    1    4    4    0    0 -0.98605785164E+01 -0.14977370010E+02  0.12022514390E+02  0.21589198077E+02  0.51100000000E-03 0. -1.
        -11    1    4    4    0    0  0.23504837381E+02 -0.24316334244E+01  0.10392269323E+02  0.25814520785E+02  0.51100000000E-03 0.  1.
        -12    1    4    4    0    0 -0.14762590140E+01 -0.59348135219E+01  0.33297975652E+01  0.69633974496E+01  0.00000000000E+00 0.  1.
</event>
<event>
 8    1  0.2433390E-006  0.9118800E+02  0.7816164E-02  0.1184000E+00
        -11   -1    0    0    0    0  0.00000000000E+00  0.00000000000E+00  0.45593999997E+02  0.45594000000E+02  0.51100000000E-03 0. -1.
         11   -1    0    0    0    0 -0.00000000000E+00 -0.00000000000E+00 -0.45593999997E+02  0.45594000000E+02  0.51100000000E-03 0.  1.
         23    2    1    2    0    0 -0.35527136788E-14  0.00000000000E+00 -0.17763568394E-14  0.91188000000E+02  0.91188000000E+02 0.  0.
    9900012    2    3    3    0    0 -0.26656925276E+02  0.20967320784E+02  0.14337334110E+02  0.54367090785E+02  0.40000015062E+02 0.  0.
        -12    1    3    3    0    0  0.26656925276E+02 -0.20967320784E+02 -0.14337334110E+02  0.36820909215E+02  0.00000000000E+00 0.  1.
         11    1    4    4    0    0 -0.10082445290E+01  0.10314604639E+02 -0.99232989572E+01  0.14348501258E+02  0.51100000000E-03 0. -1.
        -11    1    4    4    0    0 -0.11007748656E+02 -0.42269796252E+00  0.20532523001E+01  0.11205581168E+02  0.51100000000E-03 0.  1.
         12    1    4    4    0    0 -0.14640932091E+02  0.11075414107E+02  0.22207380767E+02  0.28813008358E+02  0.00000000000E+00 0. -1.
</event>
<event>
 8    1  0.2433390E-006  0.9118800E+02  0.7816164E-02  0.1184000E+00
        -11   -1    0    0    0    0  0.00000000000E+00  0.00000000000E+00  0.45593999997E+02  0.45594000000E+02  0.51100000000E-03 0. -1.
         11   -1    0    0    0    0 -0.00000000000E+00 -0.00000000000E+00 -0.45593999997E+02  0.45594000000E+02  0.51100000000E-03 0.  1.
         23    2    1    2    0    0 -0.71054273576E-14  0.00000000000E+00  0.17763568394E-14  0.91188000000E+02  0.91188000000E+02 0.  0.
    9900012    2    3    3    0    0  0.33116239920E+02  0.13409874548E+02 -0.89035821220E+01  0.54367029665E+02  0.39999875727E+02 0.  0.
         12    1    3    3    0    0 -0.33116239920E+02 -0.13409874548E+02  0.89035821220E+01  0.36820970335E+02  0.00000000000E+00 0. -1.
         11    1    4    4    0    0  0.10951049780E+02  0.36010381309E+01  0.71065373025E+01  0.13542372007E+02  0.51100000000E-03 0. -1.
        -11    1    4    4    0    0  0.17160512758E+01  0.11392385935E+01  0.79152057184E+01  0.81788249999E+01  0.51100000000E-03 0.  1.
        -12    1    4    4    0    0  0.20449138864E+02  0.86695978234E+01 -0.23925325143E+02  0.32645832658E+02  0.00000000000E+00 0.  1.
</event>
<event>
 8    1  0.2433390E-006  0.9118800E+02  0.7816164E-02  0.1184000E+00
        -11   -1    0    0    0    0  0.00000000000E+00  0.00000000000E+00  0.45593999997E+02  0.45594000000E+02  0.51100000000E-03 0. -1.
         11   -1    0    0    0    0 -0.00000000000E+00 -0.00000000000E+00 -0.45593999997E+02  0.45594000000E+02  0.51100000000E-03 0.  1.
         23    2    1    2    0    0  0.88817841970E-15 -0.35527136788E-14  0.35527136788E-14  0.91188000000E+02  0.91188000000E+02 0.  0.
    9900012    2    3    3    0    0  0.51789515615E+01  0.18797483791E+02 -0.31234831706E+02  0.54367059655E+02  0.39999944097E+02 0.  0.
         12    1    3    3    0    0 -0.51789515615E+01 -0.18797483791E+02  0.31234831706E+02  0.36820940345E+02  0.00000000000E+00 0. -1.
         11    1    4    4    0    0  0.66840528972E+00  0.38538643602E+01  0.24144902820E+01  0.45966074143E+01  0.51100000000E-03 0. -1.
        -11    1    4    4    0    0 -0.11660924407E+02  0.16062255919E+02 -0.13957710119E+02  0.24265013811E+02  0.51100000000E-03 0.  1.
         12    1    4    4    0    0  0.16171470679E+02 -0.11186364881E+01 -0.19691611869E+02  0.25505438430E+02  0.00000000000E+00 0. -1.
</event>
<event>
 8    1  0.2433390E-006  0.9118800E+02  0.7816164E-02  0.1184000E+00
        -11   -1    0    0    0    0  0.00000000000E+00  0.00000000000E+00  0.45593999997E+02  0.45594000000E+02  0.51100000000E-03 0.  1.
         11   -1    0    0    0    0 -0.00000000000E+00 -0.00000000000E+00 -0.45593999997E+02  0.45594000000E+02  0.51100000000E-03 0. -1.
         23    2    1    2    0    0 -0.35527136788E-14  0.00000000000E+00  0.71054273576E-14  0.91188000000E+02  0.91188000000E+02 0.  0.
    9900012    2    3    3    0    0  0.17115696587E+02 -0.62658983716E+01 -0.31993314714E+02  0.54367072004E+02  0.39999972248E+02 0.  0.
        -12    1    3    3    0    0 -0.17115696587E+02  0.62658983716E+01  0.31993314714E+02  0.36820927996E+02  0.00000000000E+00 0.  1.
         11    1    4    4    0    0  0.19437528516E+02  0.28051642672E+01 -0.15804811713E+01  0.19702395346E+02  0.51100000000E-03 0. -1.
        -11    1    4    4    0    0 -0.27061978218E+01 -0.81433673613E+01 -0.65874806617E+01  0.10818171766E+02  0.51100000000E-03 0.  1.
         12    1    4    4    0    0  0.38436589369E+00 -0.92769527760E+00 -0.23825352881E+02  0.23846504892E+02  0.00000000000E+00 0. -1.
</event>
<event>
 8    1  0.2433390E-006  0.9118800E+02  0.7816164E-02  0.1184000E+00
        -11   -1    0    0    0    0  0.00000000000E+00  0.00000000000E+00  0.45593999997E+02  0.45594000000E+02  0.51100000000E-03 0. -1.
         11   -1    0    0    0    0 -0.00000000000E+00 -0.00000000000E+00 -0.45593999997E+02  0.45594000000E+02  0.51100000000E-03 0.  1.
         23    2    1    2    0    0  0.35527136788E-14  0.00000000000E+00  0.00000000000E+00  0.91188000000E+02  0.91188000000E+02 0.  0.
    9900012    2    3    3    0    0  0.16729090695E+02  0.27004892916E+02  0.18618618328E+02  0.54367086577E+02  0.40000005469E+02 0.  0.
        -12    1    3    3    0    0 -0.16729090695E+02 -0.27004892916E+02 -0.18618618328E+02  0.36820913423E+02  0.00000000000E+00 0.  1.
         11    1    4    4    0    0 -0.17283173850E+01 -0.27798227618E+01  0.74876528382E+01  0.81718688717E+01  0.51100000000E-03 0. -1.
        -11    1    4    4    0    0 -0.35050696895E+00  0.10852544561E+02  0.15731725376E+02  0.19115118680E+02  0.51100000000E-03 0.  1.
        -12    1    4    4    0    0  0.18807915049E+02  0.18932171117E+02 -0.46007598863E+01  0.27080099025E+02  0.00000000000E+00 0.  1.
</event>
<event>
 8    1  0.2433390E-006  0.9118800E+02  0.7816164E-02  0.1184000E+00
        -11   -1    0    0    0    0  0.00000000000E+00  0.00000000000E+00  0.45593999997E+02  0.45594000000E+02  0.51100000000E-03 0. -1.
         11   -1    0    0    0    0 -0.00000000000E+00 -0.00000000000E+00 -0.45593999997E+02  0.45594000000E+02  0.51100000000E-03 0.  1.
         23    2    1    2    0    0  0.00000000000E+00 -0.17763568394E-14  0.00000000000E+00  0.91188000000E+02  0.91188000000E+02 0.  0.
    9900012    2    3    3    0    0 -0.29132067321E+02  0.12347135265E+02 -0.18832138358E+02  0.54367101984E+02  0.40000040592E+02 0.  0.
         12    1    3    3    0    0  0.29132067321E+02 -0.12347135265E+02  0.18832138358E+02  0.36820898016E+02  0.00000000000E+00 0. -1.
         11    1    4    4    0    0 -0.70096474531E+01  0.18327753986E+02 -0.43793984443E+01  0.20105244455E+02  0.51100000000E-03 0. -1.
        -11    1    4    4    0    0 -0.22656723195E+02 -0.44534863124E+01 -0.36960968931E+01  0.23384220722E+02  0.51100000000E-03 0.  1.
         12    1    4    4    0    0  0.53430332693E+00 -0.15271324095E+01 -0.10756643020E+02  0.10877636807E+02  0.00000000000E+00 0. -1.
</event>
<event>
 8    1  0.2433390E-006  0.9118800E+02  0.7816164E-02  0.1184000E+00
        -11   -1    0    0    0    0  0.00000000000E+00  0.00000000000E+00  0.45593999997E+02  0.45594000000E+02  0.51100000000E-03 0.  1.
         11   -1    0    0    0    0 -0.00000000000E+00 -0.00000000000E+00 -0.45593999997E+02  0.45594000000E+02  0.51100000000E-03 0. -1.
         23    2    1    2    0    0  0.00000000000E+00  0.00000000000E+00  0.00000000000E+00  0.91188000000E+02  0.91188000000E+02 0.  0.
    9900012    2    3    3    0    0 -0.33953702471E+02  0.14057605681E+02  0.23042897808E+01  0.54367082842E+02  0.39999996955E+02 0.  0.
         12    1    3    3    0    0  0.33953702471E+02 -0.14057605681E+02 -0.23042897808E+01  0.36820917158E+02  0.00000000000E+00 0. -1.
         11    1    4    4    0    0  0.54491748480E+01  0.26462530811E+01 -0.93744132863E+00  0.61298416292E+01  0.51100000000E-03 0. -1.
        -11    1    4    4    0    0 -0.11292320409E+02 -0.19908708601E+01 -0.92008716525E+01  0.14701568162E+02  0.51100000000E-03 0.  1.
         12    1    4    4    0    0 -0.28110556910E+02  0.13402223460E+02  0.12442602762E+02  0.33535673050E+02  0.00000000000E+00 0. -1.
</event>
<event>
 8    1  0.2433390E-006  0.9118800E+02  0.7816164E-02  0.1184000E+00
        -11   -1    0    0    0    0  0.00000000000E+00  0.00000000000E+00  0.45593999997E+02  0.45594000000E+02  0.51100000000E-03 0. -1.
         11   -1    0    0    0    0 -0.00000000000E+00 -0.00000000000E+00 -0.45593999997E+02  0.45594000000E+02  0.51100000000E-03 0.  1.
         23    2    1    2    0    0  0.53290705182E-14 -0.71054273576E-14  0.00000000000E+00  0.91188000000E+02  0.91188000000E+02 0.  0.
    9900012    2    3    3    0    0 -0.13258479853E+02  0.32497624135E+02  0.11130864642E+02  0.54367095474E+02  0.40000025752E+02 0.  0.
         12    1    3    3    0    0  0.13258479853E+02 -0.32497624135E+02 -0.11130864642E+02  0.36820904526E+02  0.00000000000E+00 0. -1.
         11    1    4    4    0    0  0.48422804546E+01  0.83154509966E+01 -0.49766822056E+01  0.10833363804E+02  0.51100000000E-03 0. -1.
        -11    1    4    4    0    0 -0.18938610654E+02  0.26195214599E+02  0.56042810233E+01  0.32806526903E+02  0.51100000000E-03 0.  1.
         12    1    4    4    0    0  0.83785034725E+00 -0.20130414602E+01  0.10503265825E+02  0.10727204767E+02  0.00000000000E+00 0. -1.
</event>
<event>
 8    1  0.2433390E-006  0.9118800E+02  0.7816164E-02  0.1184000E+00
        -11   -1    0    0    0    0  0.00000000000E+00  0.00000000000E+00  0.45593999997E+02  0.45594000000E+02  0.51100000000E-03 0.  1.
         11   -1    0    0    0    0 -0.00000000000E+00 -0.00000000000E+00 -0.45593999997E+02  0.45594000000E+02  0.51100000000E-03 0. -1.
         23    2    1    2    0    0  0.00000000000E+00 -0.35527136788E-14  0.35527136788E-14  0.91188000000E+02  0.91188000000E+02 0.  0.
    9900012    2    3    3    0    0  0.31379491246E+01 -0.25128187689E+02  0.26730273953E+02  0.54367080853E+02  0.39999992421E+02 0.  0.
         12    1    3    3    0    0 -0.31379491246E+01  0.25128187689E+02 -0.26730273953E+02  0.36820919147E+02  0.00000000000E+00 0. -1.
         11    1    4    4    0    0  0.57029874206E+01 -0.26261353420E+02  0.19475503144E+01  0.26943936265E+02  0.51100000000E-03 0. -1.
        -11    1    4    4    0    0 -0.22135161194E+01  0.55516518266E+01  0.20123862116E+02  0.20992625332E+02  0.51100000000E-03 0.  1.
         12    1    4    4    0    0 -0.35152217662E+00 -0.44184860951E+01  0.46588615227E+01  0.64305192559E+01  0.00000000000E+00 0. -1.
</event>
<event>
 8    1  0.2433390E-006  0.9118800E+02  0.7816164E-02  0.1184000E+00
        -11   -1    0    0    0    0  0.00000000000E+00  0.00000000000E+00  0.45593999997E+02  0.45594000000E+02  0.51100000000E-03 0.  1.
         11   -1    0    0    0    0 -0.00000000000E+00 -0.00000000000E+00 -0.45593999997E+02  0.45594000000E+02  0.51100000000E-03 0. -1.
         23    2    1    2    0    0 -0.35527136788E-14  0.35527136788E-14  0.00000000000E+00  0.91188000000E+02  0.91188000000E+02 0.  0.
    9900012    2    3    3    0    0  0.30289260834E+02 -0.19431850252E+02  0.77938163825E+01  0.54367086107E+02  0.40000004399E+02 0.  0.
        -12    1    3    3    0    0 -0.30289260834E+02  0.19431850252E+02 -0.77938163825E+01  0.36820913893E+02  0.00000000000E+00 0.  1.
         11    1    4    4    0    0  0.36323161083E+01 -0.20755347501E+02 -0.98136580093E+00  0.21093630539E+02  0.51100000000E-03 0.  1.
        -11    1    4    4    0    0  0.15889563272E+02  0.58444633872E+01  0.12467586224E+02  0.21025619605E+02  0.51100000000E-03 0. -1.
        -12    1    4    4    0    0  0.10767381454E+02 -0.45209661381E+01 -0.36924040406E+01  0.12247835964E+02  0.00000000000E+00 0.  1.
</event>
<event>
 8    1  0.2433390E-006  0.9118800E+02  0.7816164E-02  0.1184000E+00
        -11   -1    0    0    0    0  0.00000000000E+00  0.00000000000E+00  0.45593999997E+02  0.45594000000E+02  0.51100000000E-03 0.  1.
         11   -1    0    0    0    0 -0.00000000000E+00 -0.00000000000E+00 -0.45593999997E+02  0.45594000000E+02  0.51100000000E-03 0. -1.
         23    2    1    2    0    0 -0.17763568394E-14  0.88817841970E-15  0.00000000000E+00  0.91188000000E+02  0.91188000000E+02 0.  0.
    9900012    2    3    3    0    0 -0.28494959082E+01 -0.76784296410E+00  0.36702453591E+02  0.54367091411E+02  0.40000016489E+02 0.  0.
         12    1    3    3    0    0  0.28494959082E+01  0.76784296410E+00 -0.36702453591E+02  0.36820908589E+02  0.00000000000E+00 0. -1.
         11    1    4    4    0    0  0.36970642204E+01  0.97552014909E+01  0.18769327883E+02  0.21473702741E+02  0.51100000000E-03 0. -1.
        -11    1    4    4    0    0 -0.28351683514E+01 -0.83661710614E+01  0.23935793605E+02  0.25513784775E+02  0.51100000000E-03 0.  1.
         12    1    4    4    0    0 -0.37113917773E+01 -0.21568733937E+01 -0.60026678966E+01  0.73796038943E+01  0.00000000000E+00 0. -1.
</event>
<event>
 8    1  0.2433390E-006  0.9118800E+02  0.7816164E-02  0.1184000E+00
        -11   -1    0    0    0    0  0.00000000000E+00  0.00000000000E+00  0.45593999997E+02  0.45594000000E+02  0.51100000000E-03 0. -1.
         11   -1    0    0    0    0 -0.00000000000E+00 -0.00000000000E+00 -0.45593999997E+02  0.45594000000E+02  0.51100000000E-03 0.  1.
         23    2    1    2    0    0  0.22204460493E-15  0.00000000000E+00 -0.35527136788E-14  0.91188000000E+02  0.91188000000E+02 0.  0.
    9900012    2    3    3    0    0 -0.19892872818E+01 -0.20526670732E+02 -0.30503735597E+02  0.54367090714E+02  0.40000014902E+02 0.  0.
         12    1    3    3    0    0  0.19892872818E+01  0.20526670732E+02  0.30503735597E+02  0.36820909286E+02  0.00000000000E+00 0. -1.
         11    1    4    4    0    0 -0.64504028693E+01 -0.21347015026E+02 -0.24422379323E+01  0.22433619281E+02  0.51100000000E-03 0. -1.
        -11    1    4    4    0    0  0.22697374596E+01 -0.39303738146E+00 -0.29122275736E+02  0.29213235542E+02  0.51100000000E-03 0.  1.
        -12    1    4    4    0    0  0.21913781278E+01  0.12133816750E+01  0.10607780711E+01  0.27202358913E+01  0.00000000000E+00 0.  1.
</event>
<event>
 8    1  0.2433390E-006  0.9118800E+02  0.7816164E-02  0.1184000E+00
        -11   -1    0    0    0    0  0.00000000000E+00  0.00000000000E+00  0.45593999997E+02  0.45594000000E+02  0.51100000000E-03 0.  1.
         11   -1    0    0    0    0 -0.00000000000E+00 -0.00000000000E+00 -0.45593999997E+02  0.45594000000E+02  0.51100000000E-03 0. -1.
         23    2    1    2    0    0  0.00000000000E+00  0.00000000000E+00  0.00000000000E+00  0.91188000000E+02  0.91188000000E+02 0.  0.
    9900012    2    3    3    0    0  0.10355852924E+02 -0.29077990575E+02 -0.20075032178E+02  0.54367080096E+02  0.39999990694E+02 0.  0.
         12    1    3    3    0    0 -0.10355852924E+02  0.29077990575E+02  0.20075032178E+02  0.36820919904E+02  0.00000000000E+00 0. -1.
         11    1    4    4    0    0 -0.46344710704E+01 -0.27551154591E+02 -0.12883351211E+02  0.30765649353E+02  0.51100000000E-03 0. -1.
        -11    1    4    4    0    0  0.87904637314E+01 -0.90692111740E+01 -0.50714564678E+01  0.13610382614E+02  0.51100000000E-03 0.  1.
         12    1    4    4    0    0  0.61998602628E+01  0.75423751902E+01 -0.21202244998E+01  0.99910481291E+01  0.00000000000E+00 0. -1.
</event>
<event>
 8    1  0.2433390E-006  0.9118800E+02  0.7816164E-02  0.1184000E+00
        -11   -1    0    0    0    0  0.00000000000E+00  0.00000000000E+00  0.45593999997E+02  0.45594000000E+02  0.51100000000E-03 0.  1.
         11   -1    0    0    0    0 -0.00000000000E+00 -0.00000000000E+00 -0.45593999997E+02  0.45594000000E+02  0.51100000000E-03 0. -1.
         23    2    1    2    0    0 -0.17763568394E-14  0.00000000000E+00  0.00000000000E+00  0.91188000000E+02  0.91188000000E+02 0.  0.
    9900012    2    3    3    0    0  0.13809091201E+02  0.16035043613E+02  0.30132477220E+02  0.54367084654E+02  0.40000001087E+02 0.  0.
         12    1    3    3    0    0 -0.13809091201E+02 -0.16035043613E+02 -0.30132477220E+02  0.36820915346E+02  0.00000000000E+00 0. -1.
         11    1    4    4    0    0  0.95137831851E+01 -0.22383056852E+01  0.10349998939E+02  0.14235327925E+02  0.51100000000E-03 0. -1.
        -11    1    4    4    0    0  0.91412535667E+01 -0.31957146158E+01  0.14601804372E+02  0.17521067315E+02  0.51100000000E-03 0.  1.
        -12    1    4    4    0    0 -0.48459455510E+01  0.21469063914E+02  0.51806739088E+01  0.22610689414E+02  0.00000000000E+00 0.  1.
</event>
<event>
 8    1  0.2433390E-006  0.9118800E+02  0.7816164E-02  0.1184000E+00
        -11   -1    0    0    0    0  0.00000000000E+00  0.00000000000E+00  0.45593999997E+02  0.45594000000E+02  0.51100000000E-03 0.  1.
         11   -1    0    0    0    0 -0.00000000000E+00 -0.00000000000E+00 -0.45593999997E+02  0.45594000000E+02  0.51100000000E-03 0. -1.
         23    2    1    2    0    0  0.00000000000E+00  0.00000000000E+00  0.35527136788E-14  0.91188000000E+02  0.91188000000E+02 0.  0.
    9900012    2    3    3    0    0 -0.11315828504E+02 -0.16687704316E+02  0.30809942725E+02  0.54367081750E+02  0.39999994465E+02 0.  0.
         12    1    3    3    0    0  0.11315828504E+02  0.16687704316E+02 -0.30809942725E+02  0.36820918250E+02  0.00000000000E+00 0. -1.
         11    1    4    4    0    0 -0.84312052951E+01 -0.78932288036E+01  0.18598501267E+02  0.21892750703E+02  0.51100000000E-03 0. -1.
        -11    1    4    4    0    0  0.65882975054E+01 -0.71792377903E+00  0.17677209719E+02  0.18878686986E+02  0.51100000000E-03 0.  1.
         12    1    4    4    0    0 -0.94729207147E+01 -0.80765517330E+01 -0.54657682615E+01  0.13595644062E+02  0.00000000000E+00 0. -1.
</event>
<event>
 8    1  0.2433390E-006  0.9118800E+02  0.7816164E-02  0.1184000E+00
        -11   -1    0    0    0    0  0.00000000000E+00  0.00000000000E+00  0.45593999997E+02  0.45594000000E+02  0.51100000000E-03 0.  1.
         11   -1    0    0    0    0 -0.00000000000E+00 -0.00000000000E+00 -0.45593999997E+02  0.45594000000E+02  0.51100000000E-03 0. -1.
         23    2    1    2    0    0  0.00000000000E+00 -0.88817841970E-15  0.35527136788E-14  0.91188000000E+02  0.91188000000E+02 0.  0.
    9900012    2    3    3    0    0 -0.17167255656E+02  0.75235202461E+01 -0.31693239191E+02  0.54367089717E+02  0.40000012627E+02 0.  0.
        -12    1    3    3    0    0  0.17167255656E+02 -0.75235202461E+01  0.31693239191E+02  0.36820910283E+02  0.00000000000E+00 0.  1.
         11    1    4    4    0    0 -0.12968875129E+01  0.60002183922E+01  0.54504189628E+01  0.82092390090E+01  0.51100000000E-03 0.  1.
        -11    1    4    4    0    0  0.43066266570E+00 -0.78649485464E+01 -0.16155234487E+02  0.17973160200E+02  0.51100000000E-03 0. -1.
        -12    1    4    4    0    0 -0.16301030809E+02  0.93882504003E+01 -0.20988423667E+02  0.28184690508E+02  0.00000000000E+00 0.  1.
</event>
<event>
 8    1  0.2433390E-006  0.9118800E+02  0.7816164E-02  0.1184000E+00
        -11   -1    0    0    0    0  0.00000000000E+00  0.00000000000E+00  0.45593999997E+02  0.45594000000E+02  0.51100000000E-03 0.  1.
         11   -1    0    0    0    0 -0.00000000000E+00 -0.00000000000E+00 -0.45593999997E+02  0.45594000000E+02  0.51100000000E-03 0. -1.
         23    2    1    2    0    0  0.00000000000E+00  0.00000000000E+00 -0.88817841970E-15  0.91188000000E+02  0.91188000000E+02 0.  0.
    9900012    2    3    3    0    0  0.18745045815E+02  0.31429626847E+02 -0.40718248659E+01  0.54367109950E+02  0.40000058753E+02 0.  0.
        -12    1    3    3    0    0 -0.18745045815E+02 -0.31429626847E+02  0.40718248659E+01  0.36820890050E+02  0.00000000000E+00 0.  1.
         11    1    4    4    0    0  0.56551938462E+00  0.38615879237E+01 -0.17437030616E+02  0.17868455737E+02  0.51100000000E-03 0. -1.
        -11    1    4    4    0    0  0.17093860066E+02  0.27916987733E+02  0.12399656243E+02  0.35004424453E+02  0.51100000000E-03 0.  1.
        -12    1    4    4    0    0  0.10856663642E+01 -0.34894881015E+00  0.96554950633E+00  0.14942297600E+01  0.00000000000E+00 0.  1.
</event>
<event>
 8    1  0.2433390E-006  0.9118800E+02  0.7816164E-02  0.1184000E+00
        -11   -1    0    0    0    0  0.00000000000E+00  0.00000000000E+00  0.45593999997E+02  0.45594000000E+02  0.51100000000E-03 0.  1.
         11   -1    0    0    0    0 -0.00000000000E+00 -0.00000000000E+00 -0.45593999997E+02  0.45594000000E+02  0.51100000000E-03 0. -1.
         23    2    1    2    0    0  0.00000000000E+00  0.00000000000E+00  0.17763568394E-14  0.91188000000E+02  0.91188000000E+02 0.  0.
    9900012    2    3    3    0    0  0.14557766492E+02 -0.32023673083E+02 -0.10878185140E+02  0.54367094051E+02  0.40000022509E+02 0.  0.
         12    1    3    3    0    0 -0.14557766492E+02  0.32023673083E+02  0.10878185140E+02  0.36820905949E+02  0.00000000000E+00 0. -1.
         11    1    4    4    0    0  0.39531739016E+00 -0.74092460556E+01 -0.11040334164E+02  0.13301961572E+02  0.51100000000E-03 0. -1.
        -11    1    4    4    0    0  0.16773690222E+02 -0.36320215151E+01  0.74368702923E+01  0.18704419369E+02  0.51100000000E-03 0.  1.
        -12    1    4    4    0    0 -0.26112411200E+01 -0.20982405512E+02 -0.72747212684E+01  0.22360713110E+02  0.00000000000E+00 0.  1.
</event>
<event>
 8    1  0.2433390E-006  0.9118800E+02  0.7816164E-02  0.1184000E+00
        -11   -1    0    0    0    0  0.00000000000E+00  0.00000000000E+00  0.45593999997E+02  0.45594000000E+02  0.51100000000E-03 0.  1.
         11   -1    0    0    0    0 -0.00000000000E+00 -0.00000000000E+00 -0.45593999997E+02  0.45594000000E+02  0.51100000000E-03 0. -1.
         23    2    1    2    0    0  0.00000000000E+00  0.00000000000E+00 -0.17763568394E-14  0.91188000000E+02  0.91188000000E+02 0.  0.
    9900012    2    3    3    0    0 -0.11866686814E+02 -0.33861528016E+02  0.82679073958E+01  0.54367087080E+02  0.40000006617E+02 0.  0.
         12    1    3    3    0    0  0.11866686814E+02  0.33861528016E+02 -0.82679073958E+01  0.36820912920E+02  0.00000000000E+00 0. -1.
         11    1    4    4    0    0  0.49663490027E+01 -0.16722419436E+01  0.15027877531E+02  0.15915342248E+02  0.51100000000E-03 0. -1.
        -11    1    4    4    0    0 -0.95342172057E+01 -0.15802909831E+02 -0.87088808505E+01  0.20407789267E+02  0.51100000000E-03 0.  1.
        -12    1    4    4    0    0 -0.72988186107E+01 -0.16386376242E+02  0.19489107156E+01  0.18043955565E+02  0.00000000000E+00 0.  1.
</event>
<event>
 8    1  0.2433390E-006  0.9118800E+02  0.7816164E-02  0.1184000E+00
        -11   -1    0    0    0    0  0.00000000000E+00  0.00000000000E+00  0.45593999997E+02  0.45594000000E+02  0.51100000000E-03 0.  1.
         11   -1    0    0    0    0 -0.00000000000E+00 -0.00000000000E+00 -0.45593999997E+02  0.45594000000E+02  0.51100000000E-03 0. -1.
         23    2    1    2    0    0 -0.66613381478E-15  0.35527136788E-14  0.00000000000E+00  0.91188000000E+02  0.91188000000E+02 0.  0.
    9900012    2    3    3    0    0 -0.29360544200E+00 -0.20743907486E+02  0.30420098521E+02  0.54367105172E+02  0.40000047860E+02 0.  0.
         12    1    3    3    0    0  0.29360544200E+00  0.20743907486E+02 -0.30420098521E+02  0.36820894828E+02  0.00000000000E+00 0. -1.
         11    1    4    4    0    0 -0.67200763094E+01 -0.84317436410E+00  0.12694569671E+02  0.14388275366E+02  0.51100000000E-03 0. -1.
        -11    1    4    4    0    0  0.40203793410E+00 -0.20402606388E+02  0.23839544982E+02  0.31380756638E+02  0.51100000000E-03 0.  1.
        -12    1    4    4    0    0  0.60244329333E+01  0.50187326639E+00 -0.61140161322E+01  0.85980731684E+01  0.00000000000E+00 0.  1.
</event>
<event>
 8    1  0.2433390E-006  0.9118800E+02  0.7816164E-02  0.1184000E+00
        -11   -1    0    0    0    0  0.00000000000E+00  0.00000000000E+00  0.45593999997E+02  0.45594000000E+02  0.51100000000E-03 0. -1.
         11   -1    0    0    0    0 -0.00000000000E+00 -0.00000000000E+00 -0.45593999997E+02  0.45594000000E+02  0.51100000000E-03 0.  1.
         23    2    1    2    0    0 -0.88817841970E-15  0.00000000000E+00 -0.35527136788E-14  0.91188000000E+02  0.91188000000E+02 0.  0.
    9900012    2    3    3    0    0  0.50458918846E+01  0.30068834133E+02 -0.20644231059E+02  0.54367080850E+02  0.39999992413E+02 0.  0.
         12    1    3    3    0    0 -0.50458918846E+01 -0.30068834133E+02  0.20644231059E+02  0.36820919150E+02  0.00000000000E+00 0. -1.
         11    1    4    4    0    0  0.70402707705E+01  0.18150306245E+02  0.10195905798E+01  0.19494578593E+02  0.51100000000E-03 0.  1.
        -11    1    4    4    0    0  0.36572759724E+01  0.16113728181E+02 -0.57907374378E+01  0.17508870430E+02  0.51100000000E-03 0. -1.
         12    1    4    4    0    0 -0.56516548583E+01 -0.41952002926E+01 -0.15873084201E+02  0.17363631826E+02  0.00000000000E+00 0. -1.
</event>
<event>
 8    1  0.2433390E-006  0.9118800E+02  0.7816164E-02  0.1184000E+00
        -11   -1    0    0    0    0  0.00000000000E+00  0.00000000000E+00  0.45593999997E+02  0.45594000000E+02  0.51100000000E-03 0.  1.
         11   -1    0    0    0    0 -0.00000000000E+00 -0.00000000000E+00 -0.45593999997E+02  0.45594000000E+02  0.51100000000E-03 0. -1.
         23    2    1    2    0    0 -0.35527136788E-14  0.00000000000E+00 -0.17763568394E-14  0.91188000000E+02  0.91188000000E+02 0.  0.
    9900012    2    3    3    0    0  0.97466863801E+01 -0.34575541890E+02  0.80817201339E+01  0.54367079415E+02  0.39999989143E+02 0.  0.
         12    1    3    3    0    0 -0.97466863801E+01  0.34575541890E+02 -0.80817201339E+01  0.36820920585E+02  0.00000000000E+00 0. -1.
         11    1    4    4    0    0  0.14419825046E+01  0.69431148982E+00 -0.67149345238E+01  0.69030230992E+01  0.51100000000E-03 0. -1.
        -11    1    4    4    0    0 -0.86489527298E+01 -0.18118463040E+02  0.11461672545E+02  0.23118240072E+02  0.51100000000E-03 0.  1.
         12    1    4    4    0    0  0.16953656605E+02 -0.17151390340E+02  0.33349821127E+01  0.24345816244E+02  0.00000000000E+00 0. -1.
</event>
<event>
 8    1  0.2433390E-006  0.9118800E+02  0.7816164E-02  0.1184000E+00
        -11   -1    0    0    0    0  0.00000000000E+00  0.00000000000E+00  0.45593999997E+02  0.45594000000E+02  0.51100000000E-03 0. -1.
         11   -1    0    0    0    0 -0.00000000000E+00 -0.00000000000E+00 -0.45593999997E+02  0.45594000000E+02  0.51100000000E-03 0.  1.
         23    2    1    2    0    0  0.00000000000E+00  0.00000000000E+00  0.00000000000E+00  0.91188000000E+02  0.91188000000E+02 0.  0.
    9900012    2    3    3    0    0 -0.11906258123E+02  0.18172800555E+02  0.29728259355E+02  0.54367094704E+02  0.40000023998E+02 0.  0.
        -12    1    3    3    0    0  0.11906258123E+02 -0.18172800555E+02 -0.29728259355E+02  0.36820905296E+02  0.00000000000E+00 0.  1.
         11    1    4    4    0    0 -0.21726569283E+02  0.13845446041E+02  0.43957873857E+01  0.26135476577E+02  0.51100000000E-03 0.  1.
        -11    1    4    4    0    0  0.33388858186E+01  0.30480081009E+00  0.15105211043E+02  0.15472829830E+02  0.51100000000E-03 0. -1.
        -12    1    4    4    0    0  0.64814253416E+01  0.40225537036E+01  0.10227260926E+02  0.12758788297E+02  0.00000000000E+00 0.  1.
</event>
<event>
 8    1  0.2433390E-006  0.9118800E+02  0.7816164E-02  0.1184000E+00
        -11   -1    0    0    0    0  0.00000000000E+00  0.00000000000E+00  0.45593999997E+02  0.45594000000E+02  0.51100000000E-03 0.  1.
         11   -1    0    0    0    0 -0.00000000000E+00 -0.00000000000E+00 -0.45593999997E+02  0.45594000000E+02  0.51100000000E-03 0. -1.
         23    2    1    2    0    0  0.71054273576E-14 -0.88817841970E-15 -0.88817841970E-15  0.91188000000E+02  0.91188000000E+02 0.  0.
    9900012    2    3    3    0    0  0.36701571531E+02 -0.22432945758E+01 -0.19344701964E+01  0.54367083412E+02  0.39999998255E+02 0.  0.
        -12    1    3    3    0    0 -0.36701571531E+02  0.22432945758E+01  0.19344701964E+01  0.36820916588E+02  0.00000000000E+00 0.  1.
         11    1    4    4    0    0  0.11273233687E+02 -0.14415711179E+02  0.64224155945E+01  0.19394482434E+02  0.51100000000E-03 0. -1.
        -11    1    4    4    0    0 -0.21625081119E-01 -0.29196692049E+01 -0.41683855640E+01  0.50892410418E+01  0.51100000000E-03 0.  1.
         12    1    4    4    0    0  0.25449962925E+02  0.15092085808E+02 -0.41885002269E+01  0.29883359936E+02  0.00000000000E+00 0. -1.
</event>
<event>
 8    1  0.2433390E-006  0.9118800E+02  0.7816164E-02  0.1184000E+00
        -11   -1    0    0    0    0  0.00000000000E+00  0.00000000000E+00  0.45593999997E+02  0.45594000000E+02  0.51100000000E-03 0.  1.
         11   -1    0    0    0    0 -0.00000000000E+00 -0.00000000000E+00 -0.45593999997E+02  0.45594000000E+02  0.51100000000E-03 0. -1.
         23    2    1    2    0    0  0.88817841970E-15  0.00000000000E+00 -0.35527136788E-14  0.91188000000E+02  0.91188000000E+02 0.  0.
    9900012    2    3    3    0    0  0.43742526039E+01 -0.22201728164E+02  0.29047011364E+02  0.54367086262E+02  0.40000004751E+02 0.  0.
         12    1    3    3    0    0 -0.43742526039E+01  0.22201728164E+02 -0.29047011364E+02  0.36820913738E+02  0.00000000000E+00 0. -1.
         11    1    4    4    0    0  0.21904870091E+01 -0.28318313186E+02  0.21078199822E+02  0.35369698938E+02  0.51100000000E-03 0. -1.
        -11    1    4    4    0    0  0.26594510430E+01 -0.25126401546E+01  0.95362991553E+01  0.10214061006E+02  0.51100000000E-03 0.  1.
         12    1    4    4    0    0 -0.47568544832E+00  0.86292251758E+01 -0.15674876128E+01  0.87833263173E+01  0.00000000000E+00 0. -1.
</event>
<event>
 8    1  0.2433390E-006  0.9118800E+02  0.7816164E-02  0.1184000E+00
        -11   -1    0    0    0    0  0.00000000000E+00  0.00000000000E+00  0.45593999997E+02  0.45594000000E+02  0.51100000000E-03 0.  1.
         11   -1    0    0    0    0 -0.00000000000E+00 -0.00000000000E+00 -0.45593999997E+02  0.45594000000E+02  0.51100000000E-03 0. -1.
         23    2    1    2    0    0  0.00000000000E+00 -0.17763568394E-14  0.71054273576E-14  0.91188000000E+02  0.91188000000E+02 0.  0.
    9900012    2    3    3    0    0  0.84065142647E+01 -0.11347011260E+02 -0.34005225861E+02  0.54367088381E+02  0.40000009582E+02 0.  0.
        -12    1    3    3    0    0 -0.84065142647E+01  0.11347011260E+02  0.34005225861E+02  0.36820911619E+02  0.00000000000E+00 0.  1.
         11    1    4    4    0    0  0.48265698698E+01  0.11564219065E+02 -0.23905788542E+02  0.26990992300E+02  0.51100000000E-03 0. -1.
        -11    1    4    4    0    0  0.32986567565E+01 -0.15420788752E+01  0.21208002203E+00  0.36474815765E+01  0.51100000000E-03 0.  1.
        -12    1    4    4    0    0  0.28128763848E+00 -0.21369151449E+02 -0.10311517341E+02  0.23728614504E+02  0.00000000000E+00 0.  1.
</event>
<event>
 8    1  0.2433390E-006  0.9118800E+02  0.7816164E-02  0.1184000E+00
        -11   -1    0    0    0    0  0.00000000000E+00  0.00000000000E+00  0.45593999997E+02  0.45594000000E+02  0.51100000000E-03 0.  1.
         11   -1    0    0    0    0 -0.00000000000E+00 -0.00000000000E+00 -0.45593999997E+02  0.45594000000E+02  0.51100000000E-03 0. -1.
         23    2    1    2    0    0 -0.17763568394E-14  0.00000000000E+00  0.17763568394E-14  0.91188000000E+02  0.91188000000E+02 0.  0.
    9900012    2    3    3    0    0  0.87305730689E+01  0.32031302323E+02 -0.15923290305E+02  0.54367103640E+02  0.40000044368E+02 0.  0.
         12    1    3    3    0    0 -0.87305730689E+01 -0.32031302323E+02  0.15923290305E+02  0.36820896360E+02  0.00000000000E+00 0. -1.
         11    1    4    4    0    0  0.85658506898E+01  0.29704968018E+02 -0.46935079972E+01  0.31269600902E+02  0.51100000000E-03 0. -1.
        -11    1    4    4    0    0  0.38611415188E+01  0.11166686049E+01  0.49959816998E+01  0.64121132248E+01  0.51100000000E-03 0.  1.
         12    1    4    4    0    0 -0.36964191396E+01  0.12096656998E+01 -0.16225764007E+02  0.16685389513E+02  0.00000000000E+00 0. -1.
</event>
<event>
 8    1  0.2433390E-006  0.9118800E+02  0.7816164E-02  0.1184000E+00
        -11   -1    0    0    0    0  0.00000000000E+00  0.00000000000E+00  0.45593999997E+02  0.45594000000E+02  0.51100000000E-03 0. -1.
         11   -1    0    0    0    0 -0.00000000000E+00 -0.00000000000E+00 -0.45593999997E+02  0.45594000000E+02  0.51100000000E-03 0.  1.
         23    2    1    2    0    0  0.00000000000E+00 -0.22204460493E-15 -0.35527136788E-14  0.91188000000E+02  0.91188000000E+02 0.  0.
    9900012    2    3    3    0    0  0.27214013516E+02 -0.11531265836E+01  0.24775929128E+02  0.54367097014E+02  0.40000029263E+02 0.  0.
        -12    1    3    3    0    0 -0.27214013516E+02  0.11531265836E+01 -0.24775929128E+02  0.36820902986E+02  0.00000000000E+00 0.  1.
         11    1    4    4    0    0  0.78381193284E+00 -0.56646406832E+01  0.17574415022E+02  0.18481411712E+02  0.51100000000E-03 0. -1.
        -11    1    4    4    0    0  0.27147416881E+02  0.94952926858E-01 -0.30212801810E+00  0.27149264096E+02  0.51100000000E-03 0.  1.
        -12    1    4    4    0    0 -0.71721529785E+00  0.44165611728E+01  0.75036421233E+01  0.87364212062E+01  0.00000000000E+00 0.  1.
</event>
<event>
 8    1  0.2433390E-006  0.9118800E+02  0.7816164E-02  0.1184000E+00
        -11   -1    0    0    0    0  0.00000000000E+00  0.00000000000E+00  0.45593999997E+02  0.45594000000E+02  0.51100000000E-03 0.  1.
         11   -1    0    0    0    0 -0.00000000000E+00 -0.00000000000E+00 -0.45593999997E+02  0.45594000000E+02  0.51100000000E-03 0. -1.
         23    2    1    2    0    0  0.00000000000E+00  0.71054273576E-14  0.00000000000E+00  0.91188000000E+02  0.91188000000E+02 0.  0.
    9900012    2    3    3    0    0 -0.68314308259E+01  0.34359324105E+02  0.11337949100E+02  0.54367072665E+02  0.39999973754E+02 0.  0.
         12    1    3    3    0    0  0.68314308259E+01 -0.34359324105E+02 -0.11337949100E+02  0.36820927335E+02  0.00000000000E+00 0. -1.
         11    1    4    4    0    0  0.83019390359E+01  0.95426947984E+01  0.10135060188E+02  0.16208166492E+02  0.51100000000E-03 0. -1.
        -11    1    4    4    0    0  0.14954335222E+01 -0.41311853897E+01 -0.15563840736E+01  0.46610455682E+01  0.51100000000E-03 0.  1.
         12    1    4    4    0    0 -0.16628803384E+02  0.28947814696E+02  0.27592729855E+01  0.33497860604E+02  0.00000000000E+00 0. -1.
</event>
<event>
 8    1  0.2433390E-006  0.9118800E+02  0.7816164E-02  0.1184000E+00
        -11   -1    0    0    0    0  0.00000000000E+00  0.00000000000E+00  0.45593999997E+02  0.45594000000E+02  0.51100000000E-03 0.  1.
         11   -1    0    0    0    0 -0.00000000000E+00 -0.00000000000E+00 -0.45593999997E+02  0.45594000000E+02  0.51100000000E-03 0. -1.
         23    2    1    2    0    0  0.00000000000E+00  0.00000000000E+00  0.00000000000E+00  0.91188000000E+02  0.91188000000E+02 0.  0.
    9900012    2    3    3    0    0  0.11755557253E+02 -0.34327570959E+01  0.34724670873E+02  0.54367085904E+02  0.40000003936E+02 0.  0.
         12    1    3    3    0    0 -0.11755557253E+02  0.34327570959E+01 -0.34724670873E+02  0.36820914096E+02  0.00000000000E+00 0. -1.
         11    1    4    4    0    0  0.29374176220E+00 -0.63759024569E+01  0.11146760254E+02  0.12844791971E+02  0.51100000000E-03 0. -1.
        -11    1    4    4    0    0  0.14359544512E+01 -0.40215366204E+01 -0.72227593756E+01  0.83906480819E+01  0.51100000000E-03 0.  1.
        -12    1    4    4    0    0  0.10025861039E+02  0.69646819814E+01  0.30800669995E+02  0.33131645851E+02  0.00000000000E+00 0.  1.
</event>
<event>
 8    1  0.2433390E-006  0.9118800E+02  0.7816164E-02  0.1184000E+00
        -11   -1    0    0    0    0  0.00000000000E+00  0.00000000000E+00  0.45593999997E+02  0.45594000000E+02  0.51100000000E-03 0. -1.
         11   -1    0    0    0    0 -0.00000000000E+00 -0.00000000000E+00 -0.45593999997E+02  0.45594000000E+02  0.51100000000E-03 0.  1.
         23    2    1    2    0    0  0.35527136788E-14  0.00000000000E+00  0.00000000000E+00  0.91188000000E+02  0.91188000000E+02 0.  0.
    9900012    2    3    3    0    0  0.31890638196E+02 -0.17275966735E+02  0.63495922790E+01  0.54366957737E+02  0.39999711753E+02 0.  0.
        -12    1    3    3    0    0 -0.31890638196E+02  0.17275966735E+02 -0.63495922790E+01  0.36821042263E+02  0.00000000000E+00 0.  1.
         11    1    4    4    0    0  0.35157318424E+02 -0.11252003441E+02  0.63868860737E+01  0.37462473680E+02  0.51100000000E-03 0. -1.
        -11    1    4    4    0    0 -0.25358555342E+01  0.62374986212E+00  0.68339695052E+01  0.73159255491E+01  0.51100000000E-03 0.  1.
        -12    1    4    4    0    0 -0.73082469359E+00 -0.66477131561E+01 -0.68712633000E+01  0.95885585087E+01  0.00000000000E+00 0.  1.
</event>
<event>
 8    1  0.2433390E-006  0.9118800E+02  0.7816164E-02  0.1184000E+00
        -11   -1    0    0    0    0  0.00000000000E+00  0.00000000000E+00  0.45593999997E+02  0.45594000000E+02  0.51100000000E-03 0. -1.
         11   -1    0    0    0    0 -0.00000000000E+00 -0.00000000000E+00 -0.45593999997E+02  0.45594000000E+02  0.51100000000E-03 0.  1.
         23    2    1    2    0    0 -0.35527136788E-14  0.88817841970E-15 -0.35527136788E-14  0.91188000000E+02  0.91188000000E+02 0.  0.
    9900012    2    3    3    0    0 -0.19004816131E+02  0.63307377845E+01 -0.30895301443E+02  0.54367069426E+02  0.39999966371E+02 0.  0.
         12    1    3    3    0    0  0.19004816131E+02 -0.63307377845E+01  0.30895301443E+02  0.36820930574E+02  0.00000000000E+00 0. -1.
         11    1    4    4    0    0 -0.47065211002E+01  0.26798304490E+01  0.22404379253E+01  0.58610915758E+01  0.51100000000E-03 0. -1.
        -11    1    4    4    0    0 -0.19393072420E+02  0.47145734061E+01 -0.59492127180E+01  0.20825743505E+02  0.51100000000E-03 0.  1.
         12    1    4    4    0    0  0.50947773891E+01 -0.10636660706E+01 -0.27186526650E+02  0.27680234346E+02  0.00000000000E+00 0. -1.
</event>
<event>
 8    1  0.2433390E-006  0.9118800E+02  0.7816164E-02  0.1184000E+00
        -11   -1    0    0    0    0  0.00000000000E+00  0.00000000000E+00  0.45593999997E+02  0.45594000000E+02  0.51100000000E-03 0.  1.
         11   -1    0    0    0    0 -0.00000000000E+00 -0.00000000000E+00 -0.45593999997E+02  0.45594000000E+02  0.51100000000E-03 0. -1.
         23    2    1    2    0    0 -0.35527136788E-14  0.44408920985E-15  0.00000000000E+00  0.91188000000E+02  0.91188000000E+02 0.  0.
    9900012    2    3    3    0    0 -0.21775084263E+02  0.14761510093E+00 -0.29691816514E+02  0.54367081315E+02  0.39999993475E+02 0.  0.
        -12    1    3    3    0    0  0.21775084263E+02 -0.14761510093E+00  0.29691816514E+02  0.36820918685E+02  0.00000000000E+00 0.  1.
         11    1    4    4    0    0 -0.81849207987E+01 -0.11836207714E+02 -0.82423940694E+01  0.16583901887E+02  0.51100000000E-03 0. -1.
        -11    1    4    4    0    0  0.66985365227E+01  0.71630324736E+01 -0.39975733510E+01  0.10590562720E+02  0.51100000000E-03 0.  1.
         12    1    4    4    0    0 -0.20288699987E+02  0.48207903415E+01 -0.17451849094E+02  0.27192616709E+02  0.00000000000E+00 0. -1.
</event>
<event>
 8    1  0.2433390E-006  0.9118800E+02  0.7816164E-02  0.1184000E+00
        -11   -1    0    0    0    0  0.00000000000E+00  0.00000000000E+00  0.45593999997E+02  0.45594000000E+02  0.51100000000E-03 0.  1.
         11   -1    0    0    0    0 -0.00000000000E+00 -0.00000000000E+00 -0.45593999997E+02  0.45594000000E+02  0.51100000000E-03 0. -1.
         23    2    1    2    0    0  0.00000000000E+00 -0.88817841970E-15 -0.35527136788E-14  0.91188000000E+02  0.91188000000E+02 0.  0.
    9900012    2    3    3    0    0  0.32447100489E+02  0.58754668479E+01  0.16384358402E+02  0.54367046168E+02  0.39999913350E+02 0.  0.
         12    1    3    3    0    0 -0.32447100489E+02 -0.58754668479E+01 -0.16384358402E+02  0.36820953832E+02  0.00000000000E+00 0. -1.
         11    1    4    4    0    0  0.62017286916E+01  0.34098916838E+01 -0.61920776355E+00  0.71043802386E+01  0.51100000000E-03 0. -1.
        -11    1    4    4    0    0  0.21324435246E+02 -0.18535064701E+01  0.27526272496E+02  0.34869222856E+02  0.51100000000E-03 0.  1.
        -12    1    4    4    0    0  0.49209365510E+01  0.43190816342E+01 -0.10522706330E+02  0.12393443074E+02  0.00000000000E+00 0.  1.
</event>
<event>
 8    1  0.2433390E-006  0.9118800E+02  0.7816164E-02  0.1184000E+00
        -11   -1    0    0    0    0  0.00000000000E+00  0.00000000000E+00  0.45593999997E+02  0.45594000000E+02  0.51100000000E-03 0. -1.
         11   -1    0    0    0    0 -0.00000000000E+00 -0.00000000000E+00 -0.45593999997E+02  0.45594000000E+02  0.51100000000E-03 0.  1.
         23    2    1    2    0    0 -0.35527136788E-14  0.00000000000E+00 -0.35527136788E-14  0.91188000000E+02  0.91188000000E+02 0.  0.
    9900012    2    3    3    0    0  0.23951166406E+02  0.22813934435E+02 -0.16175514009E+02  0.54367065329E+02  0.39999957031E+02 0.  0.
         12    1    3    3    0    0 -0.23951166406E+02 -0.22813934435E+02  0.16175514009E+02  0.36820934671E+02  0.00000000000E+00 0. -1.
         11    1    4    4    0    0  0.31338941058E+01  0.77904976525E+01  0.97538952620E+01  0.12870571820E+02  0.51100000000E-03 0. -1.
        -11    1    4    4    0    0  0.11755096004E+02 -0.10842738910E+01 -0.32580628328E+01  0.12246342541E+02  0.51100000000E-03 0.  1.
        -12    1    4    4    0    0  0.90621762960E+01  0.16107710673E+02 -0.22671346438E+02  0.29250150968E+02  0.00000000000E+00 0.  1.
</event>
<event>
 8    1  0.2433390E-006  0.9118800E+02  0.7816164E-02  0.1184000E+00
        -11   -1    0    0    0    0  0.00000000000E+00  0.00000000000E+00  0.45593999997E+02  0.45594000000E+02  0.51100000000E-03 0.  1.
         11   -1    0    0    0    0 -0.00000000000E+00 -0.00000000000E+00 -0.45593999997E+02  0.45594000000E+02  0.51100000000E-03 0. -1.
         23    2    1    2    0    0  0.00000000000E+00  0.00000000000E+00  0.00000000000E+00  0.91188000000E+02  0.91188000000E+02 0.  0.
    9900012    2    3    3    0    0  0.26692009533E+02 -0.13352045704E+02  0.21564770525E+02  0.54367084406E+02  0.40000000520E+02 0.  0.
         12    1    3    3    0    0 -0.26692009533E+02  0.13352045704E+02 -0.21564770525E+02  0.36820915594E+02  0.00000000000E+00 0. -1.
         11    1    4    4    0    0  0.14026796547E+02  0.54258526861E+00 -0.57886415660E+01  0.15183997879E+02  0.51100000000E-03 0. -1.
        -11    1    4    4    0    0  0.14226906055E+02 -0.24705147008E+01  0.22361511072E+02  0.26618517548E+02  0.51100000000E-03 0.  1.
        -12    1    4    4    0    0 -0.15616930693E+01 -0.11424116272E+02  0.49919010187E+01  0.12564568979E+02  0.00000000000E+00 0.  1.
</event>
<event>
 8    1  0.2433390E-006  0.9118800E+02  0.7816164E-02  0.1184000E+00
        -11   -1    0    0    0    0  0.00000000000E+00  0.00000000000E+00  0.45593999997E+02  0.45594000000E+02  0.51100000000E-03 0.  1.
         11   -1    0    0    0    0 -0.00000000000E+00 -0.00000000000E+00 -0.45593999997E+02  0.45594000000E+02  0.51100000000E-03 0. -1.
         23    2    1    2    0    0  0.00000000000E+00  0.00000000000E+00  0.00000000000E+00  0.91188000000E+02  0.91188000000E+02 0.  0.
    9900012    2    3    3    0    0 -0.32755829574E+02 -0.11129855696E+02  0.12608011754E+02  0.54367081771E+02  0.39999994512E+02 0.  0.
         12    1    3    3    0    0  0.32755829574E+02  0.11129855696E+02 -0.12608011754E+02  0.36820918229E+02  0.00000000000E+00 0. -1.
         11    1    4    4    0    0 -0.18620323046E+02 -0.15840679551E+02  0.21894182769E+02  0.32817659855E+02  0.51100000000E-03 0. -1.
        -11    1    4    4    0    0 -0.53727460105E+01  0.82724016371E+01 -0.35294455177E+01  0.10476450471E+02  0.51100000000E-03 0.  1.
         12    1    4    4    0    0 -0.87627605172E+01 -0.35615777825E+01 -0.57567254973E+01  0.11072971446E+02  0.00000000000E+00 0. -1.
</event>
<event>
 8    1  0.2433390E-006  0.9118800E+02  0.7816164E-02  0.1184000E+00
        -11   -1    0    0    0    0  0.00000000000E+00  0.00000000000E+00  0.45593999997E+02  0.45594000000E+02  0.51100000000E-03 0.  1.
         11   -1    0    0    0    0 -0.00000000000E+00 -0.00000000000E+00 -0.45593999997E+02  0.45594000000E+02  0.51100000000E-03 0. -1.
         23    2    1    2    0    0  0.35527136788E-14 -0.17763568394E-14 -0.35527136788E-14  0.91188000000E+02  0.91188000000E+02 0.  0.
    9900012    2    3    3    0    0 -0.27880709398E+02  0.15191510830E+02 -0.18645721776E+02  0.54367096992E+02  0.40000029212E+02 0.  0.
        -12    1    3    3    0    0  0.27880709398E+02 -0.15191510830E+02  0.18645721776E+02  0.36820903008E+02  0.00000000000E+00 0.  1.
         11    1    4    4    0    0 -0.98323024137E+01 -0.54463558371E+01 -0.51298285472E+01  0.12355246005E+02  0.51100000000E-03 0. -1.
        -11    1    4    4    0    0  0.10215183603E+01  0.20448797660E+02 -0.47252651817E+01  0.21012495254E+02  0.51100000000E-03 0.  1.
        -12    1    4    4    0    0 -0.19069925344E+02  0.18906900705E+00 -0.87906280471E+01  0.20999355733E+02  0.00000000000E+00 0.  1.
</event>
<event>
 8    1  0.2433390E-006  0.9118800E+02  0.7816164E-02  0.1184000E+00
        -11   -1    0    0    0    0  0.00000000000E+00  0.00000000000E+00  0.45593999997E+02  0.45594000000E+02  0.51100000000E-03 0.  1.
         11   -1    0    0    0    0 -0.00000000000E+00 -0.00000000000E+00 -0.45593999997E+02  0.45594000000E+02  0.51100000000E-03 0. -1.
         23    2    1    2    0    0 -0.35527136788E-14  0.00000000000E+00  0.00000000000E+00  0.91188000000E+02  0.91188000000E+02 0.  0.
    9900012    2    3    3    0    0  0.25302863114E+02  0.23517212344E+02  0.12746973009E+02  0.54367089106E+02  0.40000011234E+02 0.  0.
        -12    1    3    3    0    0 -0.25302863114E+02 -0.23517212344E+02 -0.12746973009E+02  0.36820910894E+02  0.00000000000E+00 0.  1.
         11    1    4    4    0    0  0.96717200197E+01  0.27997614687E+01 -0.10943391481E+02  0.14870731313E+02  0.51100000000E-03 0. -1.
        -11    1    4    4    0    0  0.22483115443E+01  0.75059438889E+01  0.18341479436E+02  0.19945023606E+02  0.51100000000E-03 0.  1.
         12    1    4    4    0    0  0.13382831550E+02  0.13211506986E+02  0.53488850536E+01  0.19551334186E+02  0.00000000000E+00 0. -1.
</event>
<event>
 8    1  0.2433390E-006  0.9118800E+02  0.7816164E-02  0.1184000E+00
        -11   -1    0    0    0    0  0.00000000000E+00  0.00000000000E+00  0.45593999997E+02  0.45594000000E+02  0.51100000000E-03 0. -1.
         11   -1    0    0    0    0 -0.00000000000E+00 -0.00000000000E+00 -0.45593999997E+02  0.45594000000E+02  0.51100000000E-03 0.  1.
         23    2    1    2    0    0  0.00000000000E+00 -0.35527136788E-14  0.19984014443E-14  0.91188000000E+02  0.91188000000E+02 0.  0.
    9900012    2    3    3    0    0  0.26738190366E+02 -0.25302788690E+02  0.78615390134E+00  0.54367082338E+02  0.39999995805E+02 0.  0.
        -12    1    3    3    0    0 -0.26738190366E+02  0.25302788690E+02 -0.78615390134E+00  0.36820917662E+02  0.00000000000E+00 0.  1.
         11    1    4    4    0    0  0.15912812859E+02 -0.15364108754E+02  0.17476667578E+02  0.28190554460E+02  0.51100000000E-03 0. -1.
        -11    1    4    4    0    0  0.19370150136E+01  0.32664655646E+01 -0.56381640286E+01  0.67978465945E+01  0.51100000000E-03 0.  1.
         12    1    4    4    0    0  0.88883624943E+01 -0.13205145500E+02 -0.11052349648E+02  0.19378681283E+02  0.00000000000E+00 0. -1.
</event>
<event>
 8    1  0.2433390E-006  0.9118800E+02  0.7816164E-02  0.1184000E+00
        -11   -1    0    0    0    0  0.00000000000E+00  0.00000000000E+00  0.45593999997E+02  0.45594000000E+02  0.51100000000E-03 0.  1.
         11   -1    0    0    0    0 -0.00000000000E+00 -0.00000000000E+00 -0.45593999997E+02  0.45594000000E+02  0.51100000000E-03 0. -1.
         23    2    1    2    0    0  0.00000000000E+00  0.17763568394E-14 -0.88817841970E-15  0.91188000000E+02  0.91188000000E+02 0.  0.
    9900012    2    3    3    0    0 -0.33467355578E+02 -0.14725231366E+02 -0.43454812323E+01  0.54367088342E+02  0.40000009493E+02 0.  0.
        -12    1    3    3    0    0  0.33467355578E+02  0.14725231366E+02  0.43454812323E+01  0.36820911658E+02  0.00000000000E+00 0.  1.
         11    1    4    4    0    0 -0.71322939871E+01  0.31042707829E+01 -0.36681992302E+01  0.86001046776E+01  0.51100000000E-03 0.  1.
        -11    1    4    4    0    0 -0.20548770310E+02 -0.21093389724E+02 -0.12669376194E+02  0.32057700240E+02  0.51100000000E-03 0. -1.
        -12    1    4    4    0    0 -0.57862912814E+01  0.32638875757E+01  0.11992094192E+02  0.13709283424E+02  0.00000000000E+00 0.  1.
</event>
<event>
 8    1  0.2433390E-006  0.9118800E+02  0.7816164E-02  0.1184000E+00
        -11   -1    0    0    0    0  0.00000000000E+00  0.00000000000E+00  0.45593999997E+02  0.45594000000E+02  0.51100000000E-03 0.  1.
         11   -1    0    0    0    0 -0.00000000000E+00 -0.00000000000E+00 -0.45593999997E+02  0.45594000000E+02  0.51100000000E-03 0. -1.
         23    2    1    2    0    0  0.71054273576E-14  0.00000000000E+00  0.88817841970E-15  0.91188000000E+02  0.91188000000E+02 0.  0.
    9900012    2    3    3    0    0 -0.35931348490E+02 -0.67301310631E+01  0.44072468983E+01  0.54367078045E+02  0.39999986018E+02 0.  0.
        -12    1    3    3    0    0  0.35931348490E+02  0.67301310631E+01 -0.44072468983E+01  0.36820921955E+02  0.00000000000E+00 0.  1.
         11    1    4    4    0    0 -0.16333416890E+02 -0.32739284332E+01 -0.20892346440E+01  0.16788806281E+02  0.51100000000E-03 0. -1.
        -11    1    4    4    0    0 -0.22072431150E+02  0.31915750309E+01 -0.61006225040E+01  0.23121331347E+02  0.51100000000E-03 0.  1.
        -12    1    4    4    0    0  0.24744995506E+01 -0.66477776607E+01  0.12597104046E+02  0.14456940416E+02  0.00000000000E+00 0.  1.
</event>
<event>
 8    1  0.2433390E-006  0.9118800E+02  0.7816164E-02  0.1184000E+00
        -11   -1    0    0    0    0  0.00000000000E+00  0.00000000000E+00  0.45593999997E+02  0.45594000000E+02  0.51100000000E-03 0.  1.
         11   -1    0    0    0    0 -0.00000000000E+00 -0.00000000000E+00 -0.45593999997E+02  0.45594000000E+02  0.51100000000E-03 0. -1.
         23    2    1    2    0    0  0.17763568394E-14  0.00000000000E+00 -0.17763568394E-14  0.91188000000E+02  0.91188000000E+02 0.  0.
    9900012    2    3    3    0    0 -0.12184321960E+02 -0.32070740420E+02 -0.13371227664E+02  0.54367084449E+02  0.40000000619E+02 0.  0.
         12    1    3    3    0    0  0.12184321960E+02  0.32070740420E+02  0.13371227664E+02  0.36820915551E+02  0.00000000000E+00 0. -1.
         11    1    4    4    0    0  0.82010714400E+01 -0.13424745557E+02 -0.90213937255E+01  0.18134688060E+02  0.51100000000E-03 0. -1.
        -11    1    4    4    0    0 -0.15594334511E+02 -0.21891108125E+02  0.28127820189E+01  0.27024352476E+02  0.51100000000E-03 0.  1.
         12    1    4    4    0    0 -0.47910588887E+01  0.32451132615E+01 -0.71626159577E+01  0.92080439135E+01  0.00000000000E+00 0. -1.
</event>
<event>
 8    1  0.2433390E-006  0.9118800E+02  0.7816164E-02  0.1184000E+00
        -11   -1    0    0    0    0  0.00000000000E+00  0.00000000000E+00  0.45593999997E+02  0.45594000000E+02  0.51100000000E-03 0. -1.
         11   -1    0    0    0    0 -0.00000000000E+00 -0.00000000000E+00 -0.45593999997E+02  0.45594000000E+02  0.51100000000E-03 0.  1.
         23    2    1    2    0    0 -0.35527136788E-14  0.00000000000E+00  0.00000000000E+00  0.91188000000E+02  0.91188000000E+02 0.  0.
    9900012    2    3    3    0    0 -0.25184317024E+02 -0.26341958718E+02  0.52559216165E+01  0.54367172672E+02  0.40000201741E+02 0.  0.
        -12    1    3    3    0    0  0.25184317024E+02  0.26341958718E+02 -0.52559216165E+01  0.36820827328E+02  0.00000000000E+00 0.  1.
         11    1    4    4    0    0 -0.14076918999E+02 -0.94974722296E+01 -0.14769590444E+01  0.17045322981E+02  0.51100000000E-03 0. -1.
        -11    1    4    4    0    0 -0.16517375306E+02 -0.18163503760E+02 -0.43365285339E+01  0.24930744790E+02  0.51100000000E-03 0.  1.
        -12    1    4    4    0    0  0.54099772808E+01  0.13190172715E+01  0.11069409195E+02  0.12391104901E+02  0.00000000000E+00 0.  1.
</event>
<event>
 8    1  0.2433390E-006  0.9118800E+02  0.7816164E-02  0.1184000E+00
        -11   -1    0    0    0    0  0.00000000000E+00  0.00000000000E+00  0.45593999997E+02  0.45594000000E+02  0.51100000000E-03 0. -1.
         11   -1    0    0    0    0 -0.00000000000E+00 -0.00000000000E+00 -0.45593999997E+02  0.45594000000E+02  0.51100000000E-03 0.  1.
         23    2    1    2    0    0  0.00000000000E+00  0.00000000000E+00  0.00000000000E+00  0.91188000000E+02  0.91188000000E+02 0.  0.
    9900012    2    3    3    0    0 -0.31869246016E+02  0.11795724888E+02  0.14177156447E+02  0.54367085669E+02  0.40000003400E+02 0.  0.
        -12    1    3    3    0    0  0.31869246016E+02 -0.11795724888E+02 -0.14177156447E+02  0.36820914331E+02  0.00000000000E+00 0.  1.
         11    1    4    4    0    0 -0.37098634906E+02  0.52432928972E+01  0.97505664923E+01  0.38715299036E+02  0.51100000000E-03 0. -1.
        -11    1    4    4    0    0  0.60521257932E+01 -0.19625505766E+01  0.27652543877E+01  0.69373239417E+01  0.51100000000E-03 0.  1.
        -12    1    4    4    0    0 -0.82273690333E+00  0.85149825673E+01  0.16613355667E+01  0.87144626913E+01  0.00000000000E+00 0.  1.
</event>
<event>
 8    1  0.2433390E-006  0.9118800E+02  0.7816164E-02  0.1184000E+00
        -11   -1    0    0    0    0  0.00000000000E+00  0.00000000000E+00  0.45593999997E+02  0.45594000000E+02  0.51100000000E-03 0.  1.
         11   -1    0    0    0    0 -0.00000000000E+00 -0.00000000000E+00 -0.45593999997E+02  0.45594000000E+02  0.51100000000E-03 0. -1.
         23    2    1    2    0    0  0.00000000000E+00 -0.13322676296E-14  0.71054273576E-14  0.91188000000E+02  0.91188000000E+02 0.  0.
    9900012    2    3    3    0    0 -0.30851588233E+02  0.22937930447E+01 -0.19967319421E+02  0.54367138686E+02  0.40000124262E+02 0.  0.
         12    1    3    3    0    0  0.30851588233E+02 -0.22937930447E+01  0.19967319421E+02  0.36820861314E+02  0.00000000000E+00 0. -1.
         11    1    4    4    0    0 -0.18186888116E+01  0.12007325153E+00 -0.13786967686E+02  0.13906923629E+02  0.51100000000E-03 0. -1.
        -11    1    4    4    0    0 -0.31554595415E+01 -0.10099110866E+02  0.17915095348E+01  0.10731191540E+02  0.51100000000E-03 0.  1.
        -12    1    4    4    0    0 -0.25877439880E+02  0.12272830659E+02 -0.79718612694E+01  0.29729023517E+02  0.00000000000E+00 0.  1.
</event>
<event>
 8    1  0.2433390E-006  0.9118800E+02  0.7816164E-02  0.1184000E+00
        -11   -1    0    0    0    0  0.00000000000E+00  0.00000000000E+00  0.45593999997E+02  0.45594000000E+02  0.51100000000E-03 0. -1.
         11   -1    0    0    0    0 -0.00000000000E+00 -0.00000000000E+00 -0.45593999997E+02  0.45594000000E+02  0.51100000000E-03 0.  1.
         23    2    1    2    0    0  0.12490009027E-15  0.35527136788E-14  0.00000000000E+00  0.91188000000E+02  0.91188000000E+02 0.  0.
    9900012    2    3    3    0    0 -0.11748511944E+00  0.17912453960E+02  0.32170028146E+02  0.54367074964E+02  0.39999978994E+02 0.  0.
        -12    1    3    3    0    0  0.11748511944E+00 -0.17912453960E+02 -0.32170028146E+02  0.36820925036E+02  0.00000000000E+00 0.  1.
         11    1    4    4    0    0  0.16709130627E+01 -0.45955743872E+01  0.56156805879E+01  0.74462825046E+01  0.51100000000E-03 0. -1.
        -11    1    4    4    0    0 -0.25151872310E+01 -0.30102214045E+01 -0.49857156830E+01  0.63438916167E+01  0.51100000000E-03 0.  1.
        -12    1    4    4    0    0  0.72678904887E+00  0.25518249751E+02  0.31540063242E+02  0.40576900842E+02  0.00000000000E+00 0.  1.
</event>
<event>
 8    1  0.2433390E-006  0.9118800E+02  0.7816164E-02  0.1184000E+00
        -11   -1    0    0    0    0  0.00000000000E+00  0.00000000000E+00  0.45593999997E+02  0.45594000000E+02  0.51100000000E-03 0.  1.
         11   -1    0    0    0    0 -0.00000000000E+00 -0.00000000000E+00 -0.45593999997E+02  0.45594000000E+02  0.51100000000E-03 0. -1.
         23    2    1    2    0    0  0.26645352591E-14  0.00000000000E+00  0.71054273576E-14  0.91188000000E+02  0.91188000000E+02 0.  0.
    9900012    2    3    3    0    0  0.76826994980E+01  0.86379517946E+01  0.34959139742E+02  0.54367088356E+02  0.40000009526E+02 0.  0.
         12    1    3    3    0    0 -0.76826994980E+01 -0.86379517946E+01 -0.34959139742E+02  0.36820911644E+02  0.00000000000E+00 0. -1.
         11    1    4    4    0    0 -0.13751986004E+02  0.55971394518E+01  0.12827504543E+02  0.19621161081E+02  0.51100000000E-03 0. -1.
        -11    1    4    4    0    0  0.51430013932E+01  0.48444159463E+01 -0.17147144377E+00  0.70674063070E+01  0.51100000000E-03 0.  1.
        -12    1    4    4    0    0  0.16291684109E+02 -0.18036036035E+01  0.22303106643E+02  0.27678520968E+02  0.00000000000E+00 0.  1.
</event>
<event>
 8    1  0.2433390E-006  0.9118800E+02  0.7816164E-02  0.1184000E+00
        -11   -1    0    0    0    0  0.00000000000E+00  0.00000000000E+00  0.45593999997E+02  0.45594000000E+02  0.51100000000E-03 0. -1.
         11   -1    0    0    0    0 -0.00000000000E+00 -0.00000000000E+00 -0.45593999997E+02  0.45594000000E+02  0.51100000000E-03 0.  1.
         23    2    1    2    0    0  0.00000000000E+00 -0.35527136788E-14  0.00000000000E+00  0.91188000000E+02  0.91188000000E+02 0.  0.
    9900012    2    3    3    0    0 -0.10879207519E+02  0.25081912783E+02  0.24664184401E+02  0.54367061701E+02  0.39999948759E+02 0.  0.
        -12    1    3    3    0    0  0.10879207519E+02 -0.25081912783E+02 -0.24664184401E+02  0.36820938299E+02  0.00000000000E+00 0.  1.
         11    1    4    4    0    0  0.47245935047E+01  0.13068581751E+02  0.34884000718E+01  0.14327545082E+02  0.51100000000E-03 0. -1.
        -11    1    4    4    0    0 -0.96116368018E+01  0.16941487642E+01 -0.52226947422E+01  0.11069337951E+02  0.51100000000E-03 0.  1.
        -12    1    4    4    0    0 -0.59921642218E+01  0.10319182268E+02  0.26398479071E+02  0.28970178667E+02  0.00000000000E+00 0.  1.
</event>
<event>
 8    1  0.2433390E-006  0.9118800E+02  0.7816164E-02  0.1184000E+00
        -11   -1    0    0    0    0  0.00000000000E+00  0.00000000000E+00  0.45593999997E+02  0.45594000000E+02  0.51100000000E-03 0.  1.
         11   -1    0    0    0    0 -0.00000000000E+00 -0.00000000000E+00 -0.45593999997E+02  0.45594000000E+02  0.51100000000E-03 0. -1.
         23    2    1    2    0    0 -0.35527136788E-14 -0.35527136788E-14  0.35527136788E-14  0.91188000000E+02  0.91188000000E+02 0.  0.
    9900012    2    3    3    0    0  0.19043583692E+02 -0.17272999805E+02 -0.26358426291E+02  0.54367065213E+02  0.39999956765E+02 0.  0.
        -12    1    3    3    0    0 -0.19043583692E+02  0.17272999805E+02  0.26358426291E+02  0.36820934787E+02  0.00000000000E+00 0.  1.
         11    1    4    4    0    0  0.29581900990E+02 -0.12162304502E+02 -0.12796214489E+02  0.34449290595E+02  0.51100000000E-03 0.  1.
        -11    1    4    4    0    0 -0.88916819461E+01 -0.75341006076E+01 -0.10678560546E+02  0.15806844574E+02  0.51100000000E-03 0. -1.
        -12    1    4    4    0    0 -0.16466353524E+01  0.24234053048E+01 -0.28836512562E+01  0.41109300435E+01  0.00000000000E+00 0.  1.
</event>
<event>
 8    1  0.2433390E-006  0.9118800E+02  0.7816164E-02  0.1184000E+00
        -11   -1    0    0    0    0  0.00000000000E+00  0.00000000000E+00  0.45593999997E+02  0.45594000000E+02  0.51100000000E-03 0.  1.
         11   -1    0    0    0    0 -0.00000000000E+00 -0.00000000000E+00 -0.45593999997E+02  0.45594000000E+02  0.51100000000E-03 0. -1.
         23    2    1    2    0    0 -0.17763568394E-14  0.00000000000E+00  0.00000000000E+00  0.91188000000E+02  0.91188000000E+02 0.  0.
    9900012    2    3    3    0    0  0.12991713172E+02 -0.29914285879E+02 -0.17091836822E+02  0.54367082076E+02  0.39999995209E+02 0.  0.
        -12    1    3    3    0    0 -0.12991713172E+02  0.29914285879E+02  0.17091836822E+02  0.36820917924E+02  0.00000000000E+00 0.  1.
         11    1    4    4    0    0 -0.54072153542E+01 -0.20581829660E+01  0.48993006690E+00  0.58063867198E+01  0.51100000000E-03 0. -1.
        -11    1    4    4    0    0  0.16525870549E+02 -0.21634231868E+02 -0.26189320971E+02  0.37775983364E+02  0.51100000000E-03 0.  1.
        -12    1    4    4    0    0  0.18730579765E+01 -0.62218710453E+01  0.86075540816E+01  0.10784711992E+02  0.00000000000E+00 0.  1.
</event>
<event>
 8    1  0.2433390E-006  0.9118800E+02  0.7816164E-02  0.1184000E+00
        -11   -1    0    0    0    0  0.00000000000E+00  0.00000000000E+00  0.45593999997E+02  0.45594000000E+02  0.51100000000E-03 0.  1.
         11   -1    0    0    0    0 -0.00000000000E+00 -0.00000000000E+00 -0.45593999997E+02  0.45594000000E+02  0.51100000000E-03 0. -1.
         23    2    1    2    0    0  0.00000000000E+00  0.00000000000E+00  0.00000000000E+00  0.91188000000E+02  0.91188000000E+02 0.  0.
    9900012    2    3    3    0    0  0.85285904151E+01  0.33554441295E+02  0.12535642095E+02  0.54367085999E+02  0.40000004152E+02 0.  0.
         12    1    3    3    0    0 -0.85285904151E+01 -0.33554441295E+02 -0.12535642095E+02  0.36820914001E+02  0.00000000000E+00 0. -1.
         11    1    4    4    0    0 -0.68983705817E+01  0.11314142496E+02  0.16788346127E+02  0.21387985016E+02  0.51100000000E-03 0.  1.
        -11    1    4    4    0    0 -0.30314330561E+01  0.73860802016E+01 -0.47325429355E+01  0.92812030478E+01  0.51100000000E-03 0. -1.
         12    1    4    4    0    0  0.18458394053E+02  0.14854218598E+02  0.47983890322E+00  0.23697897935E+02  0.00000000000E+00 0. -1.
</event>
<event>
 8    1  0.2433390E-006  0.9118800E+02  0.7816164E-02  0.1184000E+00
        -11   -1    0    0    0    0  0.00000000000E+00  0.00000000000E+00  0.45593999997E+02  0.45594000000E+02  0.51100000000E-03 0. -1.
         11   -1    0    0    0    0 -0.00000000000E+00 -0.00000000000E+00 -0.45593999997E+02  0.45594000000E+02  0.51100000000E-03 0.  1.
         23    2    1    2    0    0  0.00000000000E+00 -0.35527136788E-14  0.00000000000E+00  0.91188000000E+02  0.91188000000E+02 0.  0.
    9900012    2    3    3    0    0 -0.17264844594E+01  0.27494848403E+02 -0.24430187073E+02  0.54367061966E+02  0.39999949363E+02 0.  0.
         12    1    3    3    0    0  0.17264844594E+01 -0.27494848403E+02  0.24430187073E+02  0.36820938034E+02  0.00000000000E+00 0. -1.
         11    1    4    4    0    0 -0.93141275186E+01 -0.51599395496E+01 -0.43514128649E+01  0.11502727580E+02  0.51100000000E-03 0. -1.
        -11    1    4    4    0    0 -0.21832874752E+01  0.10701941443E+02 -0.14574196867E+02  0.18212784230E+02  0.51100000000E-03 0.  1.
        -12    1    4    4    0    0  0.97709305344E+01  0.21952846510E+02 -0.55045773414E+01  0.24651550156E+02  0.00000000000E+00 0.  1.
</event>
<event>
 8    1  0.2433390E-006  0.9118800E+02  0.7816164E-02  0.1184000E+00
        -11   -1    0    0    0    0  0.00000000000E+00  0.00000000000E+00  0.45593999997E+02  0.45594000000E+02  0.51100000000E-03 0.  1.
         11   -1    0    0    0    0 -0.00000000000E+00 -0.00000000000E+00 -0.45593999997E+02  0.45594000000E+02  0.51100000000E-03 0. -1.
         23    2    1    2    0    0 -0.17763568394E-14  0.00000000000E+00  0.00000000000E+00  0.91188000000E+02  0.91188000000E+02 0.  0.
    9900012    2    3    3    0    0 -0.20526250527E+01 -0.36683238057E+02 -0.24303873476E+01  0.54367081943E+02  0.39999994904E+02 0.  0.
        -12    1    3    3    0    0  0.20526250527E+01  0.36683238057E+02  0.24303873476E+01  0.36820918057E+02  0.00000000000E+00 0.  1.
         11    1    4    4    0    0 -0.12840737230E+02 -0.38051895499E+02 -0.65745569940E+01  0.40694668983E+02  0.51100000000E-03 0. -1.
        -11    1    4    4    0    0  0.26356255841E+00  0.62855790227E+00  0.29810259928E+01  0.30579513550E+01  0.51100000000E-03 0.  1.
         12    1    4    4    0    0  0.10524549618E+02  0.74009954023E+00  0.11631436536E+01  0.10614461605E+02  0.00000000000E+00 0. -1.
</event>
<event>
 8    1  0.2433390E-006  0.9118800E+02  0.7816164E-02  0.1184000E+00
        -11   -1    0    0    0    0  0.00000000000E+00  0.00000000000E+00  0.45593999997E+02  0.45594000000E+02  0.51100000000E-03 0. -1.
         11   -1    0    0    0    0 -0.00000000000E+00 -0.00000000000E+00 -0.45593999997E+02  0.45594000000E+02  0.51100000000E-03 0.  1.
         23    2    1    2    0    0  0.35527136788E-14  0.00000000000E+00  0.35527136788E-14  0.91188000000E+02  0.91188000000E+02 0.  0.
    9900012    2    3    3    0    0  0.17932634305E+02 -0.23484148707E+02  0.21970318052E+02  0.54367088972E+02  0.40000010929E+02 0.  0.
        -12    1    3    3    0    0 -0.17932634305E+02  0.23484148707E+02 -0.21970318052E+02  0.36820911028E+02  0.00000000000E+00 0.  1.
         11    1    4    4    0    0  0.52982331575E+01 -0.20037228745E+02 -0.25328559472E+01  0.20880066328E+02  0.51100000000E-03 0.  1.
        -11    1    4    4    0    0  0.13845485134E+02 -0.43164876292E+01  0.26959969754E+02  0.30613224159E+02  0.51100000000E-03 0. -1.
        -12    1    4    4    0    0 -0.12110839861E+01  0.86956766686E+00 -0.24567957544E+01  0.28737984841E+01  0.00000000000E+00 0.  1.
</event>
<event>
 8    1  0.2433390E-006  0.9118800E+02  0.7816164E-02  0.1184000E+00
        -11   -1    0    0    0    0  0.00000000000E+00  0.00000000000E+00  0.45593999997E+02  0.45594000000E+02  0.51100000000E-03 0. -1.
         11   -1    0    0    0    0 -0.00000000000E+00 -0.00000000000E+00 -0.45593999997E+02  0.45594000000E+02  0.51100000000E-03 0.  1.
         23    2    1    2    0    0  0.00000000000E+00  0.00000000000E+00  0.35527136788E-14  0.91188000000E+02  0.91188000000E+02 0.  0.
    9900012    2    3    3    0    0  0.25484274708E+02  0.45736239024E+01  0.26180399882E+02  0.54367087043E+02  0.40000006533E+02 0.  0.
        -12    1    3    3    0    0 -0.25484274708E+02 -0.45736239024E+01 -0.26180399882E+02  0.36820912957E+02  0.00000000000E+00 0.  1.
         11    1    4    4    0    0  0.13842971824E+02 -0.11687954671E+02  0.12885795990E+02  0.22232406345E+02  0.51100000000E-03 0. -1.
        -11    1    4    4    0    0  0.12738453913E+02 -0.15668799638E+00  0.47735638420E+01  0.13604398966E+02  0.51100000000E-03 0.  1.
        -12    1    4    4    0    0 -0.10971510293E+01  0.16418266570E+02  0.85210400495E+01  0.18530281732E+02  0.00000000000E+00 0.  1.
</event>
<event>
 8    1  0.2433390E-006  0.9118800E+02  0.7816164E-02  0.1184000E+00
        -11   -1    0    0    0    0  0.00000000000E+00  0.00000000000E+00  0.45593999997E+02  0.45594000000E+02  0.51100000000E-03 0. -1.
         11   -1    0    0    0    0 -0.00000000000E+00 -0.00000000000E+00 -0.45593999997E+02  0.45594000000E+02  0.51100000000E-03 0.  1.
         23    2    1    2    0    0  0.00000000000E+00  0.00000000000E+00  0.35527136788E-14  0.91188000000E+02  0.91188000000E+02 0.  0.
    9900012    2    3    3    0    0 -0.16700790419E+02 -0.19195661685E+02 -0.26615586735E+02  0.54367091736E+02  0.40000017230E+02 0.  0.
         12    1    3    3    0    0  0.16700790419E+02  0.19195661685E+02  0.26615586735E+02  0.36820908264E+02  0.00000000000E+00 0. -1.
         11    1    4    4    0    0  0.10493593857E+01  0.48694299051E+01 -0.41426091362E+00  0.49984112563E+01  0.51100000000E-03 0. -1.
        -11    1    4    4    0    0  0.42169440059E+01 -0.18365736603E+02 -0.14861314900E+02  0.23998782855E+02  0.51100000000E-03 0.  1.
         12    1    4    4    0    0 -0.21967093811E+02 -0.56993549873E+01 -0.11340010921E+02  0.25369897624E+02  0.00000000000E+00 0. -1.
</event>
<event>
 8    1  0.2433390E-006  0.9118800E+02  0.7816164E-02  0.1184000E+00
        -11   -1    0    0    0    0  0.00000000000E+00  0.00000000000E+00  0.45593999997E+02  0.45594000000E+02  0.51100000000E-03 0.  1.
         11   -1    0    0    0    0 -0.00000000000E+00 -0.00000000000E+00 -0.45593999997E+02  0.45594000000E+02  0.51100000000E-03 0. -1.
         23    2    1    2    0    0 -0.17763568394E-14  0.00000000000E+00  0.35527136788E-14  0.91188000000E+02  0.91188000000E+02 0.  0.
    9900012    2    3    3    0    0 -0.15669138721E+02  0.26295268745E+02  0.20465116243E+02  0.54367027043E+02  0.39999869751E+02 0.  0.
         12    1    3    3    0    0  0.15669138721E+02 -0.26295268745E+02 -0.20465116243E+02  0.36820972957E+02  0.00000000000E+00 0. -1.
         11    1    4    4    0    0 -0.79188446191E+01 -0.47946462253E+01 -0.15514954862E+01  0.93863662315E+01  0.51100000000E-03 0. -1.
        -11    1    4    4    0    0 -0.13654580702E+02  0.24754320457E+02  0.22752580549E+02  0.36289170249E+02  0.51100000000E-03 0.  1.
        -12    1    4    4    0    0  0.59042866008E+01  0.63355945140E+01 -0.73596882017E+00  0.86914905635E+01  0.00000000000E+00 0.  1.
</event>
<event>
 8    1  0.2433390E-006  0.9118800E+02  0.7816164E-02  0.1184000E+00
        -11   -1    0    0    0    0  0.00000000000E+00  0.00000000000E+00  0.45593999997E+02  0.45594000000E+02  0.51100000000E-03 0.  1.
         11   -1    0    0    0    0 -0.00000000000E+00 -0.00000000000E+00 -0.45593999997E+02  0.45594000000E+02  0.51100000000E-03 0. -1.
         23    2    1    2    0    0  0.00000000000E+00  0.00000000000E+00  0.35527136788E-14  0.91188000000E+02  0.91188000000E+02 0.  0.
    9900012    2    3    3    0    0  0.22886048300E+02 -0.18762511767E+02  0.21908405291E+02  0.54367064692E+02  0.39999955578E+02 0.  0.
         12    1    3    3    0    0 -0.22886048300E+02  0.18762511767E+02 -0.21908405291E+02  0.36820935308E+02  0.00000000000E+00 0. -1.
         11    1    4    4    0    0  0.55609702312E+00 -0.59708278227E+01 -0.77430134707E+01  0.97935839536E+01  0.51100000000E-03 0. -1.
        -11    1    4    4    0    0  0.12508578210E+02 -0.13268240437E+02  0.29569777061E+02  0.34740213713E+02  0.51100000000E-03 0.  1.
        -12    1    4    4    0    0  0.98213730674E+01  0.47655649348E+00  0.81641700125E-01  0.98332670251E+01  0.00000000000E+00 0.  1.
</event>
<event>
 8    1  0.2433390E-006  0.9118800E+02  0.7816164E-02  0.1184000E+00
        -11   -1    0    0    0    0  0.00000000000E+00  0.00000000000E+00  0.45593999997E+02  0.45594000000E+02  0.51100000000E-03 0.  1.
         11   -1    0    0    0    0 -0.00000000000E+00 -0.00000000000E+00 -0.45593999997E+02  0.45594000000E+02  0.51100000000E-03 0. -1.
         23    2    1    2    0    0 -0.44408920985E-15  0.00000000000E+00 -0.35527136788E-14  0.91188000000E+02  0.91188000000E+02 0.  0.
    9900012    2    3    3    0    0  0.14060362351E+01 -0.30939482834E+02  0.19913590497E+02  0.54367087160E+02  0.40000006798E+02 0.  0.
         12    1    3    3    0    0 -0.14060362351E+01  0.30939482834E+02 -0.19913590497E+02  0.36820912840E+02  0.00000000000E+00 0. -1.
         11    1    4    4    0    0  0.66657889093E+01 -0.22682552655E+02  0.34727984590E+01  0.23895423539E+02  0.51100000000E-03 0. -1.
        -11    1    4    4    0    0 -0.72173763278E+01 -0.10303234193E+02 -0.11706561406E+01  0.12633985593E+02  0.51100000000E-03 0.  1.
         12    1    4    4    0    0  0.19576236537E+01  0.20463040137E+01  0.17611448178E+02  0.17837678028E+02  0.00000000000E+00 0. -1.
</event>
<event>
 8    1  0.2433390E-006  0.9118800E+02  0.7816164E-02  0.1184000E+00
        -11   -1    0    0    0    0  0.00000000000E+00  0.00000000000E+00  0.45593999997E+02  0.45594000000E+02  0.51100000000E-03 0. -1.
         11   -1    0    0    0    0 -0.00000000000E+00 -0.00000000000E+00 -0.45593999997E+02  0.45594000000E+02  0.51100000000E-03 0.  1.
         23    2    1    2    0    0 -0.35527136788E-14  0.00000000000E+00  0.00000000000E+00  0.91188000000E+02  0.91188000000E+02 0.  0.
    9900012    2    3    3    0    0  0.24358040944E+02  0.14707420277E+02  0.23370013766E+02  0.54367083210E+02  0.39999997794E+02 0.  0.
        -12    1    3    3    0    0 -0.24358040944E+02 -0.14707420277E+02 -0.23370013766E+02  0.36820916790E+02  0.00000000000E+00 0.  1.
         11    1    4    4    0    0  0.10075651417E+02  0.45560544472E+00 -0.42412168783E+01  0.10941400672E+02  0.51100000000E-03 0. -1.
        -11    1    4    4    0    0  0.36939672856E+01 -0.72720859378E+01  0.12974606543E+02  0.15325437788E+02  0.51100000000E-03 0.  1.
         12    1    4    4    0    0  0.10588422241E+02  0.21523900770E+02  0.14636624101E+02  0.28100244750E+02  0.00000000000E+00 0. -1.
</event>
<event>
 8    1  0.2798272E-006  0.9118800E+02  0.7816164E-02  0.1184000E+00
        -11   -1    0    0    0    0  0.00000000000E+00  0.00000000000E+00  0.45593999997E+02  0.45594000000E+02  0.51100000000E-03 0.  1.
         11   -1    0    0    0    0 -0.00000000000E+00 -0.00000000000E+00 -0.45593999997E+02  0.45594000000E+02  0.51100000000E-03 0. -1.
         23    2    1    2    0    0 -0.55511151231E-15  0.22204460493E-15  0.71054273576E-14  0.91188000000E+02  0.91188000000E+02 0.  0.
    9900012    2    3    3    0    0 -0.29745848236E+00 -0.16474156342E+01 -0.36782807403E+02  0.54367117606E+02  0.40000076206E+02 0.  0.
        -12    1    3    3    0    0  0.29745848236E+00  0.16474156342E+01  0.36782807403E+02  0.36820882394E+02  0.00000000000E+00 0.  1.
         11    1    4    4    0    0  0.24357010631E+01 -0.28860131448E+01  0.24859614434E+01  0.45212516077E+01  0.51100000000E-03 0. -1.
        -11    1    4    4    0    0  0.33233889903E+01  0.13399157604E+01  0.44477776757E+01  0.57116560768E+01  0.51100000000E-03 0.  1.
         12    1    4    4    0    0 -0.60565485357E+01 -0.10131824985E+00 -0.43716546522E+02  0.44134209921E+02  0.00000000000E+00 0. -1.
</event>
<event>
 8    1  0.2433390E-006  0.9118800E+02  0.7816164E-02  0.1184000E+00
        -11   -1    0    0    0    0  0.00000000000E+00  0.00000000000E+00  0.45593999997E+02  0.45594000000E+02  0.51100000000E-03 0. -1.
         11   -1    0    0    0    0 -0.00000000000E+00 -0.00000000000E+00 -0.45593999997E+02  0.45594000000E+02  0.51100000000E-03 0.  1.
         23    2    1    2    0    0 -0.17763568394E-14  0.35527136788E-14  0.00000000000E+00  0.91188000000E+02  0.91188000000E+02 0.  0.
    9900012    2    3    3    0    0 -0.11264396984E+02  0.22734462666E+02  0.26684082701E+02  0.54367045345E+02  0.39999911472E+02 0.  0.
        -12    1    3    3    0    0  0.11264396984E+02 -0.22734462666E+02 -0.26684082701E+02  0.36820954655E+02  0.00000000000E+00 0.  1.
         11    1    4    4    0    0 -0.48324771881E+01 -0.71277863167E+00 -0.10241591634E+01  0.49909709881E+01  0.51100000000E-03 0. -1.
        -11    1    4    4    0    0 -0.11896117524E+01 -0.81068084349E+01  0.22554192571E+01  0.84983783987E+01  0.51100000000E-03 0.  1.
         12    1    4    4    0    0 -0.52423080436E+01  0.31554049733E+02  0.25452822607E+02  0.40877695958E+02  0.00000000000E+00 0. -1.
</event>
<event>
 8    1  0.2433390E-006  0.9118800E+02  0.7816164E-02  0.1184000E+00
        -11   -1    0    0    0    0  0.00000000000E+00  0.00000000000E+00  0.45593999997E+02  0.45594000000E+02  0.51100000000E-03 0.  1.
         11   -1    0    0    0    0 -0.00000000000E+00 -0.00000000000E+00 -0.45593999997E+02  0.45594000000E+02  0.51100000000E-03 0. -1.
         23    2    1    2    0    0 -0.44408920985E-15  0.00000000000E+00  0.44408920985E-15  0.91188000000E+02  0.91188000000E+02 0.  0.
    9900012    2    3    3    0    0  0.13648955105E+01  0.36768400109E+02 -0.14149154850E+01  0.54367079695E+02  0.39999989780E+02 0.  0.
        -12    1    3    3    0    0 -0.13648955105E+01 -0.36768400109E+02  0.14149154850E+01  0.36820920305E+02  0.00000000000E+00 0.  1.
         11    1    4    4    0    0 -0.48720616461E+01  0.23558346573E+02 -0.10945529369E+02  0.26429856060E+02  0.51100000000E-03 0. -1.
        -11    1    4    4    0    0 -0.28884179856E+00 -0.59767393606E+01  0.25198156554E+01  0.64926353792E+01  0.51100000000E-03 0.  1.
         12    1    4    4    0    0  0.65257989551E+01  0.19186792896E+02  0.70107982282E+01  0.21444588255E+02  0.00000000000E+00 0. -1.
</event>
<event>
 8    1  0.2433390E-006  0.9118800E+02  0.7816164E-02  0.1184000E+00
        -11   -1    0    0    0    0  0.00000000000E+00  0.00000000000E+00  0.45593999997E+02  0.45594000000E+02  0.51100000000E-03 0.  1.
         11   -1    0    0    0    0 -0.00000000000E+00 -0.00000000000E+00 -0.45593999997E+02  0.45594000000E+02  0.51100000000E-03 0. -1.
         23    2    1    2    0    0 -0.35527136788E-14  0.00000000000E+00  0.00000000000E+00  0.91188000000E+02  0.91188000000E+02 0.  0.
    9900012    2    3    3    0    0  0.31907700878E+02 -0.15729333548E+02  0.95005582175E+01  0.54367164653E+02  0.40000183459E+02 0.  0.
        -12    1    3    3    0    0 -0.31907700878E+02  0.15729333548E+02 -0.95005582175E+01  0.36820835347E+02  0.00000000000E+00 0.  1.
         11    1    4    4    0    0  0.10298918137E+02 -0.90757704178E+01  0.18594408068E+01  0.13852611445E+02  0.51100000000E-03 0. -1.
        -11    1    4    4    0    0  0.15848444396E+02 -0.14509653735E+02  0.16698428750E+02  0.27212878647E+02  0.51100000000E-03 0.  1.
         12    1    4    4    0    0  0.57603383451E+01  0.78560906042E+01 -0.90573113393E+01  0.13301674561E+02  0.00000000000E+00 0. -1.
</event>
<event>
 8    1  0.2433390E-006  0.9118800E+02  0.7816164E-02  0.1184000E+00
        -11   -1    0    0    0    0  0.00000000000E+00  0.00000000000E+00  0.45593999997E+02  0.45594000000E+02  0.51100000000E-03 0.  1.
         11   -1    0    0    0    0 -0.00000000000E+00 -0.00000000000E+00 -0.45593999997E+02  0.45594000000E+02  0.51100000000E-03 0. -1.
         23    2    1    2    0    0  0.00000000000E+00  0.00000000000E+00  0.35527136788E-14  0.91188000000E+02  0.91188000000E+02 0.  0.
    9900012    2    3    3    0    0 -0.18231964387E+02 -0.25057892732E+02  0.19886628046E+02  0.54367075397E+02  0.39999979983E+02 0.  0.
         12    1    3    3    0    0  0.18231964387E+02  0.25057892732E+02 -0.19886628046E+02  0.36820924603E+02  0.00000000000E+00 0. -1.
         11    1    4    4    0    0  0.10832422655E+02 -0.12515849650E+02  0.21286550084E+01  0.16688889880E+02  0.51100000000E-03 0. -1.
        -11    1    4    4    0    0 -0.17853355069E+02 -0.12823187879E+02  0.12572576209E+02  0.25322837665E+02  0.51100000000E-03 0.  1.
         12    1    4    4    0    0 -0.11211031972E+02  0.28114479676E+00  0.51853968287E+01  0.12355347852E+02  0.00000000000E+00 0. -1.
</event>
<event>
 8    1  0.2433390E-006  0.9118800E+02  0.7816164E-02  0.1184000E+00
        -11   -1    0    0    0    0  0.00000000000E+00  0.00000000000E+00  0.45593999997E+02  0.45594000000E+02  0.51100000000E-03 0.  1.
         11   -1    0    0    0    0 -0.00000000000E+00 -0.00000000000E+00 -0.45593999997E+02  0.45594000000E+02  0.51100000000E-03 0. -1.
         23    2    1    2    0    0  0.00000000000E+00 -0.26645352591E-14  0.71054273576E-14  0.91188000000E+02  0.91188000000E+02 0.  0.
    9900012    2    3    3    0    0 -0.18837110787E+02  0.63607791939E+01 -0.30991658035E+02  0.54367093948E+02  0.40000022273E+02 0.  0.
        -12    1    3    3    0    0  0.18837110787E+02 -0.63607791939E+01  0.30991658035E+02  0.36820906052E+02  0.00000000000E+00 0.  1.
         11    1    4    4    0    0 -0.15068151938E+02 -0.93332009214E+01 -0.18667373432E+02  0.25741574804E+02  0.51100000000E-03 0. -1.
        -11    1    4    4    0    0  0.79337579683E+00 -0.46763784731E+00  0.46544997456E+01  0.47447337601E+01  0.51100000000E-03 0.  1.
        -12    1    4    4    0    0 -0.45623346456E+01  0.16161617963E+02 -0.16978784349E+02  0.23880785384E+02  0.00000000000E+00 0.  1.
</event>
<event>
 8    1  0.2433390E-006  0.9118800E+02  0.7816164E-02  0.1184000E+00
        -11   -1    0    0    0    0  0.00000000000E+00  0.00000000000E+00  0.45593999997E+02  0.45594000000E+02  0.51100000000E-03 0. -1.
         11   -1    0    0    0    0 -0.00000000000E+00 -0.00000000000E+00 -0.45593999997E+02  0.45594000000E+02  0.51100000000E-03 0.  1.
         23    2    1    2    0    0 -0.17763568394E-14  0.00000000000E+00  0.00000000000E+00  0.91188000000E+02  0.91188000000E+02 0.  0.
    9900012    2    3    3    0    0 -0.13859154178E+02 -0.27179857879E+02 -0.20614525038E+02  0.54367089210E+02  0.40000011472E+02 0.  0.
         12    1    3    3    0    0  0.13859154178E+02  0.27179857879E+02  0.20614525038E+02  0.36820910790E+02  0.00000000000E+00 0. -1.
         11    1    4    4    0    0  0.54800321045E+01 -0.10646961071E+02 -0.16175805469E+02  0.20125735135E+02  0.51100000000E-03 0. -1.
        -11    1    4    4    0    0  0.22898733086E+01 -0.78961798939E+01 -0.70177061393E+01  0.10809318961E+02  0.51100000000E-03 0.  1.
        -12    1    4    4    0    0 -0.21629059591E+02 -0.86367169137E+01  0.25789865696E+01  0.23432035114E+02  0.00000000000E+00 0.  1.
</event>
<event>
 8    1  0.2433390E-006  0.9118800E+02  0.7816164E-02  0.1184000E+00
        -11   -1    0    0    0    0  0.00000000000E+00  0.00000000000E+00  0.45593999997E+02  0.45594000000E+02  0.51100000000E-03 0.  1.
         11   -1    0    0    0    0 -0.00000000000E+00 -0.00000000000E+00 -0.45593999997E+02  0.45594000000E+02  0.51100000000E-03 0. -1.
         23    2    1    2    0    0  0.00000000000E+00  0.00000000000E+00  0.17763568394E-14  0.91188000000E+02  0.91188000000E+02 0.  0.
    9900012    2    3    3    0    0 -0.33425492174E+02 -0.22777021379E+01 -0.15275121289E+02  0.54367071379E+02  0.39999970823E+02 0.  0.
        -12    1    3    3    0    0  0.33425492174E+02  0.22777021379E+01  0.15275121289E+02  0.36820928621E+02  0.00000000000E+00 0.  1.
         11    1    4    4    0    0 -0.24605927955E+02 -0.32198075879E+01 -0.53641339837E+01  0.25388831897E+02  0.51100000000E-03 0. -1.
        -11    1    4    4    0    0 -0.14290755320E+02 -0.22924583657E+00 -0.15490276635E+02  0.21076691196E+02  0.51100000000E-03 0.  1.
        -12    1    4    4    0    0  0.54711911007E+01  0.11713512867E+01  0.55792893301E+01  0.79015482866E+01  0.00000000000E+00 0.  1.
</event>
<event>
 8    1  0.2433390E-006  0.9118800E+02  0.7816164E-02  0.1184000E+00
        -11   -1    0    0    0    0  0.00000000000E+00  0.00000000000E+00  0.45593999997E+02  0.45594000000E+02  0.51100000000E-03 0.  1.
         11   -1    0    0    0    0 -0.00000000000E+00 -0.00000000000E+00 -0.45593999997E+02  0.45594000000E+02  0.51100000000E-03 0. -1.
         23    2    1    2    0    0  0.00000000000E+00 -0.17763568394E-14  0.00000000000E+00  0.91188000000E+02  0.91188000000E+02 0.  0.
    9900012    2    3    3    0    0  0.86312311522E+01  0.12234135170E+02  0.33639379668E+02  0.54367080959E+02  0.39999992663E+02 0.  0.
         12    1    3    3    0    0 -0.86312311522E+01 -0.12234135170E+02 -0.33639379668E+02  0.36820919041E+02  0.00000000000E+00 0. -1.
         11    1    4    4    0    0 -0.19971165705E+01  0.38566886347E+01  0.25163506929E+02  0.25535555664E+02  0.51100000000E-03 0. -1.
        -11    1    4    4    0    0  0.73670837708E+01  0.16342740944E+02  0.19541239000E+01  0.18032684363E+02  0.51100000000E-03 0.  1.
        -12    1    4    4    0    0  0.32612639519E+01 -0.79652944084E+01  0.65217488385E+01  0.10798840933E+02  0.00000000000E+00 0.  1.
</event>
<event>
 8    1  0.2433390E-006  0.9118800E+02  0.7816164E-02  0.1184000E+00
        -11   -1    0    0    0    0  0.00000000000E+00  0.00000000000E+00  0.45593999997E+02  0.45594000000E+02  0.51100000000E-03 0. -1.
         11   -1    0    0    0    0 -0.00000000000E+00 -0.00000000000E+00 -0.45593999997E+02  0.45594000000E+02  0.51100000000E-03 0.  1.
         23    2    1    2    0    0 -0.17763568394E-14  0.00000000000E+00  0.00000000000E+00  0.91188000000E+02  0.91188000000E+02 0.  0.
    9900012    2    3    3    0    0  0.61162900312E+01  0.95047077606E+01  0.35043283090E+02  0.54367079817E+02  0.39999990059E+02 0.  0.
        -12    1    3    3    0    0 -0.61162900312E+01 -0.95047077606E+01 -0.35043283090E+02  0.36820920183E+02  0.00000000000E+00 0.  1.
         11    1    4    4    0    0 -0.42494966895E+01  0.21158499369E+02  0.12832438716E+02  0.25108002734E+02  0.51100000000E-03 0. -1.
        -11    1    4    4    0    0 -0.11328894917E+00 -0.15994403537E+01 -0.99252862330E+00  0.18857776009E+01  0.51100000000E-03 0.  1.
         12    1    4    4    0    0  0.10479075670E+02 -0.10054351254E+02  0.23203372998E+02  0.27373299482E+02  0.00000000000E+00 0. -1.
</event>
<event>
 8    1  0.2433390E-006  0.9118800E+02  0.7816164E-02  0.1184000E+00
        -11   -1    0    0    0    0  0.00000000000E+00  0.00000000000E+00  0.45593999997E+02  0.45594000000E+02  0.51100000000E-03 0. -1.
         11   -1    0    0    0    0 -0.00000000000E+00 -0.00000000000E+00 -0.45593999997E+02  0.45594000000E+02  0.51100000000E-03 0.  1.
         23    2    1    2    0    0 -0.35527136788E-14  0.00000000000E+00  0.88817841970E-15  0.91188000000E+02  0.91188000000E+02 0.  0.
    9900012    2    3    3    0    0  0.18287770437E+02 -0.31843713891E+02 -0.27072615345E+01  0.54366892916E+02  0.39999563978E+02 0.  0.
        -12    1    3    3    0    0 -0.18287770437E+02  0.31843713891E+02  0.27072615345E+01  0.36821107084E+02  0.00000000000E+00 0.  1.
         11    1    4    4    0    0  0.51487064516E+01 -0.13870084821E+01  0.67657208847E+01  0.86144036360E+01  0.51100000000E-03 0. -1.
        -11    1    4    4    0    0  0.18704744931E+02 -0.19064969657E+02 -0.16363302300E+02  0.31322487344E+02  0.51100000000E-03 0.  1.
         12    1    4    4    0    0 -0.55656809457E+01 -0.11391735751E+02  0.68903198809E+01  0.14430001936E+02  0.00000000000E+00 0. -1.
</event>
<event>
 8    1  0.2433390E-006  0.9118800E+02  0.7816164E-02  0.1184000E+00
        -11   -1    0    0    0    0  0.00000000000E+00  0.00000000000E+00  0.45593999997E+02  0.45594000000E+02  0.51100000000E-03 0. -1.
         11   -1    0    0    0    0 -0.00000000000E+00 -0.00000000000E+00 -0.45593999997E+02  0.45594000000E+02  0.51100000000E-03 0.  1.
         23    2    1    2    0    0  0.00000000000E+00  0.17763568394E-14 -0.35527136788E-14  0.91188000000E+02  0.91188000000E+02 0.  0.
    9900012    2    3    3    0    0 -0.26137647047E+02 -0.15002930822E+02 -0.21154565131E+02  0.54367079964E+02  0.39999990393E+02 0.  0.
         12    1    3    3    0    0  0.26137647047E+02  0.15002930822E+02  0.21154565131E+02  0.36820920036E+02  0.00000000000E+00 0. -1.
         11    1    4    4    0    0 -0.20947267553E+02  0.46060570842E+01 -0.24606086932E+02  0.32641435234E+02  0.51100000000E-03 0.  1.
        -11    1    4    4    0    0 -0.41494367271E+01 -0.79271454951E+01 -0.13574554252E+01  0.90498699629E+01  0.51100000000E-03 0. -1.
        -12    1    4    4    0    0 -0.10409427675E+01 -0.11681842411E+02  0.48089772261E+01  0.12675774767E+02  0.00000000000E+00 0.  1.
</event>
<event>
 8    1  0.2433390E-006  0.9118800E+02  0.7816164E-02  0.1184000E+00
        -11   -1    0    0    0    0  0.00000000000E+00  0.00000000000E+00  0.45593999997E+02  0.45594000000E+02  0.51100000000E-03 0.  1.
         11   -1    0    0    0    0 -0.00000000000E+00 -0.00000000000E+00 -0.45593999997E+02  0.45594000000E+02  0.51100000000E-03 0. -1.
         23    2    1    2    0    0  0.00000000000E+00  0.00000000000E+00 -0.35527136788E-14  0.91188000000E+02  0.91188000000E+02 0.  0.
    9900012    2    3    3    0    0 -0.22108119107E+02  0.88923326900E+01  0.28070213995E+02  0.54367089842E+02  0.40000012914E+02 0.  0.
         12    1    3    3    0    0  0.22108119107E+02 -0.88923326900E+01 -0.28070213995E+02  0.36820910158E+02  0.00000000000E+00 0. -1.
         11    1    4    4    0    0  0.12136456136E+01 -0.57894219899E+01  0.70070523986E+01  0.91700123354E+01  0.51100000000E-03 0. -1.
        -11    1    4    4    0    0 -0.35397977352E+01  0.12357249543E+02 -0.37390585510E+01  0.13387021453E+02  0.51100000000E-03 0.  1.
        -12    1    4    4    0    0 -0.19781966985E+02  0.23245051371E+01  0.24802220147E+02  0.31810056054E+02  0.00000000000E+00 0.  1.
</event>
<event>
 8    1  0.2433390E-006  0.9118800E+02  0.7816164E-02  0.1184000E+00
        -11   -1    0    0    0    0  0.00000000000E+00  0.00000000000E+00  0.45593999997E+02  0.45594000000E+02  0.51100000000E-03 0.  1.
         11   -1    0    0    0    0 -0.00000000000E+00 -0.00000000000E+00 -0.45593999997E+02  0.45594000000E+02  0.51100000000E-03 0. -1.
         23    2    1    2    0    0  0.00000000000E+00  0.00000000000E+00  0.00000000000E+00  0.91188000000E+02  0.91188000000E+02 0.  0.
    9900012    2    3    3    0    0  0.17876231266E+02  0.21752253840E+02 -0.23728957165E+02  0.54367033154E+02  0.39999883680E+02 0.  0.
        -12    1    3    3    0    0 -0.17876231266E+02 -0.21752253840E+02  0.23728957165E+02  0.36820966846E+02  0.00000000000E+00 0.  1.
         11    1    4    4    0    0  0.13454249704E+02 -0.54336687231E+01 -0.12676374235E+02  0.19267383188E+02  0.51100000000E-03 0. -1.
        -11    1    4    4    0    0 -0.28557477409E+00 -0.23406825240E+01  0.13643797963E+01  0.27243127793E+01  0.51100000000E-03 0.  1.
         12    1    4    4    0    0  0.47075563360E+01  0.29526605087E+02 -0.12416962726E+02  0.32375337187E+02  0.00000000000E+00 0. -1.
</event>
<event>
 8    1  0.2433390E-006  0.9118800E+02  0.7816164E-02  0.1184000E+00
        -11   -1    0    0    0    0  0.00000000000E+00  0.00000000000E+00  0.45593999997E+02  0.45594000000E+02  0.51100000000E-03 0.  1.
         11   -1    0    0    0    0 -0.00000000000E+00 -0.00000000000E+00 -0.45593999997E+02  0.45594000000E+02  0.51100000000E-03 0. -1.
         23    2    1    2    0    0 -0.35527136788E-14  0.00000000000E+00  0.00000000000E+00  0.91188000000E+02  0.91188000000E+02 0.  0.
    9900012    2    3    3    0    0 -0.22205219990E+02  0.28088804135E+02 -0.85862967486E+01  0.54367119995E+02  0.40000081651E+02 0.  0.
        -12    1    3    3    0    0  0.22205219990E+02 -0.28088804135E+02  0.85862967486E+01  0.36820880005E+02  0.00000000000E+00 0.  1.
         11    1    4    4    0    0 -0.11230520037E+02  0.54009577840E+01  0.25856174064E+01  0.12727149834E+02  0.51100000000E-03 0. -1.
        -11    1    4    4    0    0 -0.51568965169E+01 -0.38475852515E+01 -0.12903984339E+02  0.14419095188E+02  0.51100000000E-03 0.  1.
         12    1    4    4    0    0 -0.58178034368E+01  0.26535431602E+02  0.17320701840E+01  0.27220874972E+02  0.00000000000E+00 0. -1.
</event>
<event>
 8    1  0.2433390E-006  0.9118800E+02  0.7816164E-02  0.1184000E+00
        -11   -1    0    0    0    0  0.00000000000E+00  0.00000000000E+00  0.45593999997E+02  0.45594000000E+02  0.51100000000E-03 0.  1.
         11   -1    0    0    0    0 -0.00000000000E+00 -0.00000000000E+00 -0.45593999997E+02  0.45594000000E+02  0.51100000000E-03 0. -1.
         23    2    1    2    0    0  0.00000000000E+00 -0.35527136788E-14  0.00000000000E+00  0.91188000000E+02  0.91188000000E+02 0.  0.
    9900012    2    3    3    0    0  0.32849441806E+01 -0.90493927942E+01 -0.35540061312E+02  0.54367104760E+02  0.40000046922E+02 0.  0.
        -12    1    3    3    0    0 -0.32849441806E+01  0.90493927942E+01  0.35540061312E+02  0.36820895240E+02  0.00000000000E+00 0.  1.
         11    1    4    4    0    0 -0.69299744362E+01 -0.40806555928E+01 -0.65488123009E+01  0.10371269863E+02  0.51100000000E-03 0. -1.
        -11    1    4    4    0    0  0.47229006473E+01  0.10541546967E+02 -0.24268880433E+02  0.26877659138E+02  0.51100000000E-03 0.  1.
        -12    1    4    4    0    0  0.54920179695E+01 -0.15510284168E+02 -0.47223685774E+01  0.17118175760E+02  0.00000000000E+00 0.  1.
</event>
<event>
 8    1  0.2433390E-006  0.9118800E+02  0.7816164E-02  0.1184000E+00
        -11   -1    0    0    0    0  0.00000000000E+00  0.00000000000E+00  0.45593999997E+02  0.45594000000E+02  0.51100000000E-03 0. -1.
         11   -1    0    0    0    0 -0.00000000000E+00 -0.00000000000E+00 -0.45593999997E+02  0.45594000000E+02  0.51100000000E-03 0.  1.
         23    2    1    2    0    0 -0.35527136788E-14  0.00000000000E+00  0.00000000000E+00  0.91188000000E+02  0.91188000000E+02 0.  0.
    9900012    2    3    3    0    0  0.19002396310E+02  0.27319923926E+02 -0.15757875073E+02  0.54367082906E+02  0.39999997101E+02 0.  0.
         12    1    3    3    0    0 -0.19002396310E+02 -0.27319923926E+02  0.15757875073E+02  0.36820917094E+02  0.00000000000E+00 0. -1.
         11    1    4    4    0    0 -0.64949481081E+01  0.56356843837E+01  0.32992502962E+01  0.92103388742E+01  0.51100000000E-03 0. -1.
        -11    1    4    4    0    0  0.85723594584E+01  0.22399328603E+02 -0.10570802057E+02  0.26209866938E+02  0.51100000000E-03 0.  1.
        -12    1    4    4    0    0  0.16924984960E+02 -0.71508906070E+00 -0.84863233118E+01  0.18946877094E+02  0.00000000000E+00 0.  1.
</event>
<event>
 8    1  0.2433390E-006  0.9118800E+02  0.7816164E-02  0.1184000E+00
        -11   -1    0    0    0    0  0.00000000000E+00  0.00000000000E+00  0.45593999997E+02  0.45594000000E+02  0.51100000000E-03 0. -1.
         11   -1    0    0    0    0 -0.00000000000E+00 -0.00000000000E+00 -0.45593999997E+02  0.45594000000E+02  0.51100000000E-03 0.  1.
         23    2    1    2    0    0 -0.71054273576E-14  0.00000000000E+00  0.00000000000E+00  0.91188000000E+02  0.91188000000E+02 0.  0.
    9900012    2    3    3    0    0 -0.21636514408E+02 -0.25875282311E+02  0.14768604458E+02  0.54367072960E+02  0.39999974427E+02 0.  0.
        -12    1    3    3    0    0  0.21636514408E+02  0.25875282311E+02 -0.14768604458E+02  0.36820927040E+02  0.00000000000E+00 0.  1.
         11    1    4    4    0    0 -0.24211794682E+02 -0.21247366214E+02  0.10032028899E+02  0.33738748893E+02  0.51100000000E-03 0. -1.
        -11    1    4    4    0    0 -0.54678808907E+01 -0.84756497850E+01 -0.82466090857E+00  0.10120001314E+02  0.51100000000E-03 0.  1.
        -12    1    4    4    0    0  0.80431611648E+01  0.38477336871E+01  0.55612364678E+01  0.10508322754E+02  0.00000000000E+00 0.  1.
</event>
<event>
 8    1  0.2433390E-006  0.9118800E+02  0.7816164E-02  0.1184000E+00
        -11   -1    0    0    0    0  0.00000000000E+00  0.00000000000E+00  0.45593999997E+02  0.45594000000E+02  0.51100000000E-03 0.  1.
         11   -1    0    0    0    0 -0.00000000000E+00 -0.00000000000E+00 -0.45593999997E+02  0.45594000000E+02  0.51100000000E-03 0. -1.
         23    2    1    2    0    0 -0.35527136788E-14  0.00000000000E+00  0.00000000000E+00  0.91188000000E+02  0.91188000000E+02 0.  0.
    9900012    2    3    3    0    0  0.19120159011E+02  0.29726534833E+02  0.10321316686E+02  0.54367123694E+02  0.40000090086E+02 0.  0.
         12    1    3    3    0    0 -0.19120159011E+02 -0.29726534833E+02 -0.10321316686E+02  0.36820876306E+02  0.00000000000E+00 0. -1.
         11    1    4    4    0    0  0.68474478318E+00 -0.63210215702E+01 -0.72926096292E+01  0.96750371872E+01  0.51100000000E-03 0. -1.
        -11    1    4    4    0    0  0.16265613535E+01  0.65023991397E+01  0.52764492449E+01  0.85304052251E+01  0.51100000000E-03 0.  1.
        -12    1    4    4    0    0  0.16808852874E+02  0.29545157264E+02  0.12337477070E+02  0.36161681282E+02  0.00000000000E+00 0.  1.
</event>
<event>
 8    1  0.2433390E-006  0.9118800E+02  0.7816164E-02  0.1184000E+00
        -11   -1    0    0    0    0  0.00000000000E+00  0.00000000000E+00  0.45593999997E+02  0.45594000000E+02  0.51100000000E-03 0. -1.
         11   -1    0    0    0    0 -0.00000000000E+00 -0.00000000000E+00 -0.45593999997E+02  0.45594000000E+02  0.51100000000E-03 0.  1.
         23    2    1    2    0    0  0.71054273576E-14  0.88817841970E-15 -0.17763568394E-14  0.91188000000E+02  0.91188000000E+02 0.  0.
    9900012    2    3    3    0    0 -0.33958678696E+02  0.66835234777E+01  0.12566560669E+02  0.54367084858E+02  0.40000001552E+02 0.  0.
         12    1    3    3    0    0  0.33958678696E+02 -0.66835234777E+01 -0.12566560669E+02  0.36820915142E+02  0.00000000000E+00 0. -1.
         11    1    4    4    0    0 -0.13139993866E+02  0.14027523696E+02 -0.10004094745E+01  0.19246601758E+02  0.51100000000E-03 0. -1.
        -11    1    4    4    0    0 -0.13076294329E+02  0.74882309143E+01  0.30981207509E+01  0.15383804083E+02  0.51100000000E-03 0.  1.
         12    1    4    4    0    0 -0.77423905005E+01 -0.14832231133E+02  0.10468849393E+02  0.19736679018E+02  0.00000000000E+00 0. -1.
</event>
<event>
 8    1  0.2433390E-006  0.9118800E+02  0.7816164E-02  0.1184000E+00
        -11   -1    0    0    0    0  0.00000000000E+00  0.00000000000E+00  0.45593999997E+02  0.45594000000E+02  0.51100000000E-03 0. -1.
         11   -1    0    0    0    0 -0.00000000000E+00 -0.00000000000E+00 -0.45593999997E+02  0.45594000000E+02  0.51100000000E-03 0.  1.
         23    2    1    2    0    0  0.00000000000E+00  0.00000000000E+00  0.35527136788E-14  0.91188000000E+02  0.91188000000E+02 0.  0.
    9900012    2    3    3    0    0  0.32906848838E+02  0.13679825613E+01 -0.16463347853E+02  0.54367164875E+02  0.40000183966E+02 0.  0.
         12    1    3    3    0    0 -0.32906848838E+02 -0.13679825613E+01  0.16463347853E+02  0.36820835125E+02  0.00000000000E+00 0. -1.
         11    1    4    4    0    0  0.88675526784E+00  0.89250660540E+01 -0.93195711571E-01  0.89694941148E+01  0.51100000000E-03 0. -1.
        -11    1    4    4    0    0  0.32772689249E+02 -0.93014206089E+00 -0.64036155015E+01  0.33405398016E+02  0.51100000000E-03 0.  1.
        -12    1    4    4    0    0 -0.75259567823E+00 -0.66269414318E+01 -0.99665366399E+01  0.11992272745E+02  0.00000000000E+00 0.  1.
</event>
<event>
 8    1  0.2433390E-006  0.9118800E+02  0.7816164E-02  0.1184000E+00
        -11   -1    0    0    0    0  0.00000000000E+00  0.00000000000E+00  0.45593999997E+02  0.45594000000E+02  0.51100000000E-03 0. -1.
         11   -1    0    0    0    0 -0.00000000000E+00 -0.00000000000E+00 -0.45593999997E+02  0.45594000000E+02  0.51100000000E-03 0.  1.
         23    2    1    2    0    0 -0.71054273576E-14  0.00000000000E+00 -0.26645352591E-14  0.91188000000E+02  0.91188000000E+02 0.  0.
    9900012    2    3    3    0    0 -0.35072275380E+02  0.81064576625E+01 -0.77461700971E+01  0.54367050701E+02  0.39999923682E+02 0.  0.
        -12    1    3    3    0    0  0.35072275380E+02 -0.81064576625E+01  0.77461700971E+01  0.36820949299E+02  0.00000000000E+00 0.  1.
         11    1    4    4    0    0 -0.80774813832E+01  0.15953360459E+02  0.10134604814E+01  0.17910402503E+02  0.51100000000E-03 0. -1.
        -11    1    4    4    0    0 -0.26096235568E+02 -0.58954211768E+01 -0.14426911295E+02  0.30395810097E+02  0.51100000000E-03 0.  1.
         12    1    4    4    0    0 -0.89855842865E+00 -0.19514816194E+01  0.56672807165E+01  0.60608381005E+01  0.00000000000E+00 0. -1.
</event>
<event>
 8    1  0.2433390E-006  0.9118800E+02  0.7816164E-02  0.1184000E+00
        -11   -1    0    0    0    0  0.00000000000E+00  0.00000000000E+00  0.45593999997E+02  0.45594000000E+02  0.51100000000E-03 0. -1.
         11   -1    0    0    0    0 -0.00000000000E+00 -0.00000000000E+00 -0.45593999997E+02  0.45594000000E+02  0.51100000000E-03 0.  1.
         23    2    1    2    0    0 -0.35527136788E-14  0.00000000000E+00  0.11102230246E-14  0.91188000000E+02  0.91188000000E+02 0.  0.
    9900012    2    3    3    0    0  0.87376524717E+01  0.35720265351E+02 -0.18700463198E+01  0.54367068443E+02  0.39999964130E+02 0.  0.
         12    1    3    3    0    0 -0.87376524717E+01 -0.35720265351E+02  0.18700463198E+01  0.36820931557E+02  0.00000000000E+00 0. -1.
         11    1    4    4    0    0  0.18767737430E+02  0.29433061436E+02 -0.67648118442E+01  0.35556936781E+02  0.51100000000E-03 0. -1.
        -11    1    4    4    0    0 -0.28657469753E+00  0.73879665824E+01 -0.85562806825E+00  0.74428673864E+01  0.51100000000E-03 0.  1.
         12    1    4    4    0    0 -0.97435102604E+01 -0.11007626669E+01  0.57503935927E+01  0.11367264276E+02  0.00000000000E+00 0. -1.
</event>
<event>
 8    1  0.2433390E-006  0.9118800E+02  0.7816164E-02  0.1184000E+00
        -11   -1    0    0    0    0  0.00000000000E+00  0.00000000000E+00  0.45593999997E+02  0.45594000000E+02  0.51100000000E-03 0.  1.
         11   -1    0    0    0    0 -0.00000000000E+00 -0.00000000000E+00 -0.45593999997E+02  0.45594000000E+02  0.51100000000E-03 0. -1.
         23    2    1    2    0    0  0.00000000000E+00  0.71054273576E-14 -0.17763568394E-14  0.91188000000E+02  0.91188000000E+02 0.  0.
    9900012    2    3    3    0    0  0.16248909547E+02 -0.32174980469E+02 -0.75182886988E+01  0.54367067169E+02  0.39999961224E+02 0.  0.
        -12    1    3    3    0    0 -0.16248909547E+02  0.32174980469E+02  0.75182886988E+01  0.36820932831E+02  0.00000000000E+00 0.  1.
         11    1    4    4    0    0  0.42451338586E+01 -0.27645301024E+02  0.31520818300E+01  0.28146393202E+02  0.51100000000E-03 0. -1.
        -11    1    4    4    0    0  0.15829886201E+02 -0.60346023138E+01 -0.13126523399E+02  0.21431456764E+02  0.51100000000E-03 0.  1.
        -12    1    4    4    0    0 -0.38261105121E+01  0.15049228691E+01  0.24561528699E+01  0.47892172026E+01  0.00000000000E+00 0.  1.
</event>
<event>
 8    1  0.2433390E-006  0.9118800E+02  0.7816164E-02  0.1184000E+00
        -11   -1    0    0    0    0  0.00000000000E+00  0.00000000000E+00  0.45593999997E+02  0.45594000000E+02  0.51100000000E-03 0.  1.
         11   -1    0    0    0    0 -0.00000000000E+00 -0.00000000000E+00 -0.45593999997E+02  0.45594000000E+02  0.51100000000E-03 0. -1.
         23    2    1    2    0    0 -0.35527136788E-14  0.35527136788E-14  0.35527136788E-14  0.91188000000E+02  0.91188000000E+02 0.  0.
    9900012    2    3    3    0    0 -0.21970180724E+02  0.83194477696E+01  0.28352735087E+02  0.54367086933E+02  0.40000006280E+02 0.  0.
         12    1    3    3    0    0  0.21970180724E+02 -0.83194477696E+01 -0.28352735087E+02  0.36820913067E+02  0.00000000000E+00 0. -1.
         11    1    4    4    0    0 -0.14010066836E+02 -0.10312191391E+02  0.73682871929E+01  0.18892192050E+02  0.51100000000E-03 0. -1.
        -11    1    4    4    0    0  0.39378568087E+01 -0.22680920959E+01  0.30078858287E+01  0.54496179151E+01  0.51100000000E-03 0.  1.
        -12    1    4    4    0    0 -0.11897970697E+02  0.20899731257E+02  0.17976562065E+02  0.30025276968E+02  0.00000000000E+00 0.  1.
</event>
<event>
 8    1  0.2433390E-006  0.9118800E+02  0.7816164E-02  0.1184000E+00
        -11   -1    0    0    0    0  0.00000000000E+00  0.00000000000E+00  0.45593999997E+02  0.45594000000E+02  0.51100000000E-03 0.  1.
         11   -1    0    0    0    0 -0.00000000000E+00 -0.00000000000E+00 -0.45593999997E+02  0.45594000000E+02  0.51100000000E-03 0. -1.
         23    2    1    2    0    0  0.35527136788E-14  0.00000000000E+00  0.00000000000E+00  0.91188000000E+02  0.91188000000E+02 0.  0.
    9900012    2    3    3    0    0  0.29914076734E+02  0.21018468900E+02  0.43763356528E+01  0.54367077476E+02  0.39999984721E+02 0.  0.
         12    1    3    3    0    0 -0.29914076734E+02 -0.21018468900E+02 -0.43763356528E+01  0.36820922524E+02  0.00000000000E+00 0. -1.
         11    1    4    4    0    0  0.26097653723E+02  0.75346167582E+01 -0.59865467735E+01  0.27815404403E+02  0.51100000000E-03 0. -1.
        -11    1    4    4    0    0  0.10664763569E+02  0.27861967677E+01  0.80294626642E+01  0.13637167790E+02  0.51100000000E-03 0.  1.
        -12    1    4    4    0    0 -0.68483405578E+01  0.10697655375E+02  0.23334197621E+01  0.12914505283E+02  0.00000000000E+00 0.  1.
</event>
<event>
 8    1  0.2433390E-006  0.9118800E+02  0.7816164E-02  0.1184000E+00
        -11   -1    0    0    0    0  0.00000000000E+00  0.00000000000E+00  0.45593999997E+02  0.45594000000E+02  0.51100000000E-03 0.  1.
         11   -1    0    0    0    0 -0.00000000000E+00 -0.00000000000E+00 -0.45593999997E+02  0.45594000000E+02  0.51100000000E-03 0. -1.
         23    2    1    2    0    0  0.35527136788E-14 -0.53290705182E-14  0.35527136788E-14  0.91188000000E+02  0.91188000000E+02 0.  0.
    9900012    2    3    3    0    0 -0.28239346541E+02  0.15092027390E+02 -0.18181032549E+02  0.54367083005E+02  0.39999997326E+02 0.  0.
         12    1    3    3    0    0  0.28239346541E+02 -0.15092027390E+02  0.18181032549E+02  0.36820916995E+02  0.00000000000E+00 0. -1.
         11    1    4    4    0    0 -0.56113472099E+01 -0.11016830324E+02 -0.26310926473E+01  0.12640427868E+02  0.51100000000E-03 0. -1.
        -11    1    4    4    0    0 -0.23379930572E+02  0.18172849011E+02 -0.78302183935E+01  0.30629820683E+02  0.51100000000E-03 0.  1.
         12    1    4    4    0    0  0.75193124039E+00  0.79360087038E+01 -0.77197215080E+01  0.11096834454E+02  0.00000000000E+00 0. -1.
</event>
<event>
 8    1  0.2433390E-006  0.9118800E+02  0.7816164E-02  0.1184000E+00
        -11   -1    0    0    0    0  0.00000000000E+00  0.00000000000E+00  0.45593999997E+02  0.45594000000E+02  0.51100000000E-03 0.  1.
         11   -1    0    0    0    0 -0.00000000000E+00 -0.00000000000E+00 -0.45593999997E+02  0.45594000000E+02  0.51100000000E-03 0. -1.
         23    2    1    2    0    0  0.00000000000E+00  0.00000000000E+00  0.00000000000E+00  0.91188000000E+02  0.91188000000E+02 0.  0.
    9900012    2    3    3    0    0 -0.25444127525E+02  0.19015370235E+02  0.18622366187E+02  0.54367075879E+02  0.39999981081E+02 0.  0.
         12    1    3    3    0    0  0.25444127525E+02 -0.19015370235E+02 -0.18622366187E+02  0.36820924121E+02  0.00000000000E+00 0. -1.
         11    1    4    4    0    0  0.59459036657E+00  0.18695490474E+02  0.40713691150E+01  0.19142908570E+02  0.51100000000E-03 0. -1.
        -11    1    4    4    0    0 -0.25554949747E+02  0.20647734295E+01  0.57977496164E+01  0.26285597706E+02  0.51100000000E-03 0.  1.
        -12    1    4    4    0    0 -0.48376814513E+00 -0.17448936686E+01  0.87532474557E+01  0.89385696034E+01  0.00000000000E+00 0.  1.
</event>
<event>
 8    1  0.2433390E-006  0.9118800E+02  0.7816164E-02  0.1184000E+00
        -11   -1    0    0    0    0  0.00000000000E+00  0.00000000000E+00  0.45593999997E+02  0.45594000000E+02  0.51100000000E-03 0.  1.
         11   -1    0    0    0    0 -0.00000000000E+00 -0.00000000000E+00 -0.45593999997E+02  0.45594000000E+02  0.51100000000E-03 0. -1.
         23    2    1    2    0    0  0.00000000000E+00  0.00000000000E+00  0.71054273576E-14  0.91188000000E+02  0.91188000000E+02 0.  0.
    9900012    2    3    3    0    0 -0.86201717905E+01  0.80372673270E+01 -0.34883720189E+02  0.54367096127E+02  0.40000027241E+02 0.  0.
        -12    1    3    3    0    0  0.86201717905E+01 -0.80372673270E+01  0.34883720189E+02  0.36820903873E+02  0.00000000000E+00 0.  1.
         11    1    4    4    0    0 -0.27518868337E+01 -0.67082495914E+01  0.36431939403E+01  0.81145767649E+01  0.51100000000E-03 0. -1.
        -11    1    4    4    0    0  0.25161748908E+00 -0.44448563267E+01 -0.28616589099E+01  0.52923672495E+01  0.51100000000E-03 0.  1.
         12    1    4    4    0    0 -0.61199024458E+01  0.19190373245E+02 -0.35665255219E+02  0.40960152113E+02  0.00000000000E+00 0. -1.
</event>
<event>
 8    1  0.2433390E-006  0.9118800E+02  0.7816164E-02  0.1184000E+00
        -11   -1    0    0    0    0  0.00000000000E+00  0.00000000000E+00  0.45593999997E+02  0.45594000000E+02  0.51100000000E-03 0.  1.
         11   -1    0    0    0    0 -0.00000000000E+00 -0.00000000000E+00 -0.45593999997E+02  0.45594000000E+02  0.51100000000E-03 0. -1.
         23    2    1    2    0    0  0.35527136788E-14 -0.35527136788E-14  0.00000000000E+00  0.91188000000E+02  0.91188000000E+02 0.  0.
    9900012    2    3    3    0    0  0.23617497650E+02 -0.22676501324E+02 -0.16845486466E+02  0.54367077662E+02  0.39999985146E+02 0.  0.
         12    1    3    3    0    0 -0.23617497650E+02  0.22676501324E+02  0.16845486466E+02  0.36820922338E+02  0.00000000000E+00 0. -1.
         11    1    4    4    0    0  0.13025621112E+02 -0.14338471865E+01 -0.20245624526E+02  0.24116551076E+02  0.51100000000E-03 0. -1.
        -11    1    4    4    0    0  0.76558098226E+01 -0.24133940425E+02  0.70927347028E+00  0.25329065786E+02  0.51100000000E-03 0.  1.
        -12    1    4    4    0    0  0.29360667156E+01  0.28912862881E+01  0.26908645897E+01  0.49214607992E+01  0.00000000000E+00 0.  1.
</event>
<event>
 8    1  0.2433390E-006  0.9118800E+02  0.7816164E-02  0.1184000E+00
        -11   -1    0    0    0    0  0.00000000000E+00  0.00000000000E+00  0.45593999997E+02  0.45594000000E+02  0.51100000000E-03 0.  1.
         11   -1    0    0    0    0 -0.00000000000E+00 -0.00000000000E+00 -0.45593999997E+02  0.45594000000E+02  0.51100000000E-03 0. -1.
         23    2    1    2    0    0  0.00000000000E+00  0.00000000000E+00  0.00000000000E+00  0.91188000000E+02  0.91188000000E+02 0.  0.
    9900012    2    3    3    0    0 -0.21861594247E+02  0.26185257821E+02 -0.13863010429E+02  0.54367080832E+02  0.39999992374E+02 0.  0.
        -12    1    3    3    0    0  0.21861594247E+02 -0.26185257821E+02  0.13863010429E+02  0.36820919168E+02  0.00000000000E+00 0.  1.
         11    1    4    4    0    0 -0.26929446237E+02  0.21902916891E+02 -0.38300445430E+01  0.34922801784E+02  0.51100000000E-03 0. -1.
        -11    1    4    4    0    0 -0.14412032897E+01 -0.42871771869E+01  0.29005836120E+00  0.45322278482E+01  0.51100000000E-03 0.  1.
         12    1    4    4    0    0  0.65090552797E+01  0.85695181176E+01 -0.10323024247E+02  0.14912051201E+02  0.00000000000E+00 0. -1.
</event>
<event>
 8    1  0.2433390E-006  0.9118800E+02  0.7816164E-02  0.1184000E+00
        -11   -1    0    0    0    0  0.00000000000E+00  0.00000000000E+00  0.45593999997E+02  0.45594000000E+02  0.51100000000E-03 0.  1.
         11   -1    0    0    0    0 -0.00000000000E+00 -0.00000000000E+00 -0.45593999997E+02  0.45594000000E+02  0.51100000000E-03 0. -1.
         23    2    1    2    0    0  0.35527136788E-14  0.35527136788E-14  0.88817841970E-15  0.91188000000E+02  0.91188000000E+02 0.  0.
    9900012    2    3    3    0    0  0.25583728824E+02  0.25364723582E+02  0.76081215127E+01  0.54367083446E+02  0.39999998332E+02 0.  0.
        -12    1    3    3    0    0 -0.25583728824E+02 -0.25364723582E+02 -0.76081215127E+01  0.36820916554E+02  0.00000000000E+00 0.  1.
         11    1    4    4    0    0  0.75349361106E+01  0.14673472859E+02 -0.36414726098E+01  0.16892199116E+02  0.51100000000E-03 0. -1.
        -11    1    4    4    0    0  0.14111980394E+02  0.13787913894E+02 -0.50976972572E+01  0.20377464949E+02  0.51100000000E-03 0.  1.
        -12    1    4    4    0    0  0.39368123199E+01 -0.30966631711E+01  0.16347291380E+02  0.17097419381E+02  0.00000000000E+00 0.  1.
</event>
<event>
 8    1  0.2433390E-006  0.9118800E+02  0.7816164E-02  0.1184000E+00
        -11   -1    0    0    0    0  0.00000000000E+00  0.00000000000E+00  0.45593999997E+02  0.45594000000E+02  0.51100000000E-03 0.  1.
         11   -1    0    0    0    0 -0.00000000000E+00 -0.00000000000E+00 -0.45593999997E+02  0.45594000000E+02  0.51100000000E-03 0. -1.
         23    2    1    2    0    0  0.00000000000E+00  0.00000000000E+00  0.17763568394E-14  0.91188000000E+02  0.91188000000E+02 0.  0.
    9900012    2    3    3    0    0  0.26250976219E+02  0.21304385514E+02 -0.14587330869E+02  0.54367070945E+02  0.39999969833E+02 0.  0.
        -12    1    3    3    0    0 -0.26250976219E+02 -0.21304385514E+02  0.14587330869E+02  0.36820929055E+02  0.00000000000E+00 0.  1.
         11    1    4    4    0    0  0.36320714940E+02  0.12197218542E+02 -0.10479700717E+02  0.39721412378E+02  0.51100000000E-03 0. -1.
        -11    1    4    4    0    0 -0.69252153609E+01  0.57242318304E+01 -0.91558615769E+00  0.90312643697E+01  0.51100000000E-03 0.  1.
         12    1    4    4    0    0 -0.31445233602E+01  0.33829351416E+01 -0.31920439947E+01  0.56143941970E+01  0.00000000000E+00 0. -1.
</event>
<event>
 8    1  0.2433390E-006  0.9118800E+02  0.7816164E-02  0.1184000E+00
        -11   -1    0    0    0    0  0.00000000000E+00  0.00000000000E+00  0.45593999997E+02  0.45594000000E+02  0.51100000000E-03 0. -1.
         11   -1    0    0    0    0 -0.00000000000E+00 -0.00000000000E+00 -0.45593999997E+02  0.45594000000E+02  0.51100000000E-03 0.  1.
         23    2    1    2    0    0 -0.17763568394E-14  0.88817841970E-15  0.00000000000E+00  0.91188000000E+02  0.91188000000E+02 0.  0.
    9900012    2    3    3    0    0 -0.15486091863E+02 -0.23184912790E+01 -0.33325444623E+02  0.54367086074E+02  0.40000004323E+02 0.  0.
         12    1    3    3    0    0  0.15486091863E+02  0.23184912790E+01  0.33325444623E+02  0.36820913926E+02  0.00000000000E+00 0. -1.
         11    1    4    4    0    0 -0.23565503898E+02 -0.11005220297E+02 -0.22406473399E+02  0.34329257175E+02  0.51100000000E-03 0. -1.
        -11    1    4    4    0    0 -0.23425942362E+01 -0.93331627637E+00 -0.91955585945E+00  0.26841032520E+01  0.51100000000E-03 0.  1.
         12    1    4    4    0    0  0.10422006272E+02  0.96200452942E+01 -0.99994153650E+01  0.17353725647E+02  0.00000000000E+00 0. -1.
</event>
<event>
 8    1  0.2433390E-006  0.9118800E+02  0.7816164E-02  0.1184000E+00
        -11   -1    0    0    0    0  0.00000000000E+00  0.00000000000E+00  0.45593999997E+02  0.45594000000E+02  0.51100000000E-03 0.  1.
         11   -1    0    0    0    0 -0.00000000000E+00 -0.00000000000E+00 -0.45593999997E+02  0.45594000000E+02  0.51100000000E-03 0. -1.
         23    2    1    2    0    0  0.00000000000E+00  0.00000000000E+00  0.00000000000E+00  0.91188000000E+02  0.91188000000E+02 0.  0.
    9900012    2    3    3    0    0  0.30622224523E+02 -0.10264852082E+02  0.17683013132E+02  0.54367125806E+02  0.40000094899E+02 0.  0.
         12    1    3    3    0    0 -0.30622224523E+02  0.10264852082E+02 -0.17683013132E+02  0.36820874194E+02  0.00000000000E+00 0. -1.
         11    1    4    4    0    0  0.80155310153E+01  0.75224193538E+01  0.76241721370E+01  0.13377725196E+02  0.51100000000E-03 0. -1.
        -11    1    4    4    0    0  0.27243805936E+02 -0.95350761523E+01  0.26819039002E+01  0.28988536492E+02  0.51100000000E-03 0.  1.
        -12    1    4    4    0    0 -0.46371124283E+01 -0.82521952840E+01  0.73769370943E+01  0.12000864118E+02  0.00000000000E+00 0.  1.
</event>
<event>
 8    1  0.2433390E-006  0.9118800E+02  0.7816164E-02  0.1184000E+00
        -11   -1    0    0    0    0  0.00000000000E+00  0.00000000000E+00  0.45593999997E+02  0.45594000000E+02  0.51100000000E-03 0.  1.
         11   -1    0    0    0    0 -0.00000000000E+00 -0.00000000000E+00 -0.45593999997E+02  0.45594000000E+02  0.51100000000E-03 0. -1.
         23    2    1    2    0    0  0.94368957093E-15  0.00000000000E+00  0.35527136788E-14  0.91188000000E+02  0.91188000000E+02 0.  0.
    9900012    2    3    3    0    0  0.21527851129E+00 -0.32111700957E+02 -0.18015908051E+02  0.54367073530E+02  0.39999975727E+02 0.  0.
        -12    1    3    3    0    0 -0.21527851129E+00  0.32111700957E+02  0.18015908051E+02  0.36820926470E+02  0.00000000000E+00 0.  1.
         11    1    4    4    0    0  0.16275895117E+01 -0.28640619392E+02 -0.23625550190E+02  0.37163163870E+02  0.51100000000E-03 0. -1.
        -11    1    4    4    0    0 -0.49846535784E+01 -0.71946308517E+01 -0.10099182178E+01  0.88107558959E+01  0.51100000000E-03 0.  1.
        -12    1    4    4    0    0  0.35723425780E+01  0.37235492868E+01  0.66195603573E+01  0.83931537642E+01  0.00000000000E+00 0.  1.
</event>
<event>
 8    1  0.2433390E-006  0.9118800E+02  0.7816164E-02  0.1184000E+00
        -11   -1    0    0    0    0  0.00000000000E+00  0.00000000000E+00  0.45593999997E+02  0.45594000000E+02  0.51100000000E-03 0. -1.
         11   -1    0    0    0    0 -0.00000000000E+00 -0.00000000000E+00 -0.45593999997E+02  0.45594000000E+02  0.51100000000E-03 0.  1.
         23    2    1    2    0    0  0.00000000000E+00  0.00000000000E+00  0.00000000000E+00  0.91188000000E+02  0.91188000000E+02 0.  0.
    9900012    2    3    3    0    0 -0.23077799643E+02 -0.11442809502E+02 -0.26310775512E+02  0.54367087006E+02  0.40000006447E+02 0.  0.
         12    1    3    3    0    0  0.23077799643E+02  0.11442809502E+02  0.26310775512E+02  0.36820912994E+02  0.00000000000E+00 0. -1.
         11    1    4    4    0    0 -0.11912708583E+02 -0.78890658434E+01  0.79468205273E+01  0.16349371316E+02  0.51100000000E-03 0. -1.
        -11    1    4    4    0    0 -0.12073852990E+02  0.50850543098E+00 -0.22418380257E+02  0.25468024608E+02  0.51100000000E-03 0.  1.
         12    1    4    4    0    0  0.90876192971E+00 -0.40622490896E+01 -0.11839215783E+02  0.12549691082E+02  0.00000000000E+00 0. -1.
</event>
<event>
 8    1  0.2433390E-006  0.9118800E+02  0.7816164E-02  0.1184000E+00
        -11   -1    0    0    0    0  0.00000000000E+00  0.00000000000E+00  0.45593999997E+02  0.45594000000E+02  0.51100000000E-03 0.  1.
         11   -1    0    0    0    0 -0.00000000000E+00 -0.00000000000E+00 -0.45593999997E+02  0.45594000000E+02  0.51100000000E-03 0. -1.
         23    2    1    2    0    0  0.35527136788E-14 -0.88817841970E-15  0.00000000000E+00  0.91188000000E+02  0.91188000000E+02 0.  0.
    9900012    2    3    3    0    0  0.20907941593E+02 -0.21425261710E+01 -0.30233235043E+02  0.54367069251E+02  0.39999965971E+02 0.  0.
        -12    1    3    3    0    0 -0.20907941593E+02  0.21425261710E+01  0.30233235043E+02  0.36820930749E+02  0.00000000000E+00 0.  1.
         11    1    4    4    0    0  0.58790310058E+01  0.54733802221E+01  0.27858933238E+00  0.80373197585E+01  0.51100000000E-03 0. -1.
        -11    1    4    4    0    0  0.74663307800E+01 -0.20533242838E+00  0.51871485726E+01  0.90936663287E+01  0.51100000000E-03 0.  1.
         12    1    4    4    0    0  0.75625798074E+01 -0.74105739647E+01 -0.35698972948E+02  0.37236083164E+02  0.00000000000E+00 0. -1.
</event>
<event>
 8    1  0.2433390E-006  0.9118800E+02  0.7816164E-02  0.1184000E+00
        -11   -1    0    0    0    0  0.00000000000E+00  0.00000000000E+00  0.45593999997E+02  0.45594000000E+02  0.51100000000E-03 0.  1.
         11   -1    0    0    0    0 -0.00000000000E+00 -0.00000000000E+00 -0.45593999997E+02  0.45594000000E+02  0.51100000000E-03 0. -1.
         23    2    1    2    0    0  0.17763568394E-14  0.17763568394E-14  0.35527136788E-14  0.91188000000E+02  0.91188000000E+02 0.  0.
    9900012    2    3    3    0    0 -0.14972813098E+02 -0.15118764652E+02 -0.30050292401E+02  0.54367051478E+02  0.39999925455E+02 0.  0.
        -12    1    3    3    0    0  0.14972813098E+02  0.15118764652E+02  0.30050292401E+02  0.36820948522E+02  0.00000000000E+00 0.  1.
         11    1    4    4    0    0  0.48950238288E+01 -0.55130287686E+01 -0.82042697840E+01  0.11030176220E+02  0.51100000000E-03 0.  1.
        -11    1    4    4    0    0  0.58328190505E+01  0.22187438859E+01  0.17681519573E+01  0.64862133878E+01  0.51100000000E-03 0. -1.
         12    1    4    4    0    0 -0.25700655977E+02 -0.11824479769E+02 -0.23614174574E+02  0.36850661871E+02  0.00000000000E+00 0. -1.
</event>
<event>
 8    1  0.2433390E-006  0.9118800E+02  0.7816164E-02  0.1184000E+00
        -11   -1    0    0    0    0  0.00000000000E+00  0.00000000000E+00  0.45593999997E+02  0.45594000000E+02  0.51100000000E-03 0.  1.
         11   -1    0    0    0    0 -0.00000000000E+00 -0.00000000000E+00 -0.45593999997E+02  0.45594000000E+02  0.51100000000E-03 0. -1.
         23    2    1    2    0    0  0.00000000000E+00  0.00000000000E+00 -0.35527136788E-14  0.91188000000E+02  0.91188000000E+02 0.  0.
    9900012    2    3    3    0    0  0.10437767543E+02  0.24693839638E+02  0.25239832154E+02  0.54367057121E+02  0.39999938318E+02 0.  0.
         12    1    3    3    0    0 -0.10437767543E+02 -0.24693839638E+02 -0.25239832154E+02  0.36820942879E+02  0.00000000000E+00 0. -1.
         11    1    4    4    0    0  0.14075329882E+01 -0.48376815066E+01  0.43329516920E+01  0.66452074534E+01  0.51100000000E-03 0. -1.
        -11    1    4    4    0    0  0.11689516848E+02  0.28633246482E+02  0.26973396313E+02  0.41037442868E+02  0.51100000000E-03 0.  1.
         12    1    4    4    0    0 -0.26592822931E+01  0.89827466266E+00 -0.60665158511E+01  0.66844067991E+01  0.00000000000E+00 0. -1.
</event>
<event>
 8    1  0.2433390E-006  0.9118800E+02  0.7816164E-02  0.1184000E+00
        -11   -1    0    0    0    0  0.00000000000E+00  0.00000000000E+00  0.45593999997E+02  0.45594000000E+02  0.51100000000E-03 0. -1.
         11   -1    0    0    0    0 -0.00000000000E+00 -0.00000000000E+00 -0.45593999997E+02  0.45594000000E+02  0.51100000000E-03 0.  1.
         23    2    1    2    0    0 -0.35527136788E-14  0.35527136788E-14  0.00000000000E+00  0.91188000000E+02  0.91188000000E+02 0.  0.
    9900012    2    3    3    0    0  0.18931234296E+02  0.30331723504E+02 -0.87963122181E+01  0.54367079434E+02  0.39999989186E+02 0.  0.
        -12    1    3    3    0    0 -0.18931234296E+02 -0.30331723504E+02  0.87963122181E+01  0.36820920566E+02  0.00000000000E+00 0.  1.
         11    1    4    4    0    0  0.25701073271E+02  0.18308940668E+02 -0.52414325139E+01  0.31988046060E+02  0.51100000000E-03 0. -1.
        -11    1    4    4    0    0 -0.41156611776E+01 -0.34439986162E+01 -0.39785227588E+01  0.66804518560E+01  0.51100000000E-03 0.  1.
        -12    1    4    4    0    0 -0.26541777968E+01  0.15466781452E+02  0.42364305466E+00  0.15698581518E+02  0.00000000000E+00 0.  1.
</event>
<event>
 8    1  0.2433390E-006  0.9118800E+02  0.7816164E-02  0.1184000E+00
        -11   -1    0    0    0    0  0.00000000000E+00  0.00000000000E+00  0.45593999997E+02  0.45594000000E+02  0.51100000000E-03 0.  1.
         11   -1    0    0    0    0 -0.00000000000E+00 -0.00000000000E+00 -0.45593999997E+02  0.45594000000E+02  0.51100000000E-03 0. -1.
         23    2    1    2    0    0 -0.66613381478E-15  0.44408920985E-15  0.00000000000E+00  0.91188000000E+02  0.91188000000E+02 0.  0.
    9900012    2    3    3    0    0  0.11814167467E+01  0.36273437055E+01  0.36622599457E+02  0.54367242826E+02  0.40000361669E+02 0.  0.
         12    1    3    3    0    0 -0.11814167467E+01 -0.36273437055E+01 -0.36622599457E+02  0.36820757174E+02  0.00000000000E+00 0. -1.
         11    1    4    4    0    0  0.66424709497E+01  0.15261316342E+01 -0.43124899004E+01  0.80653002104E+01  0.51100000000E-03 0. -1.
        -11    1    4    4    0    0  0.28061180335E+01  0.98891104097E+01  0.19303511055E+02  0.21869941527E+02  0.51100000000E-03 0.  1.
        -12    1    4    4    0    0 -0.82671722366E+01 -0.77878983383E+01  0.21631578303E+02  0.24432001088E+02  0.00000000000E+00 0.  1.
</event>
<event>
 8    1  0.2433390E-006  0.9118800E+02  0.7816164E-02  0.1184000E+00
        -11   -1    0    0    0    0  0.00000000000E+00  0.00000000000E+00  0.45593999997E+02  0.45594000000E+02  0.51100000000E-03 0. -1.
         11   -1    0    0    0    0 -0.00000000000E+00 -0.00000000000E+00 -0.45593999997E+02  0.45594000000E+02  0.51100000000E-03 0.  1.
         23    2    1    2    0    0  0.00000000000E+00  0.13322676296E-14  0.35527136788E-14  0.91188000000E+02  0.91188000000E+02 0.  0.
    9900012    2    3    3    0    0  0.32134305536E+02  0.34484000976E+01  0.17642982137E+02  0.54367083740E+02  0.39999999002E+02 0.  0.
        -12    1    3    3    0    0 -0.32134305536E+02 -0.34484000976E+01 -0.17642982137E+02  0.36820916260E+02  0.00000000000E+00 0.  1.
         11    1    4    4    0    0  0.29503119240E+01 -0.10720877954E+01 -0.54329473872E+01  0.62746020004E+01  0.51100000000E-03 0. -1.
        -11    1    4    4    0    0  0.20672334786E+02 -0.83556778408E+01  0.25965656847E+01  0.22447826873E+02  0.51100000000E-03 0.  1.
         12    1    4    4    0    0  0.85116588260E+01  0.12876165734E+02  0.20479363840E+02  0.25644654867E+02  0.00000000000E+00 0. -1.
</event>
<event>
 8    1  0.2433390E-006  0.9118800E+02  0.7816164E-02  0.1184000E+00
        -11   -1    0    0    0    0  0.00000000000E+00  0.00000000000E+00  0.45593999997E+02  0.45594000000E+02  0.51100000000E-03 0.  1.
         11   -1    0    0    0    0 -0.00000000000E+00 -0.00000000000E+00 -0.45593999997E+02  0.45594000000E+02  0.51100000000E-03 0. -1.
         23    2    1    2    0    0  0.00000000000E+00  0.35527136788E-14  0.88817841970E-15  0.91188000000E+02  0.91188000000E+02 0.  0.
    9900012    2    3    3    0    0 -0.22461408882E+02 -0.28156958065E+02  0.76454289884E+01  0.54367058121E+02  0.39999940598E+02 0.  0.
         12    1    3    3    0    0  0.22461408882E+02  0.28156958065E+02 -0.76454289884E+01  0.36820941879E+02  0.00000000000E+00 0. -1.
         11    1    4    4    0    0 -0.22119414060E+02 -0.22797699052E+02  0.11697011975E+02  0.33850016984E+02  0.51100000000E-03 0. -1.
        -11    1    4    4    0    0 -0.24650150986E+01 -0.30923862471E+01  0.75413201001E+01  0.85153192102E+01  0.51100000000E-03 0.  1.
         12    1    4    4    0    0  0.21230202767E+01 -0.22668727663E+01 -0.11592903086E+02  0.12001721927E+02  0.00000000000E+00 0. -1.
</event>
<event>
 8    1  0.2433390E-006  0.9118800E+02  0.7816164E-02  0.1184000E+00
        -11   -1    0    0    0    0  0.00000000000E+00  0.00000000000E+00  0.45593999997E+02  0.45594000000E+02  0.51100000000E-03 0.  1.
         11   -1    0    0    0    0 -0.00000000000E+00 -0.00000000000E+00 -0.45593999997E+02  0.45594000000E+02  0.51100000000E-03 0. -1.
         23    2    1    2    0    0  0.35527136788E-14  0.00000000000E+00  0.66613381478E-15  0.91188000000E+02  0.91188000000E+02 0.  0.
    9900012    2    3    3    0    0  0.12782900149E+02  0.34474663782E+02  0.19683356774E+01  0.54367091206E+02  0.40000016022E+02 0.  0.
        -12    1    3    3    0    0 -0.12782900149E+02 -0.34474663782E+02 -0.19683356774E+01  0.36820908794E+02  0.00000000000E+00 0.  1.
         11    1    4    4    0    0 -0.46751891178E-01  0.90103197390E+01  0.11446152337E+02  0.14567170320E+02  0.51100000000E-03 0. -1.
        -11    1    4    4    0    0 -0.37383004965E+01  0.10146448190E+02  0.60676436633E+01  0.12399258097E+02  0.51100000000E-03 0.  1.
        -12    1    4    4    0    0  0.16567952537E+02  0.15317895853E+02 -0.15545460323E+02  0.27400662789E+02  0.00000000000E+00 0.  1.
</event>
<event>
 8    1  0.2433390E-006  0.9118800E+02  0.7816164E-02  0.1184000E+00
        -11   -1    0    0    0    0  0.00000000000E+00  0.00000000000E+00  0.45593999997E+02  0.45594000000E+02  0.51100000000E-03 0.  1.
         11   -1    0    0    0    0 -0.00000000000E+00 -0.00000000000E+00 -0.45593999997E+02  0.45594000000E+02  0.51100000000E-03 0. -1.
         23    2    1    2    0    0 -0.35527136788E-14  0.35527136788E-14  0.17763568394E-14  0.91188000000E+02  0.91188000000E+02 0.  0.
    9900012    2    3    3    0    0  0.22569440707E+02 -0.27780836373E+02  0.86386033690E+01  0.54367082146E+02  0.39999995369E+02 0.  0.
         12    1    3    3    0    0 -0.22569440707E+02  0.27780836373E+02 -0.86386033690E+01  0.36820917854E+02  0.00000000000E+00 0. -1.
         11    1    4    4    0    0  0.22631197060E+01 -0.83409441278E+01 -0.12716928684E+01  0.87355745523E+01  0.51100000000E-03 0. -1.
        -11    1    4    4    0    0  0.10301893625E+02 -0.79400955914E+01  0.22415416315E+02  0.25915729183E+02  0.51100000000E-03 0.  1.
        -12    1    4    4    0    0  0.10004427376E+02 -0.11499796653E+02 -0.12505120077E+02  0.19715778411E+02  0.00000000000E+00 0.  1.
</event>
<event>
 8    1  0.2433390E-006  0.9118800E+02  0.7816164E-02  0.1184000E+00
        -11   -1    0    0    0    0  0.00000000000E+00  0.00000000000E+00  0.45593999997E+02  0.45594000000E+02  0.51100000000E-03 0.  1.
         11   -1    0    0    0    0 -0.00000000000E+00 -0.00000000000E+00 -0.45593999997E+02  0.45594000000E+02  0.51100000000E-03 0. -1.
         23    2    1    2    0    0  0.00000000000E+00  0.00000000000E+00  0.71054273576E-14  0.91188000000E+02  0.91188000000E+02 0.  0.
    9900012    2    3    3    0    0  0.42176979281E+01 -0.17486186400E+02 -0.32128247530E+02  0.54367082304E+02  0.39999995728E+02 0.  0.
        -12    1    3    3    0    0 -0.42176979281E+01  0.17486186400E+02  0.32128247530E+02  0.36820917696E+02  0.00000000000E+00 0.  1.
         11    1    4    4    0    0  0.11242006854E+02 -0.91475900482E+01 -0.13138777483E+02  0.19562428167E+02  0.51100000000E-03 0. -1.
        -11    1    4    4    0    0 -0.77288646771E+01 -0.80817578005E+01 -0.25713011792E+02  0.28039421071E+02  0.51100000000E-03 0.  1.
        -12    1    4    4    0    0  0.70455575105E+00 -0.25683855107E+00  0.67235417440E+01  0.67652330656E+01  0.00000000000E+00 0.  1.
</event>
<event>
 8    1  0.2433390E-006  0.9118800E+02  0.7816164E-02  0.1184000E+00
        -11   -1    0    0    0    0  0.00000000000E+00  0.00000000000E+00  0.45593999997E+02  0.45594000000E+02  0.51100000000E-03 0. -1.
         11   -1    0    0    0    0 -0.00000000000E+00 -0.00000000000E+00 -0.45593999997E+02  0.45594000000E+02  0.51100000000E-03 0.  1.
         23    2    1    2    0    0  0.17763568394E-14 -0.35527136788E-14  0.00000000000E+00  0.91188000000E+02  0.91188000000E+02 0.  0.
    9900012    2    3    3    0    0 -0.12406261899E+02  0.29276147989E+02  0.18568042370E+02  0.54367076969E+02  0.39999983567E+02 0.  0.
         12    1    3    3    0    0  0.12406261899E+02 -0.29276147989E+02 -0.18568042370E+02  0.36820923031E+02  0.00000000000E+00 0. -1.
         11    1    4    4    0    0  0.21692264673E+01  0.19705326183E+02  0.28865220420E+01  0.20033407928E+02  0.51100000000E-03 0. -1.
        -11    1    4    4    0    0 -0.14017720514E+02  0.16540730045E+02  0.16565701635E+02  0.27285796850E+02  0.51100000000E-03 0.  1.
         12    1    4    4    0    0 -0.55776785248E+00 -0.69699082393E+01 -0.88418130654E+00  0.70478721913E+01  0.00000000000E+00 0. -1.
</event>
<event>
 8    1  0.2433390E-006  0.9118800E+02  0.7816164E-02  0.1184000E+00
        -11   -1    0    0    0    0  0.00000000000E+00  0.00000000000E+00  0.45593999997E+02  0.45594000000E+02  0.51100000000E-03 0.  1.
         11   -1    0    0    0    0 -0.00000000000E+00 -0.00000000000E+00 -0.45593999997E+02  0.45594000000E+02  0.51100000000E-03 0. -1.
         23    2    1    2    0    0  0.35527136788E-14  0.17763568394E-14  0.00000000000E+00  0.91188000000E+02  0.91188000000E+02 0.  0.
    9900012    2    3    3    0    0 -0.31607326009E+02 -0.91027503211E+01  0.16549875391E+02  0.54367061714E+02  0.39999948789E+02 0.  0.
         12    1    3    3    0    0  0.31607326009E+02  0.91027503211E+01 -0.16549875391E+02  0.36820938286E+02  0.00000000000E+00 0. -1.
         11    1    4    4    0    0 -0.22924026590E+02  0.10430846371E+02  0.10619934600E+02  0.27333067195E+02  0.51100000000E-03 0. -1.
        -11    1    4    4    0    0 -0.47663219684E+01  0.98332115911E+00  0.35235901873E+01  0.60083636440E+01  0.51100000000E-03 0.  1.
        -12    1    4    4    0    0 -0.39169774500E+01 -0.20516917851E+02  0.24063506037E+01  0.21025630875E+02  0.00000000000E+00 0.  1.
</event>
<event>
 8    1  0.2433390E-006  0.9118800E+02  0.7816164E-02  0.1184000E+00
        -11   -1    0    0    0    0  0.00000000000E+00  0.00000000000E+00  0.45593999997E+02  0.45594000000E+02  0.51100000000E-03 0. -1.
         11   -1    0    0    0    0 -0.00000000000E+00 -0.00000000000E+00 -0.45593999997E+02  0.45594000000E+02  0.51100000000E-03 0.  1.
         23    2    1    2    0    0  0.00000000000E+00  0.00000000000E+00  0.00000000000E+00  0.91188000000E+02  0.91188000000E+02 0.  0.
    9900012    2    3    3    0    0 -0.81115190825E+01 -0.54686066587E+01  0.35497597036E+02  0.54367057644E+02  0.39999939511E+02 0.  0.
        -12    1    3    3    0    0  0.81115190825E+01  0.54686066587E+01 -0.35497597036E+02  0.36820942356E+02  0.00000000000E+00 0.  1.
         11    1    4    4    0    0  0.35924425455E+01  0.11298723698E+02  0.11977244318E+02  0.16852928006E+02  0.51100000000E-03 0. -1.
        -11    1    4    4    0    0 -0.27209291708E+01 -0.12486205842E+02  0.24379809365E+02  0.27526058505E+02  0.51100000000E-03 0.  1.
        -12    1    4    4    0    0 -0.89830324573E+01 -0.42811245146E+01 -0.85945664651E+00  0.99880711333E+01  0.00000000000E+00 0.  1.
</event>
<event>
 8    1  0.2433390E-006  0.9118800E+02  0.7816164E-02  0.1184000E+00
        -11   -1    0    0    0    0  0.00000000000E+00  0.00000000000E+00  0.45593999997E+02  0.45594000000E+02  0.51100000000E-03 0.  1.
         11   -1    0    0    0    0 -0.00000000000E+00 -0.00000000000E+00 -0.45593999997E+02  0.45594000000E+02  0.51100000000E-03 0. -1.
         23    2    1    2    0    0  0.00000000000E+00 -0.35527136788E-14  0.17763568394E-14  0.91188000000E+02  0.91188000000E+02 0.  0.
    9900012    2    3    3    0    0 -0.30329519069E+02 -0.17006439296E+02  0.12111151501E+02  0.54367099751E+02  0.40000035502E+02 0.  0.
         12    1    3    3    0    0  0.30329519069E+02  0.17006439296E+02 -0.12111151501E+02  0.36820900249E+02  0.00000000000E+00 0. -1.
         11    1    4    4    0    0  0.52230167730E+01  0.71434427511E+01  0.43504768567E+00  0.88599066191E+01  0.51100000000E-03 0. -1.
        -11    1    4    4    0    0 -0.21040206203E+02 -0.10080230374E+02  0.94520835597E+01  0.25172270564E+02  0.51100000000E-03 0.  1.
        -12    1    4    4    0    0 -0.14512329640E+02 -0.14069651672E+02  0.22240202551E+01  0.20334922568E+02  0.00000000000E+00 0.  1.
</event>
<event>
 8    1  0.2433390E-006  0.9118800E+02  0.7816164E-02  0.1184000E+00
        -11   -1    0    0    0    0  0.00000000000E+00  0.00000000000E+00  0.45593999997E+02  0.45594000000E+02  0.51100000000E-03 0.  1.
         11   -1    0    0    0    0 -0.00000000000E+00 -0.00000000000E+00 -0.45593999997E+02  0.45594000000E+02  0.51100000000E-03 0. -1.
         23    2    1    2    0    0 -0.88817841970E-15 -0.17763568394E-14  0.00000000000E+00  0.91188000000E+02  0.91188000000E+02 0.  0.
    9900012    2    3    3    0    0  0.77843239383E+01  0.14558119615E+02  0.32912689678E+02  0.54367086273E+02  0.40000004776E+02 0.  0.
         12    1    3    3    0    0 -0.77843239383E+01 -0.14558119615E+02 -0.32912689678E+02  0.36820913727E+02  0.00000000000E+00 0. -1.
         11    1    4    4    0    0  0.52063835858E+01 -0.30805012737E+00  0.71565313226E+00  0.52643598462E+01  0.51100000000E-03 0. -1.
        -11    1    4    4    0    0  0.10962513107E+02  0.22579729438E+02  0.17937960056E+02  0.30851114832E+02  0.51100000000E-03 0.  1.
        -12    1    4    4    0    0 -0.83845727543E+01 -0.77135596964E+01  0.14259076490E+02  0.18251611595E+02  0.00000000000E+00 0.  1.
</event>
<event>
 8    1  0.2433390E-006  0.9118800E+02  0.7816164E-02  0.1184000E+00
        -11   -1    0    0    0    0  0.00000000000E+00  0.00000000000E+00  0.45593999997E+02  0.45594000000E+02  0.51100000000E-03 0. -1.
         11   -1    0    0    0    0 -0.00000000000E+00 -0.00000000000E+00 -0.45593999997E+02  0.45594000000E+02  0.51100000000E-03 0.  1.
         23    2    1    2    0    0  0.35527136788E-14 -0.35527136788E-14  0.35527136788E-14  0.91188000000E+02  0.91188000000E+02 0.  0.
    9900012    2    3    3    0    0  0.19915229358E+02 -0.24184072067E+02  0.19346678950E+02  0.54367086262E+02  0.40000004750E+02 0.  0.
        -12    1    3    3    0    0 -0.19915229358E+02  0.24184072067E+02 -0.19346678950E+02  0.36820913738E+02  0.00000000000E+00 0.  1.
         11    1    4    4    0    0  0.89322990488E+01 -0.16161508602E+02  0.21989833234E+02  0.28714684266E+02  0.51100000000E-03 0. -1.
        -11    1    4    4    0    0 -0.41266668796E+01  0.38339672614E+01  0.18477956886E+01  0.59281560088E+01  0.51100000000E-03 0.  1.
         12    1    4    4    0    0  0.15109597188E+02 -0.11856530727E+02 -0.44909499725E+01  0.19724245987E+02  0.00000000000E+00 0. -1.
</event>
<event>
 8    1  0.2433390E-006  0.9118800E+02  0.7816164E-02  0.1184000E+00
        -11   -1    0    0    0    0  0.00000000000E+00  0.00000000000E+00  0.45593999997E+02  0.45594000000E+02  0.51100000000E-03 0.  1.
         11   -1    0    0    0    0 -0.00000000000E+00 -0.00000000000E+00 -0.45593999997E+02  0.45594000000E+02  0.51100000000E-03 0. -1.
         23    2    1    2    0    0 -0.35527136788E-14 -0.17763568394E-14  0.00000000000E+00  0.91188000000E+02  0.91188000000E+02 0.  0.
    9900012    2    3    3    0    0 -0.24250235423E+02 -0.10604482462E+02  0.25597860480E+02  0.54367089806E+02  0.40000012830E+02 0.  0.
         12    1    3    3    0    0  0.24250235423E+02  0.10604482462E+02 -0.25597860480E+02  0.36820910194E+02  0.00000000000E+00 0. -1.
         11    1    4    4    0    0 -0.56731869369E+01 -0.52557603654E+01 -0.48349572894E+01  0.91205745044E+01  0.51100000000E-03 0. -1.
        -11    1    4    4    0    0 -0.14308600958E+02 -0.12064793092E+02  0.32060796189E+02  0.37123980744E+02  0.51100000000E-03 0.  1.
        -12    1    4    4    0    0 -0.42684475278E+01  0.67160709951E+01 -0.16279784192E+01  0.81225345578E+01  0.00000000000E+00 0.  1.
</event>
<event>
 8    1  0.2433390E-006  0.9118800E+02  0.7816164E-02  0.1184000E+00
        -11   -1    0    0    0    0  0.00000000000E+00  0.00000000000E+00  0.45593999997E+02  0.45594000000E+02  0.51100000000E-03 0. -1.
         11   -1    0    0    0    0 -0.00000000000E+00 -0.00000000000E+00 -0.45593999997E+02  0.45594000000E+02  0.51100000000E-03 0.  1.
         23    2    1    2    0    0  0.00000000000E+00  0.00000000000E+00  0.00000000000E+00  0.91188000000E+02  0.91188000000E+02 0.  0.
    9900012    2    3    3    0    0  0.15175379180E+02  0.26073925884E+01  0.33446799503E+02  0.54367095253E+02  0.40000025249E+02 0.  0.
        -12    1    3    3    0    0 -0.15175379180E+02 -0.26073925884E+01 -0.33446799503E+02  0.36820904747E+02  0.00000000000E+00 0.  1.
         11    1    4    4    0    0  0.22310186308E+02  0.51353438852E+01  0.71181661849E+01  0.23974662876E+02  0.51100000000E-03 0. -1.
        -11    1    4    4    0    0  0.24381623904E+01  0.32812341360E+00  0.15362281900E+02  0.15558020641E+02  0.51100000000E-03 0.  1.
        -12    1    4    4    0    0 -0.95729695182E+01 -0.28560747104E+01  0.10966351418E+02  0.14834411736E+02  0.00000000000E+00 0.  1.
</event>
<event>
 8    1  0.2433390E-006  0.9118800E+02  0.7816164E-02  0.1184000E+00
        -11   -1    0    0    0    0  0.00000000000E+00  0.00000000000E+00  0.45593999997E+02  0.45594000000E+02  0.51100000000E-03 0. -1.
         11   -1    0    0    0    0 -0.00000000000E+00 -0.00000000000E+00 -0.45593999997E+02  0.45594000000E+02  0.51100000000E-03 0.  1.
         23    2    1    2    0    0  0.00000000000E+00  0.00000000000E+00 -0.35527136788E-14  0.91188000000E+02  0.91188000000E+02 0.  0.
    9900012    2    3    3    0    0 -0.30946405287E+02  0.48547043645E+01  0.19352862210E+02  0.54367062608E+02  0.39999950828E+02 0.  0.
        -12    1    3    3    0    0  0.30946405287E+02 -0.48547043645E+01 -0.19352862210E+02  0.36820937392E+02  0.00000000000E+00 0.  1.
         11    1    4    4    0    0 -0.10277175135E+02 -0.11206719882E+02  0.42832950826E+01  0.15797389540E+02  0.51100000000E-03 0. -1.
        -11    1    4    4    0    0  0.24884049710E+01  0.63207776563E+01 -0.31973798669E+01  0.75078377549E+01  0.51100000000E-03 0.  1.
        -12    1    4    4    0    0 -0.23157635124E+02  0.97406465897E+01  0.18266946995E+02  0.31061835313E+02  0.00000000000E+00 0.  1.
</event>
<event>
 8    1  0.2433390E-006  0.9118800E+02  0.7816164E-02  0.1184000E+00
        -11   -1    0    0    0    0  0.00000000000E+00  0.00000000000E+00  0.45593999997E+02  0.45594000000E+02  0.51100000000E-03 0.  1.
         11   -1    0    0    0    0 -0.00000000000E+00 -0.00000000000E+00 -0.45593999997E+02  0.45594000000E+02  0.51100000000E-03 0. -1.
         23    2    1    2    0    0 -0.35527136788E-14 -0.35527136788E-14  0.00000000000E+00  0.91188000000E+02  0.91188000000E+02 0.  0.
    9900012    2    3    3    0    0  0.18219362620E+02 -0.27181156417E+02  0.16882520979E+02  0.54367082670E+02  0.39999996562E+02 0.  0.
         12    1    3    3    0    0 -0.18219362620E+02  0.27181156417E+02 -0.16882520979E+02  0.36820917330E+02  0.00000000000E+00 0. -1.
         11    1    4    4    0    0  0.77275352879E+01  0.74130625684E+01  0.66963344950E+01  0.12629694937E+02  0.51100000000E-03 0. -1.
        -11    1    4    4    0    0  0.12015506307E+02 -0.14559304649E+02  0.10581831459E+02  0.21640723208E+02  0.51100000000E-03 0.  1.
         12    1    4    4    0    0 -0.15236789748E+01 -0.20034914336E+02 -0.39564497466E+00  0.20096664525E+02  0.00000000000E+00 0. -1.
</event>
<event>
 8    1  0.2433390E-006  0.9118800E+02  0.7816164E-02  0.1184000E+00
        -11   -1    0    0    0    0  0.00000000000E+00  0.00000000000E+00  0.45593999997E+02  0.45594000000E+02  0.51100000000E-03 0.  1.
         11   -1    0    0    0    0 -0.00000000000E+00 -0.00000000000E+00 -0.45593999997E+02  0.45594000000E+02  0.51100000000E-03 0. -1.
         23    2    1    2    0    0  0.00000000000E+00 -0.17763568394E-14  0.00000000000E+00  0.91188000000E+02  0.91188000000E+02 0.  0.
    9900012    2    3    3    0    0 -0.41030291156E+01  0.12084353425E+02 -0.34538579340E+02  0.54367083275E+02  0.39999997943E+02 0.  0.
        -12    1    3    3    0    0  0.41030291156E+01 -0.12084353425E+02  0.34538579340E+02  0.36820916725E+02  0.00000000000E+00 0.  1.
         11    1    4    4    0    0 -0.45305380613E+00  0.19228492558E+02 -0.31911285053E+02  0.37259499431E+02  0.51100000000E-03 0. -1.
        -11    1    4    4    0    0 -0.60407813130E+01  0.62575539557E+00  0.34252769632E+01  0.69724551790E+01  0.51100000000E-03 0.  1.
         12    1    4    4    0    0  0.23908060036E+01 -0.77698945290E+01 -0.60525712499E+01  0.10135128666E+02  0.00000000000E+00 0. -1.
</event>
<event>
 8    1  0.2433390E-006  0.9118800E+02  0.7816164E-02  0.1184000E+00
        -11   -1    0    0    0    0  0.00000000000E+00  0.00000000000E+00  0.45593999997E+02  0.45594000000E+02  0.51100000000E-03 0.  1.
         11   -1    0    0    0    0 -0.00000000000E+00 -0.00000000000E+00 -0.45593999997E+02  0.45594000000E+02  0.51100000000E-03 0. -1.
         23    2    1    2    0    0  0.00000000000E+00  0.00000000000E+00  0.00000000000E+00  0.91188000000E+02  0.91188000000E+02 0.  0.
    9900012    2    3    3    0    0 -0.19734322346E+02 -0.52942537851E+01  0.30631837149E+02  0.54367054212E+02  0.39999931688E+02 0.  0.
         12    1    3    3    0    0  0.19734322346E+02  0.52942537851E+01 -0.30631837149E+02  0.36820945788E+02  0.00000000000E+00 0. -1.
         11    1    4    4    0    0  0.78816313724E+01 -0.29181099710E+01  0.43805020632E+00  0.84158996630E+01  0.51100000000E-03 0. -1.
        -11    1    4    4    0    0 -0.38305711627E+01  0.47225090785E+01  0.16538468401E+02  0.17620905333E+02  0.51100000000E-03 0.  1.
        -12    1    4    4    0    0 -0.23785382555E+02 -0.70986528926E+01  0.13655318541E+02  0.28330249216E+02  0.00000000000E+00 0.  1.
</event>
<event>
 8    1  0.2433390E-006  0.9118800E+02  0.7816164E-02  0.1184000E+00
        -11   -1    0    0    0    0  0.00000000000E+00  0.00000000000E+00  0.45593999997E+02  0.45594000000E+02  0.51100000000E-03 0.  1.
         11   -1    0    0    0    0 -0.00000000000E+00 -0.00000000000E+00 -0.45593999997E+02  0.45594000000E+02  0.51100000000E-03 0. -1.
         23    2    1    2    0    0  0.00000000000E+00  0.00000000000E+00  0.17763568394E-14  0.91188000000E+02  0.91188000000E+02 0.  0.
    9900012    2    3    3    0    0  0.23156759245E+02 -0.26014893506E+02  0.11948633991E+02  0.54367081528E+02  0.39999993960E+02 0.  0.
        -12    1    3    3    0    0 -0.23156759245E+02  0.26014893506E+02 -0.11948633991E+02  0.36820918472E+02  0.00000000000E+00 0.  1.
         11    1    4    4    0    0  0.96546321503E+01 -0.41824863949E+00  0.37163532116E+01  0.10353653236E+02  0.51100000000E-03 0. -1.
        -11    1    4    4    0    0  0.10011343282E+02 -0.23954730913E+02  0.19262552316E+02  0.32328038131E+02  0.51100000000E-03 0.  1.
        -12    1    4    4    0    0  0.34907838121E+01 -0.16419139543E+01 -0.11030271536E+02  0.11685390161E+02  0.00000000000E+00 0.  1.
</event>
<event>
 8    1  0.2433390E-006  0.9118800E+02  0.7816164E-02  0.1184000E+00
        -11   -1    0    0    0    0  0.00000000000E+00  0.00000000000E+00  0.45593999997E+02  0.45594000000E+02  0.51100000000E-03 0.  1.
         11   -1    0    0    0    0 -0.00000000000E+00 -0.00000000000E+00 -0.45593999997E+02  0.45594000000E+02  0.51100000000E-03 0. -1.
         23    2    1    2    0    0  0.35527136788E-14  0.00000000000E+00  0.00000000000E+00  0.91188000000E+02  0.91188000000E+02 0.  0.
    9900012    2    3    3    0    0 -0.30059647797E+02 -0.19936417649E+02  0.73975938197E+01  0.54367250841E+02  0.40000379939E+02 0.  0.
         12    1    3    3    0    0  0.30059647797E+02  0.19936417649E+02 -0.73975938197E+01  0.36820749159E+02  0.00000000000E+00 0. -1.
         11    1    4    4    0    0 -0.45489682910E+00  0.80330183496E+01  0.34047382457E+00  0.80530887004E+01  0.51100000000E-03 0. -1.
        -11    1    4    4    0    0 -0.74477973914E+00  0.15431502266E+01  0.46615535361E+01  0.49664968653E+01  0.51100000000E-03 0.  1.
        -12    1    4    4    0    0 -0.28859971228E+02 -0.29512586226E+02  0.23955664591E+01  0.41347665275E+02  0.00000000000E+00 0.  1.
</event>
<event>
 8    1  0.2433390E-006  0.9118800E+02  0.7816164E-02  0.1184000E+00
        -11   -1    0    0    0    0  0.00000000000E+00  0.00000000000E+00  0.45593999997E+02  0.45594000000E+02  0.51100000000E-03 0. -1.
         11   -1    0    0    0    0 -0.00000000000E+00 -0.00000000000E+00 -0.45593999997E+02  0.45594000000E+02  0.51100000000E-03 0.  1.
         23    2    1    2    0    0 -0.66613381478E-15 -0.71054273576E-14  0.00000000000E+00  0.91188000000E+02  0.91188000000E+02 0.  0.
    9900012    2    3    3    0    0 -0.15217529828E+01  0.36647198618E+02 -0.32322510612E+01  0.54367077339E+02  0.39999984409E+02 0.  0.
        -12    1    3    3    0    0  0.15217529828E+01 -0.36647198618E+02  0.32322510612E+01  0.36820922661E+02  0.00000000000E+00 0.  1.
         11    1    4    4    0    0 -0.59767918201E+00  0.10897276590E+02  0.76396447162E+01  0.13321862825E+02  0.51100000000E-03 0. -1.
        -11    1    4    4    0    0 -0.51696242958E+01  0.18203984200E+02  0.77963240015E+01  0.20466868943E+02  0.51100000000E-03 0.  1.
        -12    1    4    4    0    0  0.42455504951E+01  0.75459378285E+01 -0.18668219779E+02  0.20578345571E+02  0.00000000000E+00 0.  1.
</event>
<event>
 8    1  0.2433390E-006  0.9118800E+02  0.7816164E-02  0.1184000E+00
        -11   -1    0    0    0    0  0.00000000000E+00  0.00000000000E+00  0.45593999997E+02  0.45594000000E+02  0.51100000000E-03 0. -1.
         11   -1    0    0    0    0 -0.00000000000E+00 -0.00000000000E+00 -0.45593999997E+02  0.45594000000E+02  0.51100000000E-03 0.  1.
         23    2    1    2    0    0  0.17763568394E-14 -0.35527136788E-14  0.00000000000E+00  0.91188000000E+02  0.91188000000E+02 0.  0.
    9900012    2    3    3    0    0  0.10583408089E+02 -0.23640852720E+02 -0.26170280635E+02  0.54367054431E+02  0.39999932187E+02 0.  0.
         12    1    3    3    0    0 -0.10583408089E+02  0.23640852720E+02  0.26170280635E+02  0.36820945569E+02  0.00000000000E+00 0. -1.
         11    1    4    4    0    0  0.96015679555E+01 -0.24497030789E+02 -0.22519367575E+02  0.34632593621E+02  0.51100000000E-03 0. -1.
        -11    1    4    4    0    0  0.39022238391E+01 -0.67439872725E+01 -0.74227204096E+01  0.10761296100E+02  0.51100000000E-03 0.  1.
         12    1    4    4    0    0 -0.29203837059E+01  0.76001653424E+01  0.37718073498E+01  0.89731647096E+01  0.00000000000E+00 0. -1.
</event>
<event>
 8    1  0.2433390E-006  0.9118800E+02  0.7816164E-02  0.1184000E+00
        -11   -1    0    0    0    0  0.00000000000E+00  0.00000000000E+00  0.45593999997E+02  0.45594000000E+02  0.51100000000E-03 0. -1.
         11   -1    0    0    0    0 -0.00000000000E+00 -0.00000000000E+00 -0.45593999997E+02  0.45594000000E+02  0.51100000000E-03 0.  1.
         23    2    1    2    0    0  0.00000000000E+00  0.00000000000E+00  0.00000000000E+00  0.91188000000E+02  0.91188000000E+02 0.  0.
    9900012    2    3    3    0    0  0.58494877073E+01  0.34289581151E+02 -0.12074217603E+02  0.54367100871E+02  0.40000038057E+02 0.  0.
         12    1    3    3    0    0 -0.58494877073E+01 -0.34289581151E+02  0.12074217603E+02  0.36820899129E+02  0.00000000000E+00 0. -1.
         11    1    4    4    0    0  0.74445529984E+01  0.14295777613E+02  0.73816326138E+01  0.17727919427E+02  0.51100000000E-03 0. -1.
        -11    1    4    4    0    0 -0.88939608478E+01  0.21714259119E+02 -0.13571349010E+02  0.27107067397E+02  0.51100000000E-03 0.  1.
        -12    1    4    4    0    0  0.72988955568E+01 -0.17204555819E+01 -0.58845012059E+01  0.95321140467E+01  0.00000000000E+00 0.  1.
</event>
<event>
 8    1  0.2433390E-006  0.9118800E+02  0.7816164E-02  0.1184000E+00
        -11   -1    0    0    0    0  0.00000000000E+00  0.00000000000E+00  0.45593999997E+02  0.45594000000E+02  0.51100000000E-03 0. -1.
         11   -1    0    0    0    0 -0.00000000000E+00 -0.00000000000E+00 -0.45593999997E+02  0.45594000000E+02  0.51100000000E-03 0.  1.
         23    2    1    2    0    0  0.35527136788E-14  0.00000000000E+00  0.35527136788E-14  0.91188000000E+02  0.91188000000E+02 0.  0.
    9900012    2    3    3    0    0  0.16462778549E+02  0.16758250716E+02  0.28353456526E+02  0.54367074678E+02  0.39999978342E+02 0.  0.
         12    1    3    3    0    0 -0.16462778549E+02 -0.16758250716E+02 -0.28353456526E+02  0.36820925322E+02  0.00000000000E+00 0. -1.
         11    1    4    4    0    0 -0.13914179320E+01  0.63669847731E+01  0.13971528868E+02  0.15416814137E+02  0.51100000000E-03 0. -1.
        -11    1    4    4    0    0 -0.28669812209E+01  0.12695229421E+02  0.12452027633E+02  0.18012257599E+02  0.51100000000E-03 0.  1.
         12    1    4    4    0    0  0.20721177702E+02 -0.23039634784E+01  0.19299000250E+01  0.20938002941E+02  0.00000000000E+00 0. -1.
</event>
<event>
 8    1  0.2433390E-006  0.9118800E+02  0.7816164E-02  0.1184000E+00
        -11   -1    0    0    0    0  0.00000000000E+00  0.00000000000E+00  0.45593999997E+02  0.45594000000E+02  0.51100000000E-03 0.  1.
         11   -1    0    0    0    0 -0.00000000000E+00 -0.00000000000E+00 -0.45593999997E+02  0.45594000000E+02  0.51100000000E-03 0. -1.
         23    2    1    2    0    0  0.00000000000E+00  0.00000000000E+00 -0.35527136788E-14  0.91188000000E+02  0.91188000000E+02 0.  0.
    9900012    2    3    3    0    0  0.12100161458E+02 -0.15178511797E+02  0.31288629270E+02  0.54367089510E+02  0.40000012157E+02 0.  0.
         12    1    3    3    0    0 -0.12100161458E+02  0.15178511797E+02 -0.31288629270E+02  0.36820910490E+02  0.00000000000E+00 0. -1.
         11    1    4    4    0    0  0.16582878000E+02 -0.31171652816E+01  0.16658133765E+02  0.23710798868E+02  0.51100000000E-03 0.  1.
        -11    1    4    4    0    0  0.79949587939E+01  0.47204151106E+00  0.91084131423E+01  0.12128700653E+02  0.51100000000E-03 0. -1.
         12    1    4    4    0    0 -0.12477675335E+02 -0.12533388026E+02  0.55220823634E+01  0.18527589989E+02  0.00000000000E+00 0. -1.
</event>
<event>
 8    1  0.2433390E-006  0.9118800E+02  0.7816164E-02  0.1184000E+00
        -11   -1    0    0    0    0  0.00000000000E+00  0.00000000000E+00  0.45593999997E+02  0.45594000000E+02  0.51100000000E-03 0.  1.
         11   -1    0    0    0    0 -0.00000000000E+00 -0.00000000000E+00 -0.45593999997E+02  0.45594000000E+02  0.51100000000E-03 0. -1.
         23    2    1    2    0    0  0.00000000000E+00  0.44408920985E-15  0.00000000000E+00  0.91188000000E+02  0.91188000000E+02 0.  0.
    9900012    2    3    3    0    0 -0.81496936780E+01 -0.29274907511E+01 -0.35788158068E+02  0.54367082480E+02  0.39999996130E+02 0.  0.
        -12    1    3    3    0    0  0.81496936780E+01  0.29274907511E+01  0.35788158068E+02  0.36820917520E+02  0.00000000000E+00 0.  1.
         11    1    4    4    0    0  0.31177509406E+01  0.36515105853E+01 -0.25766473278E+02  0.26210018046E+02  0.51100000000E-03 0. -1.
        -11    1    4    4    0    0 -0.57434045166E+01  0.69835668014E+01  0.19407147408E+01  0.92478794692E+01  0.51100000000E-03 0.  1.
         12    1    4    4    0    0 -0.55240401019E+01 -0.13562568138E+02 -0.11962399530E+02  0.18909184965E+02  0.00000000000E+00 0. -1.
</event>
<event>
 8    1  0.2433390E-006  0.9118800E+02  0.7816164E-02  0.1184000E+00
        -11   -1    0    0    0    0  0.00000000000E+00  0.00000000000E+00  0.45593999997E+02  0.45594000000E+02  0.51100000000E-03 0. -1.
         11   -1    0    0    0    0 -0.00000000000E+00 -0.00000000000E+00 -0.45593999997E+02  0.45594000000E+02  0.51100000000E-03 0.  1.
         23    2    1    2    0    0  0.00000000000E+00  0.17763568394E-14  0.00000000000E+00  0.91188000000E+02  0.91188000000E+02 0.  0.
    9900012    2    3    3    0    0  0.33842448738E+02 -0.10603106860E+02 -0.99016519928E+01  0.54367083066E+02  0.39999997466E+02 0.  0.
        -12    1    3    3    0    0 -0.33842448738E+02  0.10603106860E+02  0.99016519928E+01  0.36820916934E+02  0.00000000000E+00 0.  1.
         11    1    4    4    0    0  0.20577154959E+02  0.49799746549E+00 -0.12555200783E+02  0.24110171602E+02  0.51100000000E-03 0. -1.
        -11    1    4    4    0    0  0.10877333861E+02 -0.18901925137E+02  0.47712990365E+00  0.21813455000E+02  0.51100000000E-03 0.  1.
        -12    1    4    4    0    0  0.23879599172E+01  0.78008208119E+01  0.21764188866E+01  0.84434564650E+01  0.00000000000E+00 0.  1.
</event>
<event>
 8    1  0.2433390E-006  0.9118800E+02  0.7816164E-02  0.1184000E+00
        -11   -1    0    0    0    0  0.00000000000E+00  0.00000000000E+00  0.45593999997E+02  0.45594000000E+02  0.51100000000E-03 0.  1.
         11   -1    0    0    0    0 -0.00000000000E+00 -0.00000000000E+00 -0.45593999997E+02  0.45594000000E+02  0.51100000000E-03 0. -1.
         23    2    1    2    0    0  0.00000000000E+00 -0.35527136788E-14  0.13322676296E-14  0.91188000000E+02  0.91188000000E+02 0.  0.
    9900012    2    3    3    0    0 -0.20458437124E+02  0.30564521600E+02 -0.17441433819E+01  0.54367086563E+02  0.40000005438E+02 0.  0.
         12    1    3    3    0    0  0.20458437124E+02 -0.30564521600E+02  0.17441433819E+01  0.36820913437E+02  0.00000000000E+00 0. -1.
         11    1    4    4    0    0 -0.15961877632E+02 -0.25815359259E+01 -0.63670745145E+01  0.17377730100E+02  0.51100000000E-03 0. -1.
        -11    1    4    4    0    0 -0.98109661806E+01  0.19954096662E+02  0.48802422550E+01  0.22764836826E+02  0.51100000000E-03 0.  1.
         12    1    4    4    0    0  0.53144066893E+01  0.13191960864E+02 -0.25731112240E+00  0.14224519637E+02  0.00000000000E+00 0. -1.
</event>
<event>
 8    1  0.2433390E-006  0.9118800E+02  0.7816164E-02  0.1184000E+00
        -11   -1    0    0    0    0  0.00000000000E+00  0.00000000000E+00  0.45593999997E+02  0.45594000000E+02  0.51100000000E-03 0. -1.
         11   -1    0    0    0    0 -0.00000000000E+00 -0.00000000000E+00 -0.45593999997E+02  0.45594000000E+02  0.51100000000E-03 0.  1.
         23    2    1    2    0    0  0.00000000000E+00 -0.35527136788E-14 -0.88817841970E-15  0.91188000000E+02  0.91188000000E+02 0.  0.
    9900012    2    3    3    0    0  0.18380849776E+02 -0.31363488592E+02  0.58527386182E+01  0.54367100982E+02  0.40000038308E+02 0.  0.
        -12    1    3    3    0    0 -0.18380849776E+02  0.31363488592E+02 -0.58527386182E+01  0.36820899018E+02  0.00000000000E+00 0.  1.
         11    1    4    4    0    0  0.16488308475E+02 -0.25468781966E+02  0.13084607169E+02  0.33041339504E+02  0.51100000000E-03 0. -1.
        -11    1    4    4    0    0 -0.46677775952E+00 -0.10703758322E+02 -0.10540537376E+02  0.15029679043E+02  0.51100000000E-03 0.  1.
         12    1    4    4    0    0  0.23593190610E+01  0.48090516951E+01  0.33086688251E+01  0.62960824353E+01  0.00000000000E+00 0. -1.
</event>
<event>
 8    1  0.2433390E-006  0.9118800E+02  0.7816164E-02  0.1184000E+00
        -11   -1    0    0    0    0  0.00000000000E+00  0.00000000000E+00  0.45593999997E+02  0.45594000000E+02  0.51100000000E-03 0.  1.
         11   -1    0    0    0    0 -0.00000000000E+00 -0.00000000000E+00 -0.45593999997E+02  0.45594000000E+02  0.51100000000E-03 0. -1.
         23    2    1    2    0    0  0.00000000000E+00  0.00000000000E+00  0.00000000000E+00  0.91188000000E+02  0.91188000000E+02 0.  0.
    9900012    2    3    3    0    0  0.28450906080E+02 -0.48697758224E+01 -0.22860666130E+02  0.54367097930E+02  0.40000031352E+02 0.  0.
        -12    1    3    3    0    0 -0.28450906080E+02  0.48697758224E+01  0.22860666130E+02  0.36820902070E+02  0.00000000000E+00 0.  1.
         11    1    4    4    0    0  0.17833179190E+01 -0.75873374473E+01 -0.46629800022E+01  0.90824718608E+01  0.51100000000E-03 0. -1.
        -11    1    4    4    0    0  0.34095660462E+01  0.17496802546E+01  0.88231859320E+01  0.96195182763E+01  0.51100000000E-03 0.  1.
         12    1    4    4    0    0  0.23258022115E+02  0.96788137027E+00 -0.27020872060E+02  0.35665107793E+02  0.00000000000E+00 0. -1.
</event>
<event>
 8    1  0.2433390E-006  0.9118800E+02  0.7816164E-02  0.1184000E+00
        -11   -1    0    0    0    0  0.00000000000E+00  0.00000000000E+00  0.45593999997E+02  0.45594000000E+02  0.51100000000E-03 0. -1.
         11   -1    0    0    0    0 -0.00000000000E+00 -0.00000000000E+00 -0.45593999997E+02  0.45594000000E+02  0.51100000000E-03 0.  1.
         23    2    1    2    0    0 -0.71054273576E-14 -0.44408920985E-15 -0.17763568394E-14  0.91188000000E+02  0.91188000000E+02 0.  0.
    9900012    2    3    3    0    0  0.33116710103E+02 -0.24591474476E+01  0.15906458948E+02  0.54367091124E+02  0.40000015835E+02 0.  0.
        -12    1    3    3    0    0 -0.33116710103E+02  0.24591474476E+01 -0.15906458948E+02  0.36820908876E+02  0.00000000000E+00 0.  1.
         11    1    4    4    0    0  0.12937177663E+02  0.24641589317E+01  0.77227810540E+01  0.15267088544E+02  0.51100000000E-03 0. -1.
        -11    1    4    4    0    0 -0.20517795541E+01  0.10227970064E+02 -0.14325954191E+01  0.10529648658E+02  0.51100000000E-03 0.  1.
         12    1    4    4    0    0  0.22231311994E+02 -0.15151276443E+02  0.96162733131E+01  0.28570353922E+02  0.00000000000E+00 0. -1.
</event>
<event>
 8    1  0.2433390E-006  0.9118800E+02  0.7816164E-02  0.1184000E+00
        -11   -1    0    0    0    0  0.00000000000E+00  0.00000000000E+00  0.45593999997E+02  0.45594000000E+02  0.51100000000E-03 0. -1.
         11   -1    0    0    0    0 -0.00000000000E+00 -0.00000000000E+00 -0.45593999997E+02  0.45594000000E+02  0.51100000000E-03 0.  1.
         23    2    1    2    0    0  0.00000000000E+00  0.00000000000E+00  0.35527136788E-14  0.91188000000E+02  0.91188000000E+02 0.  0.
    9900012    2    3    3    0    0 -0.17360881640E+02  0.26477951014E+02  0.18796215110E+02  0.54367084698E+02  0.40000001186E+02 0.  0.
        -12    1    3    3    0    0  0.17360881640E+02 -0.26477951014E+02 -0.18796215110E+02  0.36820915302E+02  0.00000000000E+00 0.  1.
         11    1    4    4    0    0 -0.17369726529E+02  0.17681847605E+02  0.94944105642E+01  0.26542399414E+02  0.51100000000E-03 0. -1.
        -11    1    4    4    0    0  0.23125943915E+01  0.42581162803E+01 -0.82402174626E+01  0.95593321507E+01  0.51100000000E-03 0.  1.
        -12    1    4    4    0    0 -0.23037495024E+01  0.45379871284E+01  0.17542022008E+02  0.18265353133E+02  0.00000000000E+00 0.  1.
</event>
<event>
 8    1  0.2433390E-006  0.9118800E+02  0.7816164E-02  0.1184000E+00
        -11   -1    0    0    0    0  0.00000000000E+00  0.00000000000E+00  0.45593999997E+02  0.45594000000E+02  0.51100000000E-03 0.  1.
         11   -1    0    0    0    0 -0.00000000000E+00 -0.00000000000E+00 -0.45593999997E+02  0.45594000000E+02  0.51100000000E-03 0. -1.
         23    2    1    2    0    0  0.17763568394E-14 -0.88817841970E-15  0.00000000000E+00  0.91188000000E+02  0.91188000000E+02 0.  0.
    9900012    2    3    3    0    0 -0.10945362640E+02  0.44761692956E+01 -0.34870380976E+02  0.54367074913E+02  0.39999978879E+02 0.  0.
        -12    1    3    3    0    0  0.10945362640E+02 -0.44761692956E+01  0.34870380976E+02  0.36820925087E+02  0.00000000000E+00 0.  1.
         11    1    4    4    0    0 -0.54671008719E+01  0.75382210115E+01 -0.25410012877E+02  0.27062570511E+02  0.51100000000E-03 0. -1.
        -11    1    4    4    0    0  0.80089944622E+01  0.39265322946E+01 -0.81079756382E+01  0.12054083016E+02  0.51100000000E-03 0.  1.
         12    1    4    4    0    0 -0.13487256230E+02 -0.69885840105E+01 -0.13523924604E+01  0.15250421386E+02  0.00000000000E+00 0. -1.
</event>
<event>
 8    1  0.2433390E-006  0.9118800E+02  0.7816164E-02  0.1184000E+00
        -11   -1    0    0    0    0  0.00000000000E+00  0.00000000000E+00  0.45593999997E+02  0.45594000000E+02  0.51100000000E-03 0.  1.
         11   -1    0    0    0    0 -0.00000000000E+00 -0.00000000000E+00 -0.45593999997E+02  0.45594000000E+02  0.51100000000E-03 0. -1.
         23    2    1    2    0    0  0.00000000000E+00  0.00000000000E+00  0.00000000000E+00  0.91188000000E+02  0.91188000000E+02 0.  0.
    9900012    2    3    3    0    0 -0.19820427431E+02  0.20534322742E+02 -0.23265264684E+02  0.54367078029E+02  0.39999985982E+02 0.  0.
        -12    1    3    3    0    0  0.19820427431E+02 -0.20534322742E+02  0.23265264684E+02  0.36820921971E+02  0.00000000000E+00 0.  1.
         11    1    4    4    0    0 -0.69030661592E+01  0.13639094156E+02 -0.20257455520E+02  0.25377976992E+02  0.51100000000E-03 0. -1.
        -11    1    4    4    0    0 -0.13619086788E+02  0.36913772998E+01 -0.12559256741E+02  0.18890228200E+02  0.51100000000E-03 0.  1.
        -12    1    4    4    0    0  0.70172551624E+00  0.32038512856E+01  0.95514475769E+01  0.10098872837E+02  0.00000000000E+00 0.  1.
</event>
<event>
 8    1  0.2433390E-006  0.9118800E+02  0.7816164E-02  0.1184000E+00
        -11   -1    0    0    0    0  0.00000000000E+00  0.00000000000E+00  0.45593999997E+02  0.45594000000E+02  0.51100000000E-03 0. -1.
         11   -1    0    0    0    0 -0.00000000000E+00 -0.00000000000E+00 -0.45593999997E+02  0.45594000000E+02  0.51100000000E-03 0.  1.
         23    2    1    2    0    0  0.00000000000E+00  0.35527136788E-14  0.00000000000E+00  0.91188000000E+02  0.91188000000E+02 0.  0.
    9900012    2    3    3    0    0  0.20397613972E+01  0.12937432628E+02  0.34412649419E+02  0.54367241865E+02  0.40000359478E+02 0.  0.
        -12    1    3    3    0    0 -0.20397613972E+01 -0.12937432628E+02 -0.34412649419E+02  0.36820758135E+02  0.00000000000E+00 0.  1.
         11    1    4    4    0    0  0.90330620233E+01  0.16189432667E+01  0.68512321259E+01  0.11452360836E+02  0.51100000000E-03 0. -1.
        -11    1    4    4    0    0  0.34864494266E+01 -0.91121991849E+01  0.10311544186E+02  0.14195613666E+02  0.51100000000E-03 0.  1.
        -12    1    4    4    0    0 -0.10479750053E+02  0.20430688547E+02  0.17249873108E+02  0.28719267363E+02  0.00000000000E+00 0.  1.
</event>
<event>
 8    1  0.2433390E-006  0.9118800E+02  0.7816164E-02  0.1184000E+00
        -11   -1    0    0    0    0  0.00000000000E+00  0.00000000000E+00  0.45593999997E+02  0.45594000000E+02  0.51100000000E-03 0.  1.
         11   -1    0    0    0    0 -0.00000000000E+00 -0.00000000000E+00 -0.45593999997E+02  0.45594000000E+02  0.51100000000E-03 0. -1.
         23    2    1    2    0    0 -0.17763568394E-14  0.00000000000E+00  0.71054273576E-14  0.91188000000E+02  0.91188000000E+02 0.  0.
    9900012    2    3    3    0    0 -0.57463301542E+01  0.50411157949E+01  0.36018732047E+02  0.54367051927E+02  0.39999926477E+02 0.  0.
         12    1    3    3    0    0  0.57463301542E+01 -0.50411157949E+01 -0.36018732047E+02  0.36820948073E+02  0.00000000000E+00 0. -1.
         11    1    4    4    0    0 -0.96718043370E+01  0.74666590321E+01 -0.70672797567E+00  0.12239046569E+02  0.51100000000E-03 0. -1.
        -11    1    4    4    0    0 -0.42625847869E+01  0.58435204106E+01  0.64429387194E+01  0.96864761115E+01  0.51100000000E-03 0.  1.
         12    1    4    4    0    0  0.81880589697E+01 -0.82690636479E+01  0.30282521304E+02  0.32441529246E+02  0.00000000000E+00 0. -1.
</event>
<event>
 8    1  0.2433390E-006  0.9118800E+02  0.7816164E-02  0.1184000E+00
        -11   -1    0    0    0    0  0.00000000000E+00  0.00000000000E+00  0.45593999997E+02  0.45594000000E+02  0.51100000000E-03 0. -1.
         11   -1    0    0    0    0 -0.00000000000E+00 -0.00000000000E+00 -0.45593999997E+02  0.45594000000E+02  0.51100000000E-03 0.  1.
         23    2    1    2    0    0 -0.88817841970E-15  0.00000000000E+00 -0.35527136788E-14  0.91188000000E+02  0.91188000000E+02 0.  0.
    9900012    2    3    3    0    0 -0.56071760316E+01 -0.35799877574E+02  0.65351289627E+01  0.54367087900E+02  0.40000008485E+02 0.  0.
        -12    1    3    3    0    0  0.56071760316E+01  0.35799877574E+02 -0.65351289627E+01  0.36820912100E+02  0.00000000000E+00 0.  1.
         11    1    4    4    0    0 -0.26831149042E+01 -0.45822524757E+01 -0.98128564647E+01  0.11157432303E+02  0.51100000000E-03 0. -1.
        -11    1    4    4    0    0  0.69583962674E+01 -0.58202285334E+00 -0.26038519725E+00  0.69875482058E+01  0.51100000000E-03 0.  1.
         12    1    4    4    0    0 -0.98824573948E+01 -0.30635602244E+02  0.16608370625E+02  0.36222107391E+02  0.00000000000E+00 0. -1.
</event>
<event>
 8    1  0.2433390E-006  0.9118800E+02  0.7816164E-02  0.1184000E+00
        -11   -1    0    0    0    0  0.00000000000E+00  0.00000000000E+00  0.45593999997E+02  0.45594000000E+02  0.51100000000E-03 0.  1.
         11   -1    0    0    0    0 -0.00000000000E+00 -0.00000000000E+00 -0.45593999997E+02  0.45594000000E+02  0.51100000000E-03 0. -1.
         23    2    1    2    0    0  0.00000000000E+00 -0.35527136788E-14  0.00000000000E+00  0.91188000000E+02  0.91188000000E+02 0.  0.
    9900012    2    3    3    0    0 -0.18329101967E+02 -0.25524904700E+02  0.19191233794E+02  0.54367079406E+02  0.39999989122E+02 0.  0.
         12    1    3    3    0    0  0.18329101967E+02  0.25524904700E+02 -0.19191233794E+02  0.36820920594E+02  0.00000000000E+00 0. -1.
         11    1    4    4    0    0 -0.15253840791E+02 -0.15422480359E+02 -0.27895315587E+01  0.21870391992E+02  0.51100000000E-03 0. -1.
        -11    1    4    4    0    0 -0.68029048010E+01  0.33816814209E+01  0.15106306359E+02  0.16909044178E+02  0.51100000000E-03 0.  1.
        -12    1    4    4    0    0  0.37276436246E+01 -0.13484105762E+02  0.68744589937E+01  0.15587643236E+02  0.00000000000E+00 0.  1.
</event>
<event>
 8    1  0.2433390E-006  0.9118800E+02  0.7816164E-02  0.1184000E+00
        -11   -1    0    0    0    0  0.00000000000E+00  0.00000000000E+00  0.45593999997E+02  0.45594000000E+02  0.51100000000E-03 0.  1.
         11   -1    0    0    0    0 -0.00000000000E+00 -0.00000000000E+00 -0.45593999997E+02  0.45594000000E+02  0.51100000000E-03 0. -1.
         23    2    1    2    0    0  0.00000000000E+00  0.35527136788E-14  0.00000000000E+00  0.91188000000E+02  0.91188000000E+02 0.  0.
    9900012    2    3    3    0    0  0.41585190645E+01 -0.18370847003E+02  0.31638344040E+02  0.54367270594E+02  0.40000424971E+02 0.  0.
         12    1    3    3    0    0 -0.41585190645E+01  0.18370847003E+02 -0.31638344040E+02  0.36820729406E+02  0.00000000000E+00 0. -1.
         11    1    4    4    0    0 -0.14028329444E+01  0.42228604152E+00 -0.21210394833E+00  0.14802885248E+01  0.51100000000E-03 0. -1.
        -11    1    4    4    0    0  0.18628854493E+02  0.73493525710E+00  0.15718023193E+02  0.24385048757E+02  0.51100000000E-03 0.  1.
        -12    1    4    4    0    0 -0.13067502484E+02 -0.19528068301E+02  0.16132424795E+02  0.28501933312E+02  0.00000000000E+00 0.  1.
</event>
<event>
 8    1  0.2433390E-006  0.9118800E+02  0.7816164E-02  0.1184000E+00
        -11   -1    0    0    0    0  0.00000000000E+00  0.00000000000E+00  0.45593999997E+02  0.45594000000E+02  0.51100000000E-03 0.  1.
         11   -1    0    0    0    0 -0.00000000000E+00 -0.00000000000E+00 -0.45593999997E+02  0.45594000000E+02  0.51100000000E-03 0. -1.
         23    2    1    2    0    0  0.00000000000E+00  0.00000000000E+00  0.00000000000E+00  0.91188000000E+02  0.91188000000E+02 0.  0.
    9900012    2    3    3    0    0 -0.93180711640E+01  0.11059507345E+02 -0.33862072505E+02  0.54367094155E+02  0.40000022745E+02 0.  0.
        -12    1    3    3    0    0  0.93180711640E+01 -0.11059507345E+02  0.33862072505E+02  0.36820905845E+02  0.00000000000E+00 0.  1.
         11    1    4    4    0    0 -0.10922756722E+02 -0.70355326443E+01 -0.31491359870E+01  0.13368709426E+02  0.51100000000E-03 0. -1.
        -11    1    4    4    0    0 -0.46310473527E+01  0.19317052796E+02 -0.18093884974E+02  0.26869756270E+02  0.51100000000E-03 0.  1.
        -12    1    4    4    0    0  0.62357329108E+01 -0.12220128070E+01 -0.12619051544E+02  0.14128628458E+02  0.00000000000E+00 0.  1.
</event>
<event>
 8    1  0.2433390E-006  0.9118800E+02  0.7816164E-02  0.1184000E+00
        -11   -1    0    0    0    0  0.00000000000E+00  0.00000000000E+00  0.45593999997E+02  0.45594000000E+02  0.51100000000E-03 0. -1.
         11   -1    0    0    0    0 -0.00000000000E+00 -0.00000000000E+00 -0.45593999997E+02  0.45594000000E+02  0.51100000000E-03 0.  1.
         23    2    1    2    0    0 -0.17763568394E-14 -0.35527136788E-14  0.00000000000E+00  0.91188000000E+02  0.91188000000E+02 0.  0.
    9900012    2    3    3    0    0 -0.15091161225E+02  0.16345354483E+02  0.29340514483E+02  0.54367088137E+02  0.40000009026E+02 0.  0.
        -12    1    3    3    0    0  0.15091161225E+02 -0.16345354483E+02 -0.29340514483E+02  0.36820911863E+02  0.00000000000E+00 0.  1.
         11    1    4    4    0    0  0.78038629310E+01 -0.46428220594E+01  0.17369748070E+02  0.19600107693E+02  0.51100000000E-03 0. -1.
        -11    1    4    4    0    0 -0.24778534652E+01 -0.87567757605E+00  0.25671783616E+00  0.26405441334E+01  0.51100000000E-03 0.  1.
         12    1    4    4    0    0 -0.20417170691E+02  0.21863854119E+02  0.11714048576E+02  0.32126436310E+02  0.00000000000E+00 0. -1.
</event>
<event>
 8    1  0.2433390E-006  0.9118800E+02  0.7816164E-02  0.1184000E+00
        -11   -1    0    0    0    0  0.00000000000E+00  0.00000000000E+00  0.45593999997E+02  0.45594000000E+02  0.51100000000E-03 0.  1.
         11   -1    0    0    0    0 -0.00000000000E+00 -0.00000000000E+00 -0.45593999997E+02  0.45594000000E+02  0.51100000000E-03 0. -1.
         23    2    1    2    0    0  0.00000000000E+00  0.35527136788E-14  0.00000000000E+00  0.91188000000E+02  0.91188000000E+02 0.  0.
    9900012    2    3    3    0    0 -0.28001627082E+02  0.22340622025E+02  0.85196837991E+01  0.54367088499E+02  0.40000009851E+02 0.  0.
         12    1    3    3    0    0  0.28001627082E+02 -0.22340622025E+02 -0.85196837991E+01  0.36820911501E+02  0.00000000000E+00 0. -1.
         11    1    4    4    0    0 -0.21089497415E+02  0.17966657969E+02 -0.33944805694E+01  0.27912187273E+02  0.51100000000E-03 0. -1.
        -11    1    4    4    0    0 -0.17117497403E+01 -0.48525273857E+01  0.14640562352E+02  0.15518478516E+02  0.51100000000E-03 0.  1.
        -12    1    4    4    0    0 -0.52003799272E+01  0.92264914422E+01 -0.27263979834E+01  0.10936422710E+02  0.00000000000E+00 0.  1.
</event>
<event>
 8    1  0.2433390E-006  0.9118800E+02  0.7816164E-02  0.1184000E+00
        -11   -1    0    0    0    0  0.00000000000E+00  0.00000000000E+00  0.45593999997E+02  0.45594000000E+02  0.51100000000E-03 0. -1.
         11   -1    0    0    0    0 -0.00000000000E+00 -0.00000000000E+00 -0.45593999997E+02  0.45594000000E+02  0.51100000000E-03 0.  1.
         23    2    1    2    0    0  0.00000000000E+00  0.00000000000E+00  0.00000000000E+00  0.91188000000E+02  0.91188000000E+02 0.  0.
    9900012    2    3    3    0    0 -0.31916184302E+02  0.94966198119E+01 -0.15714676379E+02  0.54367086623E+02  0.40000005573E+02 0.  0.
         12    1    3    3    0    0  0.31916184302E+02 -0.94966198119E+01  0.15714676379E+02  0.36820913377E+02  0.00000000000E+00 0. -1.
         11    1    4    4    0    0  0.50672590152E+01 -0.51861389110E+01 -0.69788686438E+01  0.10063685137E+02  0.51100000000E-03 0. -1.
        -11    1    4    4    0    0 -0.30995804514E+01 -0.10832540856E+01 -0.59894519072E+01  0.68304006324E+01  0.51100000000E-03 0.  1.
        -12    1    4    4    0    0 -0.33883862866E+02  0.15766012808E+02 -0.27463558276E+01  0.37473000853E+02  0.00000000000E+00 0.  1.
</event>
<event>
 8    1  0.2433390E-006  0.9118800E+02  0.7816164E-02  0.1184000E+00
        -11   -1    0    0    0    0  0.00000000000E+00  0.00000000000E+00  0.45593999997E+02  0.45594000000E+02  0.51100000000E-03 0. -1.
         11   -1    0    0    0    0 -0.00000000000E+00 -0.00000000000E+00 -0.45593999997E+02  0.45594000000E+02  0.51100000000E-03 0.  1.
         23    2    1    2    0    0  0.88817841970E-15  0.00000000000E+00 -0.71054273576E-14  0.91188000000E+02  0.91188000000E+02 0.  0.
    9900012    2    3    3    0    0  0.37126514880E+01 -0.13930493742E+02  0.33881248260E+02  0.54367062741E+02  0.39999951130E+02 0.  0.
        -12    1    3    3    0    0 -0.37126514880E+01  0.13930493742E+02 -0.33881248260E+02  0.36820937259E+02  0.00000000000E+00 0.  1.
         11    1    4    4    0    0 -0.87672064754E+01 -0.10838687538E+02  0.14726176798E+02  0.20278100016E+02  0.51100000000E-03 0.  1.
        -11    1    4    4    0    0  0.17076711220E+02 -0.13156343284E+01  0.22393227812E+02  0.28192226089E+02  0.51100000000E-03 0. -1.
         12    1    4    4    0    0 -0.45968532567E+01 -0.17761718760E+01 -0.32381563499E+01  0.58967366350E+01  0.00000000000E+00 0. -1.
</event>
<event>
 8    1  0.2433390E-006  0.9118800E+02  0.7816164E-02  0.1184000E+00
        -11   -1    0    0    0    0  0.00000000000E+00  0.00000000000E+00  0.45593999997E+02  0.45594000000E+02  0.51100000000E-03 0. -1.
         11   -1    0    0    0    0 -0.00000000000E+00 -0.00000000000E+00 -0.45593999997E+02  0.45594000000E+02  0.51100000000E-03 0.  1.
         23    2    1    2    0    0  0.00000000000E+00  0.00000000000E+00  0.00000000000E+00  0.91188000000E+02  0.91188000000E+02 0.  0.
    9900012    2    3    3    0    0  0.54496703473E+01 -0.27722067236E+02  0.23612859676E+02  0.54367094786E+02  0.40000024183E+02 0.  0.
        -12    1    3    3    0    0 -0.54496703473E+01  0.27722067236E+02 -0.23612859676E+02  0.36820905214E+02  0.00000000000E+00 0.  1.
         11    1    4    4    0    0  0.73514511852E+01 -0.33670816571E+02  0.25856359805E+02  0.43085021361E+02  0.51100000000E-03 0. -1.
        -11    1    4    4    0    0  0.13609211181E+01 -0.17751510725E+01 -0.18250819849E+01  0.28869000905E+01  0.51100000000E-03 0.  1.
         12    1    4    4    0    0 -0.32627019561E+01  0.77239004076E+01 -0.41841814361E+00  0.83951733337E+01  0.00000000000E+00 0. -1.
</event>
<event>
 8    1  0.2433390E-006  0.9118800E+02  0.7816164E-02  0.1184000E+00
        -11   -1    0    0    0    0  0.00000000000E+00  0.00000000000E+00  0.45593999997E+02  0.45594000000E+02  0.51100000000E-03 0.  1.
         11   -1    0    0    0    0 -0.00000000000E+00 -0.00000000000E+00 -0.45593999997E+02  0.45594000000E+02  0.51100000000E-03 0. -1.
         23    2    1    2    0    0 -0.44408920985E-15  0.00000000000E+00  0.00000000000E+00  0.91188000000E+02  0.91188000000E+02 0.  0.
    9900012    2    3    3    0    0 -0.38313592092E+01 -0.21412057364E+01  0.36558390488E+02  0.54367082161E+02  0.39999995403E+02 0.  0.
         12    1    3    3    0    0  0.38313592092E+01  0.21412057364E+01 -0.36558390488E+02  0.36820917839E+02  0.00000000000E+00 0. -1.
         11    1    4    4    0    0 -0.44791580150E+01 -0.48753820895E+01  0.22929725639E+01  0.70064206612E+01  0.51100000000E-03 0. -1.
        -11    1    4    4    0    0 -0.60009445269E+01  0.16188807615E+02  0.14520505143E+02  0.22559563318E+02  0.51100000000E-03 0.  1.
         12    1    4    4    0    0  0.66487433326E+01 -0.13454631262E+02  0.19744912782E+02  0.24801098183E+02  0.00000000000E+00 0. -1.
</event>
<event>
 8    1  0.2433390E-006  0.9118800E+02  0.7816164E-02  0.1184000E+00
        -11   -1    0    0    0    0  0.00000000000E+00  0.00000000000E+00  0.45593999997E+02  0.45594000000E+02  0.51100000000E-03 0. -1.
         11   -1    0    0    0    0 -0.00000000000E+00 -0.00000000000E+00 -0.45593999997E+02  0.45594000000E+02  0.51100000000E-03 0.  1.
         23    2    1    2    0    0 -0.71054273576E-14  0.88817841970E-15 -0.35527136788E-14  0.91188000000E+02  0.91188000000E+02 0.  0.
    9900012    2    3    3    0    0  0.26588761553E+02 -0.15449500802E+01  0.25424889492E+02  0.54367161915E+02  0.40000177216E+02 0.  0.
        -12    1    3    3    0    0 -0.26588761553E+02  0.15449500802E+01 -0.25424889492E+02  0.36820838085E+02  0.00000000000E+00 0.  1.
         11    1    4    4    0    0 -0.95022565228E+00  0.50334197332E+01  0.76531945387E+00  0.51791849869E+01  0.51100000000E-03 0. -1.
        -11    1    4    4    0    0  0.11513496209E+02  0.12707012246E+01 -0.64985523701E+01  0.13281809355E+02  0.51100000000E-03 0.  1.
         12    1    4    4    0    0  0.16025490995E+02 -0.78490710380E+01  0.31158122408E+02  0.35906167573E+02  0.00000000000E+00 0. -1.
</event>
<event>
 8    1  0.2433390E-006  0.9118800E+02  0.7816164E-02  0.1184000E+00
        -11   -1    0    0    0    0  0.00000000000E+00  0.00000000000E+00  0.45593999997E+02  0.45594000000E+02  0.51100000000E-03 0.  1.
         11   -1    0    0    0    0 -0.00000000000E+00 -0.00000000000E+00 -0.45593999997E+02  0.45594000000E+02  0.51100000000E-03 0. -1.
         23    2    1    2    0    0 -0.88817841970E-15 -0.35527136788E-14  0.00000000000E+00  0.91188000000E+02  0.91188000000E+02 0.  0.
    9900012    2    3    3    0    0  0.76642482253E+01  0.31943668438E+02  0.16632477988E+02  0.54367109488E+02  0.40000057699E+02 0.  0.
         12    1    3    3    0    0 -0.76642482253E+01 -0.31943668438E+02 -0.16632477988E+02  0.36820890512E+02  0.00000000000E+00 0. -1.
         11    1    4    4    0    0  0.12261219034E+02  0.15780548324E+02  0.10228765886E+02  0.22449740520E+02  0.51100000000E-03 0. -1.
        -11    1    4    4    0    0 -0.38951235947E+01  0.20680356077E+02  0.12362857456E+02  0.24406748248E+02  0.51100000000E-03 0.  1.
         12    1    4    4    0    0 -0.70184721401E+00 -0.45172359632E+01 -0.59591453535E+01  0.75106207203E+01  0.00000000000E+00 0. -1.
</event>
<event>
 8    1  0.2433390E-006  0.9118800E+02  0.7816164E-02  0.1184000E+00
        -11   -1    0    0    0    0  0.00000000000E+00  0.00000000000E+00  0.45593999997E+02  0.45594000000E+02  0.51100000000E-03 0. -1.
         11   -1    0    0    0    0 -0.00000000000E+00 -0.00000000000E+00 -0.45593999997E+02  0.45594000000E+02  0.51100000000E-03 0.  1.
         23    2    1    2    0    0 -0.35527136788E-14 -0.88817841970E-15  0.35527136788E-14  0.91188000000E+02  0.91188000000E+02 0.  0.
    9900012    2    3    3    0    0  0.31299208579E+02  0.55047765250E+01 -0.18596685490E+02  0.54367085652E+02  0.40000003360E+02 0.  0.
         12    1    3    3    0    0 -0.31299208579E+02 -0.55047765250E+01  0.18596685490E+02  0.36820914348E+02  0.00000000000E+00 0. -1.
         11    1    4    4    0    0  0.44995213340E+01  0.83777447530E+01 -0.61489709313E+01  0.11324404759E+02  0.51100000000E-03 0. -1.
        -11    1    4    4    0    0  0.76870003869E+01  0.12337109602E+02 -0.11607766084E+02  0.18602002097E+02  0.51100000000E-03 0.  1.
         12    1    4    4    0    0  0.19112686858E+02 -0.15210077830E+02 -0.83994847484E+00  0.24440678795E+02  0.00000000000E+00 0. -1.
</event>
<event>
 8    1  0.2433390E-006  0.9118800E+02  0.7816164E-02  0.1184000E+00
        -11   -1    0    0    0    0  0.00000000000E+00  0.00000000000E+00  0.45593999997E+02  0.45594000000E+02  0.51100000000E-03 0.  1.
         11   -1    0    0    0    0 -0.00000000000E+00 -0.00000000000E+00 -0.45593999997E+02  0.45594000000E+02  0.51100000000E-03 0. -1.
         23    2    1    2    0    0  0.00000000000E+00 -0.88817841970E-15  0.00000000000E+00  0.91188000000E+02  0.91188000000E+02 0.  0.
    9900012    2    3    3    0    0 -0.23599622968E+02 -0.59549945345E+00 -0.28257444946E+02  0.54367081778E+02  0.39999994530E+02 0.  0.
        -12    1    3    3    0    0  0.23599622968E+02  0.59549945345E+00  0.28257444946E+02  0.36820918222E+02  0.00000000000E+00 0.  1.
         11    1    4    4    0    0 -0.27364335335E+01 -0.22682667532E+01 -0.19638325843E+02  0.19957378203E+02  0.51100000000E-03 0. -1.
        -11    1    4    4    0    0 -0.86240988593E+01 -0.10344851115E+02 -0.10605095566E+02  0.17142318337E+02  0.51100000000E-03 0.  1.
        -12    1    4    4    0    0 -0.12239090575E+02  0.12017618415E+02  0.19859764633E+01  0.17267385239E+02  0.00000000000E+00 0.  1.
</event>
<event>
 8    1  0.2433390E-006  0.9118800E+02  0.7816164E-02  0.1184000E+00
        -11   -1    0    0    0    0  0.00000000000E+00  0.00000000000E+00  0.45593999997E+02  0.45594000000E+02  0.51100000000E-03 0.  1.
         11   -1    0    0    0    0 -0.00000000000E+00 -0.00000000000E+00 -0.45593999997E+02  0.45594000000E+02  0.51100000000E-03 0. -1.
         23    2    1    2    0    0  0.35527136788E-14  0.00000000000E+00 -0.26645352591E-14  0.91188000000E+02  0.91188000000E+02 0.  0.
    9900012    2    3    3    0    0 -0.19837910539E+02  0.30742965080E+02 -0.41360318751E+01  0.54367090775E+02  0.40000015040E+02 0.  0.
        -12    1    3    3    0    0  0.19837910539E+02 -0.30742965080E+02  0.41360318751E+01  0.36820909225E+02  0.00000000000E+00 0.  1.
         11    1    4    4    0    0 -0.29409052957E+01  0.16913844404E+02 -0.12957990280E+02  0.21508988094E+02  0.51100000000E-03 0. -1.
        -11    1    4    4    0    0 -0.62475282542E+01  0.18040303911E+02  0.96204408730E+01  0.21378425044E+02  0.51100000000E-03 0.  1.
         12    1    4    4    0    0 -0.10649476990E+02 -0.42111832355E+01 -0.79848246786E+00  0.11479677637E+02  0.00000000000E+00 0. -1.
</event>
<event>
 8    1  0.2433390E-006  0.9118800E+02  0.7816164E-02  0.1184000E+00
        -11   -1    0    0    0    0  0.00000000000E+00  0.00000000000E+00  0.45593999997E+02  0.45594000000E+02  0.51100000000E-03 0.  1.
         11   -1    0    0    0    0 -0.00000000000E+00 -0.00000000000E+00 -0.45593999997E+02  0.45594000000E+02  0.51100000000E-03 0. -1.
         23    2    1    2    0    0  0.00000000000E+00  0.00000000000E+00  0.88817841970E-15  0.91188000000E+02  0.91188000000E+02 0.  0.
    9900012    2    3    3    0    0  0.35975916196E+02 -0.40808647464E+01 -0.66976856488E+01  0.54367095662E+02  0.40000026181E+02 0.  0.
        -12    1    3    3    0    0 -0.35975916196E+02  0.40808647464E+01  0.66976856488E+01  0.36820904338E+02  0.00000000000E+00 0.  1.
         11    1    4    4    0    0  0.12363761991E+02 -0.46899202451E+01 -0.35478723629E+01  0.13691068659E+02  0.51100000000E-03 0.  1.
        -11    1    4    4    0    0  0.31644385157E+02  0.19047698901E+01 -0.55707882267E+01  0.32187403468E+02  0.51100000000E-03 0. -1.
        -12    1    4    4    0    0 -0.80322309520E+01 -0.12957143915E+01  0.24209749408E+01  0.84886235348E+01  0.00000000000E+00 0.  1.
</event>
<event>
 8    1  0.2433390E-006  0.9118800E+02  0.7816164E-02  0.1184000E+00
        -11   -1    0    0    0    0  0.00000000000E+00  0.00000000000E+00  0.45593999997E+02  0.45594000000E+02  0.51100000000E-03 0.  1.
         11   -1    0    0    0    0 -0.00000000000E+00 -0.00000000000E+00 -0.45593999997E+02  0.45594000000E+02  0.51100000000E-03 0. -1.
         23    2    1    2    0    0  0.00000000000E+00  0.35527136788E-14 -0.88817841970E-15  0.91188000000E+02  0.91188000000E+02 0.  0.
    9900012    2    3    3    0    0 -0.25933035674E+02  0.25670171650E+02 -0.49294453123E+01  0.54367089054E+02  0.40000011117E+02 0.  0.
        -12    1    3    3    0    0  0.25933035674E+02 -0.25670171650E+02  0.49294453123E+01  0.36820910946E+02  0.00000000000E+00 0.  1.
         11    1    4    4    0    0 -0.53323184984E+01  0.20082119217E+02  0.31396277617E+01  0.21013861985E+02  0.51100000000E-03 0. -1.
        -11    1    4    4    0    0 -0.14791420405E+02  0.12493515336E+01 -0.16525808365E+02  0.22213719617E+02  0.51100000000E-03 0.  1.
        -12    1    4    4    0    0 -0.58092967710E+01  0.43387008995E+01  0.84567352915E+01  0.11139507451E+02  0.00000000000E+00 0.  1.
</event>
<event>
 8    1  0.2433390E-006  0.9118800E+02  0.7816164E-02  0.1184000E+00
        -11   -1    0    0    0    0  0.00000000000E+00  0.00000000000E+00  0.45593999997E+02  0.45594000000E+02  0.51100000000E-03 0.  1.
         11   -1    0    0    0    0 -0.00000000000E+00 -0.00000000000E+00 -0.45593999997E+02  0.45594000000E+02  0.51100000000E-03 0. -1.
         23    2    1    2    0    0 -0.14210854715E-13 -0.17763568394E-14 -0.38857805862E-15  0.91188000000E+02  0.91188000000E+02 0.  0.
    9900012    2    3    3    0    0  0.36506828870E+02  0.47751314518E+01 -0.48100836540E+00  0.54367057541E+02  0.39999939275E+02 0.  0.
        -12    1    3    3    0    0 -0.36506828870E+02 -0.47751314518E+01  0.48100836540E+00  0.36820942459E+02  0.00000000000E+00 0.  1.
         11    1    4    4    0    0 -0.73755928711E+00  0.62608544160E+01 -0.18674155028E+01  0.65749169304E+01  0.51100000000E-03 0.  1.
        -11    1    4    4    0    0  0.47771145592E+01  0.97869493772E+01  0.70311727567E+01  0.12963124323E+02  0.51100000000E-03 0. -1.
        -12    1    4    4    0    0  0.32467273598E+02 -0.11272672341E+02 -0.56447656193E+01  0.34829016287E+02  0.00000000000E+00 0.  1.
</event>
<event>
 8    1  0.2433390E-006  0.9118800E+02  0.7816164E-02  0.1184000E+00
        -11   -1    0    0    0    0  0.00000000000E+00  0.00000000000E+00  0.45593999997E+02  0.45594000000E+02  0.51100000000E-03 0. -1.
         11   -1    0    0    0    0 -0.00000000000E+00 -0.00000000000E+00 -0.45593999997E+02  0.45594000000E+02  0.51100000000E-03 0.  1.
         23    2    1    2    0    0  0.00000000000E+00 -0.35527136788E-14  0.00000000000E+00  0.91188000000E+02  0.91188000000E+02 0.  0.
    9900012    2    3    3    0    0 -0.18068696988E+02  0.31602073471E+02  0.55326970799E+01  0.54367087526E+02  0.40000007632E+02 0.  0.
         12    1    3    3    0    0  0.18068696988E+02 -0.31602073471E+02 -0.55326970799E+01  0.36820912474E+02  0.00000000000E+00 0. -1.
         11    1    4    4    0    0 -0.10927196232E+02  0.45079697240E+01  0.12617953732E+02  0.17289828373E+02  0.51100000000E-03 0. -1.
        -11    1    4    4    0    0 -0.12806850793E+02  0.60405959631E+01 -0.24403717226E-01  0.14159972550E+02  0.51100000000E-03 0.  1.
         12    1    4    4    0    0  0.56653500371E+01  0.21053507783E+02 -0.70608529353E+01  0.22917286602E+02  0.00000000000E+00 0. -1.
</event>
<event>
 8    1  0.2433390E-006  0.9118800E+02  0.7816164E-02  0.1184000E+00
        -11   -1    0    0    0    0  0.00000000000E+00  0.00000000000E+00  0.45593999997E+02  0.45594000000E+02  0.51100000000E-03 0.  1.
         11   -1    0    0    0    0 -0.00000000000E+00 -0.00000000000E+00 -0.45593999997E+02  0.45594000000E+02  0.51100000000E-03 0. -1.
         23    2    1    2    0    0  0.00000000000E+00 -0.17763568394E-14 -0.35527136788E-14  0.91188000000E+02  0.91188000000E+02 0.  0.
    9900012    2    3    3    0    0  0.25980801406E+02  0.11703839652E+02 -0.23319418050E+02  0.54367120563E+02  0.40000082948E+02 0.  0.
        -12    1    3    3    0    0 -0.25980801406E+02 -0.11703839652E+02  0.23319418050E+02  0.36820879437E+02  0.00000000000E+00 0.  1.
         11    1    4    4    0    0  0.12752021733E+02  0.13355709820E+02 -0.15103168939E+02  0.23855706976E+02  0.51100000000E-03 0. -1.
        -11    1    4    4    0    0  0.26300406767E+01 -0.43643494742E+01  0.88660702166E+01  0.10226038414E+02  0.51100000000E-03 0.  1.
        -12    1    4    4    0    0  0.10598738997E+02  0.27124793062E+01 -0.17082319328E+02  0.20285375173E+02  0.00000000000E+00 0.  1.
</event>
<event>
 8    1  0.2433390E-006  0.9118800E+02  0.7816164E-02  0.1184000E+00
        -11   -1    0    0    0    0  0.00000000000E+00  0.00000000000E+00  0.45593999997E+02  0.45594000000E+02  0.51100000000E-03 0. -1.
         11   -1    0    0    0    0 -0.00000000000E+00 -0.00000000000E+00 -0.45593999997E+02  0.45594000000E+02  0.51100000000E-03 0.  1.
         23    2    1    2    0    0 -0.88817841970E-15 -0.17763568394E-14 -0.14210854715E-13  0.91188000000E+02  0.91188000000E+02 0.  0.
    9900012    2    3    3    0    0 -0.25980292920E+01 -0.64789431580E+01 -0.36153197618E+02  0.54367079878E+02  0.39999990198E+02 0.  0.
         12    1    3    3    0    0  0.25980292920E+01  0.64789431580E+01  0.36153197618E+02  0.36820920122E+02  0.00000000000E+00 0. -1.
         11    1    4    4    0    0  0.18612593720E+01 -0.50955659557E+00 -0.25886898400E+01  0.32288155294E+01  0.51100000000E-03 0. -1.
        -11    1    4    4    0    0 -0.27376778656E+01  0.28912817781E+00 -0.41100279021E+02  0.41192370787E+02  0.51100000000E-03 0.  1.
         12    1    4    4    0    0 -0.17216107983E+01 -0.62585147402E+01  0.75357712438E+01  0.99458935614E+01  0.00000000000E+00 0. -1.
</event>
<event>
 8    1  0.2433390E-006  0.9118800E+02  0.7816164E-02  0.1184000E+00
        -11   -1    0    0    0    0  0.00000000000E+00  0.00000000000E+00  0.45593999997E+02  0.45594000000E+02  0.51100000000E-03 0.  1.
         11   -1    0    0    0    0 -0.00000000000E+00 -0.00000000000E+00 -0.45593999997E+02  0.45594000000E+02  0.51100000000E-03 0. -1.
         23    2    1    2    0    0  0.00000000000E+00  0.00000000000E+00  0.00000000000E+00  0.91188000000E+02  0.91188000000E+02 0.  0.
    9900012    2    3    3    0    0  0.47252828880E+01 -0.32309597651E+02 -0.17015988617E+02  0.54367051243E+02  0.39999924918E+02 0.  0.
         12    1    3    3    0    0 -0.47252828880E+01  0.32309597651E+02  0.17015988617E+02  0.36820948757E+02  0.00000000000E+00 0. -1.
         11    1    4    4    0    0 -0.64451191331E+01 -0.21940486422E+01 -0.84051546162E+01  0.10816655420E+02  0.51100000000E-03 0. -1.
        -11    1    4    4    0    0 -0.90397324872E+01 -0.13504521339E+02 -0.89391856327E+00  0.16275378665E+02  0.51100000000E-03 0.  1.
         12    1    4    4    0    0  0.20210134508E+02 -0.16611027670E+02 -0.77169154374E+01  0.27275017158E+02  0.00000000000E+00 0. -1.
</event>
<event>
 8    1  0.2433390E-006  0.9118800E+02  0.7816164E-02  0.1184000E+00
        -11   -1    0    0    0    0  0.00000000000E+00  0.00000000000E+00  0.45593999997E+02  0.45594000000E+02  0.51100000000E-03 0.  1.
         11   -1    0    0    0    0 -0.00000000000E+00 -0.00000000000E+00 -0.45593999997E+02  0.45594000000E+02  0.51100000000E-03 0. -1.
         23    2    1    2    0    0  0.35527136788E-14 -0.13877787808E-14  0.00000000000E+00  0.91188000000E+02  0.91188000000E+02 0.  0.
    9900012    2    3    3    0    0 -0.16221253222E+02  0.46250879091E+00  0.33052037306E+02  0.54367080124E+02  0.39999990758E+02 0.  0.
         12    1    3    3    0    0  0.16221253222E+02 -0.46250879091E+00 -0.33052037306E+02  0.36820919876E+02  0.00000000000E+00 0. -1.
         11    1    4    4    0    0  0.64984288621E+01  0.10362466282E+02  0.73150997119E+01  0.14252051402E+02  0.51100000000E-03 0. -1.
        -11    1    4    4    0    0 -0.97203592739E+01 -0.48334905529E+01  0.18245826106E-01  0.10855797921E+02  0.51100000000E-03 0.  1.
        -12    1    4    4    0    0 -0.12999322810E+02 -0.50664669381E+01  0.25718691768E+02  0.29259230800E+02  0.00000000000E+00 0.  1.
</event>
<event>
 8    1  0.2433390E-006  0.9118800E+02  0.7816164E-02  0.1184000E+00
        -11   -1    0    0    0    0  0.00000000000E+00  0.00000000000E+00  0.45593999997E+02  0.45594000000E+02  0.51100000000E-03 0.  1.
         11   -1    0    0    0    0 -0.00000000000E+00 -0.00000000000E+00 -0.45593999997E+02  0.45594000000E+02  0.51100000000E-03 0. -1.
         23    2    1    2    0    0 -0.17763568394E-14  0.00000000000E+00  0.00000000000E+00  0.91188000000E+02  0.91188000000E+02 0.  0.
    9900012    2    3    3    0    0  0.12413520258E+02  0.12444368355E+02 -0.32354621389E+02  0.54367091345E+02  0.40000016339E+02 0.  0.
        -12    1    3    3    0    0 -0.12413520258E+02 -0.12444368355E+02  0.32354621389E+02  0.36820908655E+02  0.00000000000E+00 0.  1.
         11    1    4    4    0    0  0.55889913534E+01  0.79792060701E+01 -0.19190294264E+02  0.21521429972E+02  0.51100000000E-03 0. -1.
        -11    1    4    4    0    0  0.11186662414E+02  0.10751380094E+02  0.22103730007E+01  0.15672247412E+02  0.51100000000E-03 0.  1.
         12    1    4    4    0    0 -0.43621335089E+01 -0.62862178092E+01 -0.15374700126E+02  0.17173413961E+02  0.00000000000E+00 0. -1.
</event>
<event>
 8    1  0.2433390E-006  0.9118800E+02  0.7816164E-02  0.1184000E+00
        -11   -1    0    0    0    0  0.00000000000E+00  0.00000000000E+00  0.45593999997E+02  0.45594000000E+02  0.51100000000E-03 0.  1.
         11   -1    0    0    0    0 -0.00000000000E+00 -0.00000000000E+00 -0.45593999997E+02  0.45594000000E+02  0.51100000000E-03 0. -1.
         23    2    1    2    0    0  0.00000000000E+00  0.00000000000E+00 -0.17763568394E-14  0.91188000000E+02  0.91188000000E+02 0.  0.
    9900012    2    3    3    0    0  0.31791562445E+02  0.13159400337E+02  0.13111248274E+02  0.54367107952E+02  0.40000054198E+02 0.  0.
         12    1    3    3    0    0 -0.31791562445E+02 -0.13159400337E+02 -0.13111248274E+02  0.36820892048E+02  0.00000000000E+00 0. -1.
         11    1    4    4    0    0  0.19988687356E+02  0.20274007938E+01  0.96628278942E+01  0.22294129706E+02  0.51100000000E-03 0. -1.
        -11    1    4    4    0    0  0.17676111041E+02  0.59710354924E+01  0.10615965998E+02  0.21466180394E+02  0.51100000000E-03 0.  1.
         12    1    4    4    0    0 -0.58732359517E+01  0.51609640511E+01 -0.71675456185E+01  0.10606797852E+02  0.00000000000E+00 0. -1.
</event>
<event>
 8    1  0.2433390E-006  0.9118800E+02  0.7816164E-02  0.1184000E+00
        -11   -1    0    0    0    0  0.00000000000E+00  0.00000000000E+00  0.45593999997E+02  0.45594000000E+02  0.51100000000E-03 0.  1.
         11   -1    0    0    0    0 -0.00000000000E+00 -0.00000000000E+00 -0.45593999997E+02  0.45594000000E+02  0.51100000000E-03 0. -1.
         23    2    1    2    0    0  0.44408920985E-15 -0.17763568394E-14  0.71054273576E-14  0.91188000000E+02  0.91188000000E+02 0.  0.
    9900012    2    3    3    0    0 -0.21808660325E+01 -0.81555462693E+01 -0.35840081540E+02  0.54367074477E+02  0.39999977884E+02 0.  0.
        -12    1    3    3    0    0  0.21808660325E+01  0.81555462693E+01  0.35840081540E+02  0.36820925523E+02  0.00000000000E+00 0.  1.
         11    1    4    4    0    0 -0.14473841881E+01 -0.25116659645E+01 -0.29777342641E+02  0.29918113609E+02  0.51100000000E-03 0. -1.
        -11    1    4    4    0    0 -0.92095417953E+01  0.21592106050E+01  0.28540625222E+01  0.98804617128E+01  0.51100000000E-03 0.  1.
        -12    1    4    4    0    0  0.84760599509E+01 -0.78030909098E+01 -0.89168014218E+01  0.14568499155E+02  0.00000000000E+00 0.  1.
</event>
<event>
 8    1  0.2433390E-006  0.9118800E+02  0.7816164E-02  0.1184000E+00
        -11   -1    0    0    0    0  0.00000000000E+00  0.00000000000E+00  0.45593999997E+02  0.45594000000E+02  0.51100000000E-03 0.  1.
         11   -1    0    0    0    0 -0.00000000000E+00 -0.00000000000E+00 -0.45593999997E+02  0.45594000000E+02  0.51100000000E-03 0. -1.
         23    2    1    2    0    0 -0.11102230246E-15  0.00000000000E+00  0.35527136788E-14  0.91188000000E+02  0.91188000000E+02 0.  0.
    9900012    2    3    3    0    0  0.90472883432E+00 -0.28293720240E+02 -0.23546280290E+02  0.54367075857E+02  0.39999981031E+02 0.  0.
        -12    1    3    3    0    0 -0.90472883432E+00  0.28293720240E+02  0.23546280290E+02  0.36820924143E+02  0.00000000000E+00 0.  1.
         11    1    4    4    0    0 -0.13982187547E+01 -0.18289106851E+02 -0.20033802166E+02  0.27162468124E+02  0.51100000000E-03 0. -1.
        -11    1    4    4    0    0  0.37606637911E+01 -0.14837101248E+02 -0.10516770199E+02  0.18571069471E+02  0.51100000000E-03 0.  1.
        -12    1    4    4    0    0 -0.14577162021E+01  0.48324878600E+01  0.70042920754E+01  0.86335382620E+01  0.00000000000E+00 0.  1.
</event>
<event>
 8    1  0.2433390E-006  0.9118800E+02  0.7816164E-02  0.1184000E+00
        -11   -1    0    0    0    0  0.00000000000E+00  0.00000000000E+00  0.45593999997E+02  0.45594000000E+02  0.51100000000E-03 0. -1.
         11   -1    0    0    0    0 -0.00000000000E+00 -0.00000000000E+00 -0.45593999997E+02  0.45594000000E+02  0.51100000000E-03 0.  1.
         23    2    1    2    0    0  0.00000000000E+00  0.17763568394E-14  0.00000000000E+00  0.91188000000E+02  0.91188000000E+02 0.  0.
    9900012    2    3    3    0    0 -0.17495492627E+02  0.13141031349E+02 -0.29614237757E+02  0.54367054261E+02  0.39999931800E+02 0.  0.
         12    1    3    3    0    0  0.17495492627E+02 -0.13141031349E+02  0.29614237757E+02  0.36820945739E+02  0.00000000000E+00 0. -1.
         11    1    4    4    0    0 -0.78581937800E+01  0.24334748985E+02 -0.12232857676E+02  0.28347381269E+02  0.51100000000E-03 0. -1.
        -11    1    4    4    0    0  0.51864094709E+00  0.55573833577E+00 -0.76599633255E+01  0.76975887094E+01  0.51100000000E-03 0.  1.
        -12    1    4    4    0    0 -0.10155939794E+02 -0.11749455972E+02 -0.97214167556E+01  0.18322084283E+02  0.00000000000E+00 0.  1.
</event>
<event>
 8    1  0.2433390E-006  0.9118800E+02  0.7816164E-02  0.1184000E+00
        -11   -1    0    0    0    0  0.00000000000E+00  0.00000000000E+00  0.45593999997E+02  0.45594000000E+02  0.51100000000E-03 0.  1.
         11   -1    0    0    0    0 -0.00000000000E+00 -0.00000000000E+00 -0.45593999997E+02  0.45594000000E+02  0.51100000000E-03 0. -1.
         23    2    1    2    0    0 -0.35527136788E-14 -0.17763568394E-14  0.00000000000E+00  0.91188000000E+02  0.91188000000E+02 0.  0.
    9900012    2    3    3    0    0  0.31004563369E+02 -0.94200713555E+01  0.17485947657E+02  0.54367094804E+02  0.40000024224E+02 0.  0.
        -12    1    3    3    0    0 -0.31004563369E+02  0.94200713555E+01 -0.17485947657E+02  0.36820905196E+02  0.00000000000E+00 0.  1.
         11    1    4    4    0    0  0.20643469951E+02 -0.59202233416E+01  0.15957128269E+02  0.26755033899E+02  0.51100000000E-03 0. -1.
        -11    1    4    4    0    0  0.65599815905E-01 -0.12389805178E+02  0.53309341372E+01  0.13488159056E+02  0.51100000000E-03 0.  1.
        -12    1    4    4    0    0  0.10295493601E+02  0.88899571640E+01 -0.38021147497E+01  0.14123901849E+02  0.00000000000E+00 0.  1.
</event>
<event>
 8    1  0.2433390E-006  0.9118800E+02  0.7816164E-02  0.1184000E+00
        -11   -1    0    0    0    0  0.00000000000E+00  0.00000000000E+00  0.45593999997E+02  0.45594000000E+02  0.51100000000E-03 0.  1.
         11   -1    0    0    0    0 -0.00000000000E+00 -0.00000000000E+00 -0.45593999997E+02  0.45594000000E+02  0.51100000000E-03 0. -1.
         23    2    1    2    0    0  0.00000000000E+00  0.88817841970E-15  0.00000000000E+00  0.91188000000E+02  0.91188000000E+02 0.  0.
    9900012    2    3    3    0    0  0.88106701671E+01  0.66134029915E+01 -0.35134349649E+02  0.54366979737E+02  0.39999761906E+02 0.  0.
        -12    1    3    3    0    0 -0.88106701671E+01 -0.66134029915E+01  0.35134349649E+02  0.36821020263E+02  0.00000000000E+00 0.  1.
         11    1    4    4    0    0 -0.42854757560E+01 -0.39277686070E+01 -0.71984156137E+01  0.92525594456E+01  0.51100000000E-03 0. -1.
        -11    1    4    4    0    0 -0.61002351757E+01 -0.50659354382E+01 -0.17826240933E+00  0.79314783496E+01  0.51100000000E-03 0.  1.
         12    1    4    4    0    0  0.19196381099E+02  0.15607107037E+02 -0.27757671626E+02  0.37182941942E+02  0.00000000000E+00 0. -1.
</event>
<event>
 8    1  0.2433390E-006  0.9118800E+02  0.7816164E-02  0.1184000E+00
        -11   -1    0    0    0    0  0.00000000000E+00  0.00000000000E+00  0.45593999997E+02  0.45594000000E+02  0.51100000000E-03 0.  1.
         11   -1    0    0    0    0 -0.00000000000E+00 -0.00000000000E+00 -0.45593999997E+02  0.45594000000E+02  0.51100000000E-03 0. -1.
         23    2    1    2    0    0  0.00000000000E+00  0.00000000000E+00  0.00000000000E+00  0.91188000000E+02  0.91188000000E+02 0.  0.
    9900012    2    3    3    0    0 -0.34827503168E+02  0.84187152360E+01 -0.84823221656E+01  0.54367088381E+02  0.40000009582E+02 0.  0.
        -12    1    3    3    0    0  0.34827503168E+02 -0.84187152360E+01  0.84823221656E+01  0.36820911619E+02  0.00000000000E+00 0.  1.
         11    1    4    4    0    0 -0.23693406336E+02  0.79780506437E+01 -0.56086616286E+01  0.25621941406E+02  0.51100000000E-03 0. -1.
        -11    1    4    4    0    0 -0.45187031396E+01 -0.12533317626E+02 -0.45664551029E+01  0.14083864571E+02  0.51100000000E-03 0.  1.
         12    1    4    4    0    0 -0.66153936922E+01  0.12973982218E+02  0.16927945658E+01  0.14661282404E+02  0.00000000000E+00 0. -1.
</event>
<event>
 8    1  0.2433390E-006  0.9118800E+02  0.7816164E-02  0.1184000E+00
        -11   -1    0    0    0    0  0.00000000000E+00  0.00000000000E+00  0.45593999997E+02  0.45594000000E+02  0.51100000000E-03 0. -1.
         11   -1    0    0    0    0 -0.00000000000E+00 -0.00000000000E+00 -0.45593999997E+02  0.45594000000E+02  0.51100000000E-03 0.  1.
         23    2    1    2    0    0  0.00000000000E+00  0.00000000000E+00  0.17763568394E-14  0.91188000000E+02  0.91188000000E+02 0.  0.
    9900012    2    3    3    0    0 -0.32159511715E+02  0.15079255248E+02 -0.97037015813E+01  0.54367082617E+02  0.39999996442E+02 0.  0.
        -12    1    3    3    0    0  0.32159511715E+02 -0.15079255248E+02  0.97037015813E+01  0.36820917383E+02  0.00000000000E+00 0.  1.
         11    1    4    4    0    0 -0.22728813959E+01 -0.26254075081E+01  0.84221212660E+01  0.91099331119E+01  0.51100000000E-03 0.  1.
        -11    1    4    4    0    0 -0.13441226369E+02  0.20289287157E+02 -0.73369775033E+01  0.25419539311E+02  0.51100000000E-03 0. -1.
         12    1    4    4    0    0 -0.16445403949E+02 -0.25846244011E+01 -0.10788845344E+02  0.19837610194E+02  0.00000000000E+00 0. -1.
</event>
<event>
 8    1  0.2433390E-006  0.9118800E+02  0.7816164E-02  0.1184000E+00
        -11   -1    0    0    0    0  0.00000000000E+00  0.00000000000E+00  0.45593999997E+02  0.45594000000E+02  0.51100000000E-03 0. -1.
         11   -1    0    0    0    0 -0.00000000000E+00 -0.00000000000E+00 -0.45593999997E+02  0.45594000000E+02  0.51100000000E-03 0.  1.
         23    2    1    2    0    0  0.35527136788E-14  0.88817841970E-15  0.00000000000E+00  0.91188000000E+02  0.91188000000E+02 0.  0.
    9900012    2    3    3    0    0 -0.26597501904E+02  0.78933598268E+01  0.24208479309E+02  0.54367045269E+02  0.39999911300E+02 0.  0.
        -12    1    3    3    0    0  0.26597501904E+02 -0.78933598268E+01 -0.24208479309E+02  0.36820954731E+02  0.00000000000E+00 0.  1.
         11    1    4    4    0    0 -0.29664492073E+02  0.11489972666E+02  0.10536458741E+02  0.33511468558E+02  0.51100000000E-03 0. -1.
        -11    1    4    4    0    0  0.25734180944E+01 -0.85193551628E+00 -0.29470418816E+01  0.40041641981E+01  0.51100000000E-03 0.  1.
        -12    1    4    4    0    0  0.49357207523E+00 -0.27446773233E+01  0.16619062449E+02  0.16851412513E+02  0.00000000000E+00 0.  1.
</event>
<event>
 8    1  0.2433390E-006  0.9118800E+02  0.7816164E-02  0.1184000E+00
        -11   -1    0    0    0    0  0.00000000000E+00  0.00000000000E+00  0.45593999997E+02  0.45594000000E+02  0.51100000000E-03 0.  1.
         11   -1    0    0    0    0 -0.00000000000E+00 -0.00000000000E+00 -0.45593999997E+02  0.45594000000E+02  0.51100000000E-03 0. -1.
         23    2    1    2    0    0 -0.71054273576E-14  0.00000000000E+00 -0.17763568394E-14  0.91188000000E+02  0.91188000000E+02 0.  0.
    9900012    2    3    3    0    0 -0.33141014442E+02  0.18719772243E+01  0.15935755863E+02  0.54367089475E+02  0.40000012075E+02 0.  0.
         12    1    3    3    0    0  0.33141014442E+02 -0.18719772243E+01 -0.15935755863E+02  0.36820910525E+02  0.00000000000E+00 0. -1.
         11    1    4    4    0    0 -0.22823990322E+02  0.19032248306E+01 -0.77450006207E+01  0.24177299970E+02  0.51100000000E-03 0. -1.
        -11    1    4    4    0    0 -0.75144271159E+01  0.66253390085E+01  0.19292956352E+02  0.21738902845E+02  0.51100000000E-03 0.  1.
         12    1    4    4    0    0 -0.28025970045E+01 -0.66565866147E+01  0.43878001318E+01  0.84508866591E+01  0.00000000000E+00 0. -1.
</event>
<event>
 8    1  0.2433390E-006  0.9118800E+02  0.7816164E-02  0.1184000E+00
        -11   -1    0    0    0    0  0.00000000000E+00  0.00000000000E+00  0.45593999997E+02  0.45594000000E+02  0.51100000000E-03 0.  1.
         11   -1    0    0    0    0 -0.00000000000E+00 -0.00000000000E+00 -0.45593999997E+02  0.45594000000E+02  0.51100000000E-03 0. -1.
         23    2    1    2    0    0  0.00000000000E+00  0.00000000000E+00  0.35527136788E-14  0.91188000000E+02  0.91188000000E+02 0.  0.
    9900012    2    3    3    0    0  0.20919190144E+02  0.12726121144E+02  0.27499352889E+02  0.54367067299E+02  0.39999961522E+02 0.  0.
        -12    1    3    3    0    0 -0.20919190144E+02 -0.12726121144E+02 -0.27499352889E+02  0.36820932701E+02  0.00000000000E+00 0.  1.
         11    1    4    4    0    0  0.21316620592E+02  0.14349760043E+02  0.15633912867E+02  0.30078782531E+02  0.51100000000E-03 0. -1.
        -11    1    4    4    0    0  0.62323850232E+00 -0.11850234074E+01 -0.61219324560E+01  0.62666389687E+01  0.51100000000E-03 0.  1.
         12    1    4    4    0    0 -0.10206689510E+01 -0.43861549156E+00  0.17987372478E+02  0.18021645799E+02  0.00000000000E+00 0. -1.
</event>
<event>
 8    1  0.2433390E-006  0.9118800E+02  0.7816164E-02  0.1184000E+00
        -11   -1    0    0    0    0  0.00000000000E+00  0.00000000000E+00  0.45593999997E+02  0.45594000000E+02  0.51100000000E-03 0. -1.
         11   -1    0    0    0    0 -0.00000000000E+00 -0.00000000000E+00 -0.45593999997E+02  0.45594000000E+02  0.51100000000E-03 0.  1.
         23    2    1    2    0    0  0.00000000000E+00  0.00000000000E+00  0.00000000000E+00  0.91188000000E+02  0.91188000000E+02 0.  0.
    9900012    2    3    3    0    0 -0.28726037879E+02  0.22379288271E+02  0.54555186454E+01  0.54367075522E+02  0.39999980267E+02 0.  0.
        -12    1    3    3    0    0  0.28726037879E+02 -0.22379288271E+02 -0.54555186454E+01  0.36820924478E+02  0.00000000000E+00 0.  1.
         11    1    4    4    0    0 -0.64481350048E+00  0.21818132818E-01  0.48368346591E+01  0.48796752210E+01  0.51100000000E-03 0. -1.
        -11    1    4    4    0    0 -0.29590272504E+02  0.19124223600E+02  0.12265465321E+02  0.37306323793E+02  0.51100000000E-03 0.  1.
        -12    1    4    4    0    0  0.15090481262E+01  0.32332465388E+01 -0.11646781334E+02  0.12181076507E+02  0.00000000000E+00 0.  1.
</event>
<event>
 8    1  0.2433390E-006  0.9118800E+02  0.7816164E-02  0.1184000E+00
        -11   -1    0    0    0    0  0.00000000000E+00  0.00000000000E+00  0.45593999997E+02  0.45594000000E+02  0.51100000000E-03 0. -1.
         11   -1    0    0    0    0 -0.00000000000E+00 -0.00000000000E+00 -0.45593999997E+02  0.45594000000E+02  0.51100000000E-03 0.  1.
         23    2    1    2    0    0 -0.35527136788E-14  0.35527136788E-14 -0.35527136788E-14  0.91188000000E+02  0.91188000000E+02 0.  0.
    9900012    2    3    3    0    0 -0.20899957306E+02  0.30020904567E+02 -0.42087988079E+01  0.54367123940E+02  0.40000090646E+02 0.  0.
        -12    1    3    3    0    0  0.20899957306E+02 -0.30020904567E+02  0.42087988079E+01  0.36820876060E+02  0.00000000000E+00 0.  1.
         11    1    4    4    0    0 -0.48477633631E+01 -0.11227204238E+01  0.11209660544E+01  0.51007720916E+01  0.51100000000E-03 0. -1.
        -11    1    4    4    0    0  0.26610132141E+01  0.56582409549E+01  0.11764782881E+02  0.13323167736E+02  0.51100000000E-03 0.  1.
        -12    1    4    4    0    0 -0.18713207157E+02  0.25485384036E+02 -0.17094547743E+02  0.35943184112E+02  0.00000000000E+00 0.  1.
</event>
<event>
 8    1  0.2433390E-006  0.9118800E+02  0.7816164E-02  0.1184000E+00
        -11   -1    0    0    0    0  0.00000000000E+00  0.00000000000E+00  0.45593999997E+02  0.45594000000E+02  0.51100000000E-03 0. -1.
         11   -1    0    0    0    0 -0.00000000000E+00 -0.00000000000E+00 -0.45593999997E+02  0.45594000000E+02  0.51100000000E-03 0.  1.
         23    2    1    2    0    0  0.00000000000E+00 -0.71054273576E-14  0.00000000000E+00  0.91188000000E+02  0.91188000000E+02 0.  0.
    9900012    2    3    3    0    0  0.42757508914E+01 -0.34582101530E+02 -0.11898558640E+02  0.54367088963E+02  0.40000010909E+02 0.  0.
         12    1    3    3    0    0 -0.42757508914E+01  0.34582101530E+02  0.11898558640E+02  0.36820911037E+02  0.00000000000E+00 0. -1.
         11    1    4    4    0    0 -0.61319089168E+00  0.34391797906E+01  0.29580423592E+01  0.45775512625E+01  0.51100000000E-03 0. -1.
        -11    1    4    4    0    0  0.47022575329E+01 -0.13748719253E+02  0.78808781993E+01  0.16530176903E+02  0.51100000000E-03 0.  1.
        -12    1    4    4    0    0  0.18668425018E+00 -0.24272562068E+02 -0.22737479198E+02  0.33259360797E+02  0.00000000000E+00 0.  1.
</event>
<event>
 8    1  0.2433390E-006  0.9118800E+02  0.7816164E-02  0.1184000E+00
        -11   -1    0    0    0    0  0.00000000000E+00  0.00000000000E+00  0.45593999997E+02  0.45594000000E+02  0.51100000000E-03 0.  1.
         11   -1    0    0    0    0 -0.00000000000E+00 -0.00000000000E+00 -0.45593999997E+02  0.45594000000E+02  0.51100000000E-03 0. -1.
         23    2    1    2    0    0  0.00000000000E+00  0.00000000000E+00 -0.17763568394E-14  0.91188000000E+02  0.91188000000E+02 0.  0.
    9900012    2    3    3    0    0  0.34203379855E+02  0.93477244803E+01 -0.99262011830E+01  0.54367073662E+02  0.39999976027E+02 0.  0.
        -12    1    3    3    0    0 -0.34203379855E+02 -0.93477244803E+01  0.99262011830E+01  0.36820926338E+02  0.00000000000E+00 0.  1.
         11    1    4    4    0    0  0.25905075255E+02  0.47882505749E+01 -0.60984359269E+01  0.27040547120E+02  0.51100000000E-03 0. -1.
        -11    1    4    4    0    0  0.11589903767E+02 -0.63567317535E+01  0.36230499114E+01  0.13706217525E+02  0.51100000000E-03 0.  1.
        -12    1    4    4    0    0 -0.32915991668E+01  0.10916205659E+02 -0.74508151675E+01  0.13620309017E+02  0.00000000000E+00 0.  1.
</event>
<event>
 8    1  0.2433390E-006  0.9118800E+02  0.7816164E-02  0.1184000E+00
        -11   -1    0    0    0    0  0.00000000000E+00  0.00000000000E+00  0.45593999997E+02  0.45594000000E+02  0.51100000000E-03 0.  1.
         11   -1    0    0    0    0 -0.00000000000E+00 -0.00000000000E+00 -0.45593999997E+02  0.45594000000E+02  0.51100000000E-03 0. -1.
         23    2    1    2    0    0 -0.17763568394E-14  0.00000000000E+00 -0.35527136788E-14  0.91188000000E+02  0.91188000000E+02 0.  0.
    9900012    2    3    3    0    0 -0.15412197017E+02 -0.17928353685E+02 -0.28227983075E+02  0.54367072374E+02  0.39999973091E+02 0.  0.
        -12    1    3    3    0    0  0.15412197017E+02  0.17928353685E+02  0.28227983075E+02  0.36820927626E+02  0.00000000000E+00 0.  1.
         11    1    4    4    0    0 -0.76260254895E+01 -0.14179554315E+00 -0.27389885733E+02  0.28432063089E+02  0.51100000000E-03 0. -1.
        -11    1    4    4    0    0  0.14772841383E+01 -0.16136868719E+02  0.13955097452E+01  0.16264327474E+02  0.51100000000E-03 0.  1.
        -12    1    4    4    0    0 -0.92634556660E+01 -0.16496894226E+01 -0.22336070871E+01  0.96706818108E+01  0.00000000000E+00 0.  1.
</event>
<event>
 8    1  0.2433390E-006  0.9118800E+02  0.7816164E-02  0.1184000E+00
        -11   -1    0    0    0    0  0.00000000000E+00  0.00000000000E+00  0.45593999997E+02  0.45594000000E+02  0.51100000000E-03 0.  1.
         11   -1    0    0    0    0 -0.00000000000E+00 -0.00000000000E+00 -0.45593999997E+02  0.45594000000E+02  0.51100000000E-03 0. -1.
         23    2    1    2    0    0  0.00000000000E+00  0.00000000000E+00  0.00000000000E+00  0.91188000000E+02  0.91188000000E+02 0.  0.
    9900012    2    3    3    0    0 -0.17254002368E+02 -0.14799046448E+02 -0.28966694271E+02  0.54367058262E+02  0.39999940921E+02 0.  0.
        -12    1    3    3    0    0  0.17254002368E+02  0.14799046448E+02  0.28966694271E+02  0.36820941738E+02  0.00000000000E+00 0.  1.
         11    1    4    4    0    0 -0.87871956202E+01 -0.36467449913E+01 -0.27730202661E+02  0.29316850032E+02  0.51100000000E-03 0. -1.
        -11    1    4    4    0    0  0.69052500299E+01 -0.45889541329E+01 -0.14871827281E-01  0.82910312653E+01  0.51100000000E-03 0.  1.
         12    1    4    4    0    0 -0.15372056777E+02 -0.65633473239E+01 -0.12216197822E+01  0.16759176965E+02  0.00000000000E+00 0. -1.
</event>
<event>
 8    1  0.2433390E-006  0.9118800E+02  0.7816164E-02  0.1184000E+00
        -11   -1    0    0    0    0  0.00000000000E+00  0.00000000000E+00  0.45593999997E+02  0.45594000000E+02  0.51100000000E-03 0. -1.
         11   -1    0    0    0    0 -0.00000000000E+00 -0.00000000000E+00 -0.45593999997E+02  0.45594000000E+02  0.51100000000E-03 0.  1.
         23    2    1    2    0    0 -0.35527136788E-14 -0.35527136788E-14 -0.35527136788E-14  0.91188000000E+02  0.91188000000E+02 0.  0.
    9900012    2    3    3    0    0  0.16252538069E+02  0.27161775772E+02  0.18811521502E+02  0.54367076628E+02  0.39999982788E+02 0.  0.
        -12    1    3    3    0    0 -0.16252538069E+02 -0.27161775772E+02 -0.18811521502E+02  0.36820923372E+02  0.00000000000E+00 0.  1.
         11    1    4    4    0    0  0.70318946203E+01  0.23907132700E+01  0.88134615695E+01  0.11525630438E+02  0.51100000000E-03 0. -1.
        -11    1    4    4    0    0  0.14441246024E+02 -0.11806083944E+01  0.73236480531E+01  0.16235123775E+02  0.51100000000E-03 0.  1.
         12    1    4    4    0    0 -0.52206025755E+01  0.25951670896E+02  0.26744118792E+01  0.26606322415E+02  0.00000000000E+00 0. -1.
</event>
<event>
 8    1  0.2433390E-006  0.9118800E+02  0.7816164E-02  0.1184000E+00
        -11   -1    0    0    0    0  0.00000000000E+00  0.00000000000E+00  0.45593999997E+02  0.45594000000E+02  0.51100000000E-03 0.  1.
         11   -1    0    0    0    0 -0.00000000000E+00 -0.00000000000E+00 -0.45593999997E+02  0.45594000000E+02  0.51100000000E-03 0. -1.
         23    2    1    2    0    0  0.35527136788E-14 -0.44408920985E-15 -0.35527136788E-14  0.91188000000E+02  0.91188000000E+02 0.  0.
    9900012    2    3    3    0    0  0.24763017856E+02  0.29130615753E+01 -0.27094046147E+02  0.54367077718E+02  0.39999985274E+02 0.  0.
         12    1    3    3    0    0 -0.24763017856E+02 -0.29130615753E+01  0.27094046147E+02  0.36820922282E+02  0.00000000000E+00 0. -1.
         11    1    4    4    0    0  0.25924075114E+01 -0.33318235226E+01 -0.12922771904E+02  0.13594839412E+02  0.51100000000E-03 0. -1.
        -11    1    4    4    0    0  0.22947685264E+02  0.54667181666E+01 -0.22364113966E+02  0.32505920387E+02  0.51100000000E-03 0.  1.
        -12    1    4    4    0    0 -0.77707491914E+00  0.77816693123E+00  0.81928397231E+01  0.82663179186E+01  0.00000000000E+00 0.  1.
</event>
<event>
 8    1  0.2433390E-006  0.9118800E+02  0.7816164E-02  0.1184000E+00
        -11   -1    0    0    0    0  0.00000000000E+00  0.00000000000E+00  0.45593999997E+02  0.45594000000E+02  0.51100000000E-03 0.  1.
         11   -1    0    0    0    0 -0.00000000000E+00 -0.00000000000E+00 -0.45593999997E+02  0.45594000000E+02  0.51100000000E-03 0. -1.
         23    2    1    2    0    0  0.00000000000E+00 -0.44408920985E-15  0.00000000000E+00  0.91188000000E+02  0.91188000000E+02 0.  0.
    9900012    2    3    3    0    0 -0.35376533411E+02 -0.35248110019E+01  0.95843533692E+01  0.54367038059E+02  0.39999894863E+02 0.  0.
         12    1    3    3    0    0  0.35376533411E+02  0.35248110019E+01 -0.95843533692E+01  0.36820961941E+02  0.00000000000E+00 0. -1.
         11    1    4    4    0    0 -0.14860336455E+01 -0.10743099343E+02  0.78331086644E+01  0.13378343361E+02  0.51100000000E-03 0. -1.
        -11    1    4    4    0    0 -0.20827642615E+02  0.10737512598E+02  0.96287413930E+01  0.25333723271E+02  0.51100000000E-03 0.  1.
         12    1    4    4    0    0 -0.13062857150E+02 -0.35192242572E+01 -0.78774966882E+01  0.15654971427E+02  0.00000000000E+00 0. -1.
</event>
<event>
 8    1  0.2433390E-006  0.9118800E+02  0.7816164E-02  0.1184000E+00
        -11   -1    0    0    0    0  0.00000000000E+00  0.00000000000E+00  0.45593999997E+02  0.45594000000E+02  0.51100000000E-03 0. -1.
         11   -1    0    0    0    0 -0.00000000000E+00 -0.00000000000E+00 -0.45593999997E+02  0.45594000000E+02  0.51100000000E-03 0.  1.
         23    2    1    2    0    0  0.00000000000E+00  0.00000000000E+00  0.00000000000E+00  0.91188000000E+02  0.91188000000E+02 0.  0.
    9900012    2    3    3    0    0 -0.29732404002E+02 -0.30211323556E+01 -0.21508992843E+02  0.54367083912E+02  0.39999999394E+02 0.  0.
         12    1    3    3    0    0  0.29732404002E+02  0.30211323556E+01  0.21508992843E+02  0.36820916088E+02  0.00000000000E+00 0. -1.
         11    1    4    4    0    0  0.68819128275E+01  0.24192180331E+01 -0.76946229072E+01  0.10602856313E+02  0.51100000000E-03 0. -1.
        -11    1    4    4    0    0 -0.37197036225E+02 -0.86863039552E+01 -0.13166725307E+02  0.40403391391E+02  0.51100000000E-03 0.  1.
        -12    1    4    4    0    0  0.58271939573E+00  0.32459535665E+01 -0.64764462855E+00  0.33608362077E+01  0.00000000000E+00 0.  1.
</event>
<event>
 8    1  0.2433390E-006  0.9118800E+02  0.7816164E-02  0.1184000E+00
        -11   -1    0    0    0    0  0.00000000000E+00  0.00000000000E+00  0.45593999997E+02  0.45594000000E+02  0.51100000000E-03 0.  1.
         11   -1    0    0    0    0 -0.00000000000E+00 -0.00000000000E+00 -0.45593999997E+02  0.45594000000E+02  0.51100000000E-03 0. -1.
         23    2    1    2    0    0  0.00000000000E+00 -0.17763568394E-14  0.71054273576E-14  0.91188000000E+02  0.91188000000E+02 0.  0.
    9900012    2    3    3    0    0 -0.13345477149E+02 -0.10180308514E+02  0.32772553630E+02  0.54367072348E+02  0.39999973031E+02 0.  0.
         12    1    3    3    0    0  0.13345477149E+02  0.10180308514E+02 -0.32772553630E+02  0.36820927652E+02  0.00000000000E+00 0. -1.
         11    1    4    4    0    0 -0.58368751623E+01 -0.14638776041E+02  0.22737430054E+02  0.27665024876E+02  0.51100000000E-03 0.  1.
        -11    1    4    4    0    0 -0.57581376037E-01 -0.79163269758E+01 -0.16929975077E+01  0.80955413176E+01  0.51100000000E-03 0. -1.
         12    1    4    4    0    0 -0.74510206104E+01  0.12374794503E+02  0.11728121083E+02  0.18606506154E+02  0.00000000000E+00 0. -1.
</event>
<event>
 8    1  0.2433390E-006  0.9118800E+02  0.7816164E-02  0.1184000E+00
        -11   -1    0    0    0    0  0.00000000000E+00  0.00000000000E+00  0.45593999997E+02  0.45594000000E+02  0.51100000000E-03 0. -1.
         11   -1    0    0    0    0 -0.00000000000E+00 -0.00000000000E+00 -0.45593999997E+02  0.45594000000E+02  0.51100000000E-03 0.  1.
         23    2    1    2    0    0  0.00000000000E+00  0.00000000000E+00  0.00000000000E+00  0.91188000000E+02  0.91188000000E+02 0.  0.
    9900012    2    3    3    0    0 -0.31387166718E+02 -0.10681540954E+02 -0.16016604446E+02  0.54367066148E+02  0.39999958897E+02 0.  0.
        -12    1    3    3    0    0  0.31387166718E+02  0.10681540954E+02  0.16016604446E+02  0.36820933852E+02  0.00000000000E+00 0.  1.
         11    1    4    4    0    0 -0.96696753264E+01 -0.11619053489E+02  0.88179852065E+01  0.17500339661E+02  0.51100000000E-03 0. -1.
        -11    1    4    4    0    0 -0.13491430003E+01  0.49192786175E+01 -0.10409414732E+02  0.11592040557E+02  0.51100000000E-03 0.  1.
         12    1    4    4    0    0 -0.20368348392E+02 -0.39817660827E+01 -0.14425174920E+02  0.25274685929E+02  0.00000000000E+00 0. -1.
</event>
<event>
 8    1  0.2433390E-006  0.9118800E+02  0.7816164E-02  0.1184000E+00
        -11   -1    0    0    0    0  0.00000000000E+00  0.00000000000E+00  0.45593999997E+02  0.45594000000E+02  0.51100000000E-03 0. -1.
         11   -1    0    0    0    0 -0.00000000000E+00 -0.00000000000E+00 -0.45593999997E+02  0.45594000000E+02  0.51100000000E-03 0.  1.
         23    2    1    2    0    0 -0.17763568394E-14  0.71054273576E-14  0.00000000000E+00  0.91188000000E+02  0.91188000000E+02 0.  0.
    9900012    2    3    3    0    0  0.13222016180E+02 -0.33758348223E+02  0.64289710463E+01  0.54367089429E+02  0.40000011971E+02 0.  0.
        -12    1    3    3    0    0 -0.13222016180E+02  0.33758348223E+02 -0.64289710463E+01  0.36820910571E+02  0.00000000000E+00 0.  1.
         11    1    4    4    0    0 -0.84971905987E+01 -0.23749995081E+02 -0.28055889557E+01  0.25379831443E+02  0.51100000000E-03 0. -1.
        -11    1    4    4    0    0  0.18737088915E+02 -0.39515376644E+01  0.22628386131E+01  0.19282468457E+02  0.51100000000E-03 0.  1.
        -12    1    4    4    0    0  0.29821178635E+01 -0.60568154768E+01  0.69717213889E+01  0.97047895287E+01  0.00000000000E+00 0.  1.
</event>
<event>
 8    1  0.2433390E-006  0.9118800E+02  0.7816164E-02  0.1184000E+00
        -11   -1    0    0    0    0  0.00000000000E+00  0.00000000000E+00  0.45593999997E+02  0.45594000000E+02  0.51100000000E-03 0.  1.
         11   -1    0    0    0    0 -0.00000000000E+00 -0.00000000000E+00 -0.45593999997E+02  0.45594000000E+02  0.51100000000E-03 0. -1.
         23    2    1    2    0    0  0.00000000000E+00 -0.17763568394E-14 -0.35527136788E-14  0.91188000000E+02  0.91188000000E+02 0.  0.
    9900012    2    3    3    0    0  0.17472128372E+02  0.10712444901E+02  0.30589956958E+02  0.54367119887E+02  0.40000081406E+02 0.  0.
         12    1    3    3    0    0 -0.17472128372E+02 -0.10712444901E+02 -0.30589956958E+02  0.36820880113E+02  0.00000000000E+00 0. -1.
         11    1    4    4    0    0  0.54479775769E+00  0.29377810818E+01 -0.40267013316E+00  0.30148807238E+01  0.51100000000E-03 0. -1.
        -11    1    4    4    0    0 -0.64753808331E+01  0.65165375982E+00 -0.47377937355E+01  0.80499626892E+01  0.51100000000E-03 0.  1.
        -12    1    4    4    0    0  0.23402711448E+02  0.71230100594E+01  0.35730420826E+02  0.43302276474E+02  0.00000000000E+00 0.  1.
</event>
<event>
 8    1  0.2433390E-006  0.9118800E+02  0.7816164E-02  0.1184000E+00
        -11   -1    0    0    0    0  0.00000000000E+00  0.00000000000E+00  0.45593999997E+02  0.45594000000E+02  0.51100000000E-03 0.  1.
         11   -1    0    0    0    0 -0.00000000000E+00 -0.00000000000E+00 -0.45593999997E+02  0.45594000000E+02  0.51100000000E-03 0. -1.
         23    2    1    2    0    0  0.00000000000E+00  0.00000000000E+00  0.17763568394E-14  0.91188000000E+02  0.91188000000E+02 0.  0.
    9900012    2    3    3    0    0 -0.19845664927E+02  0.27678245087E+02 -0.13994436251E+02  0.54367083207E+02  0.39999997787E+02 0.  0.
        -12    1    3    3    0    0  0.19845664927E+02 -0.27678245087E+02  0.13994436251E+02  0.36820916793E+02  0.00000000000E+00 0.  1.
         11    1    4    4    0    0  0.59501219715E+01  0.19966086788E+01  0.41175409284E+01  0.75063001039E+01  0.51100000000E-03 0. -1.
        -11    1    4    4    0    0 -0.19850953311E+01  0.26541698394E+00 -0.11170438503E+02  0.11348557012E+02  0.51100000000E-03 0.  1.
         12    1    4    4    0    0 -0.23810691568E+02  0.25416219424E+02 -0.69415386764E+01  0.35512226091E+02  0.00000000000E+00 0. -1.
</event>
<event>
 8    1  0.2433390E-006  0.9118800E+02  0.7816164E-02  0.1184000E+00
        -11   -1    0    0    0    0  0.00000000000E+00  0.00000000000E+00  0.45593999997E+02  0.45594000000E+02  0.51100000000E-03 0.  1.
         11   -1    0    0    0    0 -0.00000000000E+00 -0.00000000000E+00 -0.45593999997E+02  0.45594000000E+02  0.51100000000E-03 0. -1.
         23    2    1    2    0    0  0.44408920985E-14  0.17763568394E-14  0.00000000000E+00  0.91188000000E+02  0.91188000000E+02 0.  0.
    9900012    2    3    3    0    0 -0.78706225003E+01  0.99338334972E+01 -0.34570974673E+02  0.54367081539E+02  0.39999993984E+02 0.  0.
        -12    1    3    3    0    0  0.78706225003E+01 -0.99338334972E+01  0.34570974673E+02  0.36820918461E+02  0.00000000000E+00 0.  1.
         11    1    4    4    0    0  0.24346064178E+01  0.10356747798E+02 -0.29141464722E+01  0.11030946618E+02  0.51100000000E-03 0. -1.
        -11    1    4    4    0    0  0.21812322771E+01  0.24604154257E+01  0.41560641080E+01  0.52994610523E+01  0.51100000000E-03 0.  1.
         12    1    4    4    0    0 -0.12486461195E+02 -0.28833297263E+01 -0.35812892309E+02  0.38036673869E+02  0.00000000000E+00 0. -1.
</event>
<event>
 8    1  0.2433390E-006  0.9118800E+02  0.7816164E-02  0.1184000E+00
        -11   -1    0    0    0    0  0.00000000000E+00  0.00000000000E+00  0.45593999997E+02  0.45594000000E+02  0.51100000000E-03 0. -1.
         11   -1    0    0    0    0 -0.00000000000E+00 -0.00000000000E+00 -0.45593999997E+02  0.45594000000E+02  0.51100000000E-03 0.  1.
         23    2    1    2    0    0 -0.88817841970E-15 -0.88817841970E-15  0.00000000000E+00  0.91188000000E+02  0.91188000000E+02 0.  0.
    9900012    2    3    3    0    0 -0.57076636534E+01  0.50156934922E+01 -0.36028388568E+02  0.54367090337E+02  0.40000014042E+02 0.  0.
         12    1    3    3    0    0  0.57076636534E+01 -0.50156934922E+01  0.36028388568E+02  0.36820909663E+02  0.00000000000E+00 0. -1.
         11    1    4    4    0    0  0.65490975323E+01  0.11910057007E+02 -0.30401104988E+02  0.33301160958E+02  0.51100000000E-03 0. -1.
        -11    1    4    4    0    0 -0.25954815724E+01  0.27914281907E+01 -0.63062044955E+01  0.73686370066E+01  0.51100000000E-03 0.  1.
        -12    1    4    4    0    0 -0.96612796133E+01 -0.96857917057E+01  0.67892091530E+00  0.13697292373E+02  0.00000000000E+00 0.  1.
</event>
<event>
 8    1  0.2433390E-006  0.9118800E+02  0.7816164E-02  0.1184000E+00
        -11   -1    0    0    0    0  0.00000000000E+00  0.00000000000E+00  0.45593999997E+02  0.45594000000E+02  0.51100000000E-03 0.  1.
         11   -1    0    0    0    0 -0.00000000000E+00 -0.00000000000E+00 -0.45593999997E+02  0.45594000000E+02  0.51100000000E-03 0. -1.
         23    2    1    2    0    0 -0.49960036108E-15 -0.71054273576E-14  0.00000000000E+00  0.91188000000E+02  0.91188000000E+02 0.  0.
    9900012    2    3    3    0    0 -0.70601740477E-01  0.19369746621E+02  0.31314338900E+02  0.54367083532E+02  0.39999998529E+02 0.  0.
         12    1    3    3    0    0  0.70601740477E-01 -0.19369746621E+02 -0.31314338900E+02  0.36820916468E+02  0.00000000000E+00 0. -1.
         11    1    4    4    0    0  0.31332070805E+01 -0.77167850742E+01 -0.85430703795E+00  0.83723114650E+01  0.51100000000E-03 0. -1.
        -11    1    4    4    0    0 -0.87814974271E+01  0.24554621321E+02  0.29320731397E+02  0.39239640865E+02  0.51100000000E-03 0.  1.
         12    1    4    4    0    0  0.55776886061E+01  0.25319103743E+01  0.28479145408E+01  0.67551312024E+01  0.00000000000E+00 0. -1.
</event>
<event>
 8    1  0.2433390E-006  0.9118800E+02  0.7816164E-02  0.1184000E+00
        -11   -1    0    0    0    0  0.00000000000E+00  0.00000000000E+00  0.45593999997E+02  0.45594000000E+02  0.51100000000E-03 0.  1.
         11   -1    0    0    0    0 -0.00000000000E+00 -0.00000000000E+00 -0.45593999997E+02  0.45594000000E+02  0.51100000000E-03 0. -1.
         23    2    1    2    0    0  0.71054273576E-14  0.00000000000E+00  0.44408920985E-15  0.91188000000E+02  0.91188000000E+02 0.  0.
    9900012    2    3    3    0    0 -0.35018151632E+02  0.11367331944E+02  0.54125872765E+00  0.54367080127E+02  0.39999990766E+02 0.  0.
        -12    1    3    3    0    0  0.35018151632E+02 -0.11367331944E+02 -0.54125872765E+00  0.36820919873E+02  0.00000000000E+00 0.  1.
         11    1    4    4    0    0  0.87839412693E+00 -0.95613407254E+00 -0.13271129547E+02  0.13334490929E+02  0.51100000000E-03 0. -1.
        -11    1    4    4    0    0 -0.16797715501E+02  0.75571093011E+01  0.10080454791E+02  0.20997350216E+02  0.51100000000E-03 0.  1.
        -12    1    4    4    0    0 -0.19098830258E+02  0.47663567159E+01  0.37319334844E+01  0.20035238983E+02  0.00000000000E+00 0.  1.
</event>
<event>
 8    1  0.2433390E-006  0.9118800E+02  0.7816164E-02  0.1184000E+00
        -11   -1    0    0    0    0  0.00000000000E+00  0.00000000000E+00  0.45593999997E+02  0.45594000000E+02  0.51100000000E-03 0.  1.
         11   -1    0    0    0    0 -0.00000000000E+00 -0.00000000000E+00 -0.45593999997E+02  0.45594000000E+02  0.51100000000E-03 0. -1.
         23    2    1    2    0    0  0.17763568394E-14  0.00000000000E+00  0.88817841970E-15  0.91188000000E+02  0.91188000000E+02 0.  0.
    9900012    2    3    3    0    0  0.15675460027E+02  0.33124203085E+02  0.35843464692E+01  0.54367076374E+02  0.39999982210E+02 0.  0.
         12    1    3    3    0    0 -0.15675460027E+02 -0.33124203085E+02 -0.35843464692E+01  0.36820923626E+02  0.00000000000E+00 0. -1.
         11    1    4    4    0    0  0.10254022352E+02 -0.30456893648E+01  0.19356634721E+01  0.10870510174E+02  0.51100000000E-03 0. -1.
        -11    1    4    4    0    0  0.82280311649E+01  0.34548062519E+02  0.79654306535E+01  0.36396664771E+02  0.51100000000E-03 0.  1.
         12    1    4    4    0    0 -0.28065934906E+01  0.16218299305E+01 -0.63167476564E+01  0.70999014289E+01  0.00000000000E+00 0. -1.
</event>
<event>
 8    1  0.2433390E-006  0.9118800E+02  0.7816164E-02  0.1184000E+00
        -11   -1    0    0    0    0  0.00000000000E+00  0.00000000000E+00  0.45593999997E+02  0.45594000000E+02  0.51100000000E-03 0. -1.
         11   -1    0    0    0    0 -0.00000000000E+00 -0.00000000000E+00 -0.45593999997E+02  0.45594000000E+02  0.51100000000E-03 0.  1.
         23    2    1    2    0    0  0.00000000000E+00  0.35527136788E-14  0.17763568394E-14  0.91188000000E+02  0.91188000000E+02 0.  0.
    9900012    2    3    3    0    0 -0.18276571856E+02 -0.29321256350E+02 -0.12728336835E+02  0.54367085952E+02  0.40000004045E+02 0.  0.
         12    1    3    3    0    0  0.18276571856E+02  0.29321256350E+02  0.12728336835E+02  0.36820914048E+02  0.00000000000E+00 0. -1.
         11    1    4    4    0    0  0.73546154365E+00  0.28600643084E+01  0.18998735728E+01  0.35114657031E+01  0.51100000000E-03 0. -1.
        -11    1    4    4    0    0  0.85019069959E+01 -0.42718836482E+01 -0.27849309442E+01  0.99139927928E+01  0.51100000000E-03 0.  1.
        -12    1    4    4    0    0 -0.27513940395E+02 -0.27909437010E+02 -0.11843279463E+02  0.40941627456E+02  0.00000000000E+00 0.  1.
</event>
<event>
 8    1  0.2433390E-006  0.9118800E+02  0.7816164E-02  0.1184000E+00
        -11   -1    0    0    0    0  0.00000000000E+00  0.00000000000E+00  0.45593999997E+02  0.45594000000E+02  0.51100000000E-03 0. -1.
         11   -1    0    0    0    0 -0.00000000000E+00 -0.00000000000E+00 -0.45593999997E+02  0.45594000000E+02  0.51100000000E-03 0.  1.
         23    2    1    2    0    0 -0.26645352591E-14  0.00000000000E+00  0.00000000000E+00  0.91188000000E+02  0.91188000000E+02 0.  0.
    9900012    2    3    3    0    0 -0.76903596519E+01  0.35295013276E+02 -0.71344064907E+01  0.54367090863E+02  0.40000015239E+02 0.  0.
         12    1    3    3    0    0  0.76903596519E+01 -0.35295013276E+02  0.71344064907E+01  0.36820909137E+02  0.00000000000E+00 0. -1.
         11    1    4    4    0    0 -0.20741379498E+01 -0.30601907375E+01 -0.75708336072E+01  0.84252203148E+01  0.51100000000E-03 0. -1.
        -11    1    4    4    0    0  0.39988078615E+01  0.98867197681E+01 -0.95110379513E+01  0.14289770301E+02  0.51100000000E-03 0.  1.
        -12    1    4    4    0    0 -0.96150295635E+01  0.28468484246E+02  0.99474650678E+01  0.31652100247E+02  0.00000000000E+00 0.  1.
</event>
<event>
 8    1  0.2433390E-006  0.9118800E+02  0.7816164E-02  0.1184000E+00
        -11   -1    0    0    0    0  0.00000000000E+00  0.00000000000E+00  0.45593999997E+02  0.45594000000E+02  0.51100000000E-03 0.  1.
         11   -1    0    0    0    0 -0.00000000000E+00 -0.00000000000E+00 -0.45593999997E+02  0.45594000000E+02  0.51100000000E-03 0. -1.
         23    2    1    2    0    0  0.19984014443E-14  0.88817841970E-15  0.00000000000E+00  0.91188000000E+02  0.91188000000E+02 0.  0.
    9900012    2    3    3    0    0  0.16656846399E+01 -0.19516831399E+01  0.36731424653E+02  0.54367066695E+02  0.39999960146E+02 0.  0.
         12    1    3    3    0    0 -0.16656846399E+01  0.19516831399E+01 -0.36731424653E+02  0.36820933305E+02  0.00000000000E+00 0. -1.
         11    1    4    4    0    0  0.83740901843E+01  0.37587018395E+01  0.10095244252E+02  0.13644309536E+02  0.51100000000E-03 0. -1.
        -11    1    4    4    0    0  0.49016061388E+01  0.55503930322E+01  0.22976023859E+02  0.24139806921E+02  0.51100000000E-03 0.  1.
         12    1    4    4    0    0 -0.11610011683E+02 -0.11260778012E+02  0.36601565415E+01  0.16582950239E+02  0.00000000000E+00 0. -1.
</event>
<event>
 8    1  0.2433390E-006  0.9118800E+02  0.7816164E-02  0.1184000E+00
        -11   -1    0    0    0    0  0.00000000000E+00  0.00000000000E+00  0.45593999997E+02  0.45594000000E+02  0.51100000000E-03 0. -1.
         11   -1    0    0    0    0 -0.00000000000E+00 -0.00000000000E+00 -0.45593999997E+02  0.45594000000E+02  0.51100000000E-03 0.  1.
         23    2    1    2    0    0  0.00000000000E+00  0.35527136788E-14  0.88817841970E-15  0.91188000000E+02  0.91188000000E+02 0.  0.
    9900012    2    3    3    0    0 -0.26956972736E+02 -0.24888905644E+02 -0.31056077483E+01  0.54367071131E+02  0.39999970258E+02 0.  0.
        -12    1    3    3    0    0  0.26956972736E+02  0.24888905644E+02  0.31056077483E+01  0.36820928869E+02  0.00000000000E+00 0.  1.
         11    1    4    4    0    0 -0.15131403562E+02 -0.18826112113E+02  0.21190973780E+01  0.24246081024E+02  0.51100000000E-03 0. -1.
        -11    1    4    4    0    0 -0.53969265138E+01 -0.15964411196E+02 -0.68755944730E+01  0.18200632963E+02  0.51100000000E-03 0.  1.
        -12    1    4    4    0    0 -0.64286426605E+01  0.99016176643E+01  0.16508893467E+01  0.11920357145E+02  0.00000000000E+00 0.  1.
</event>
<event>
 8    1  0.2433390E-006  0.9118800E+02  0.7816164E-02  0.1184000E+00
        -11   -1    0    0    0    0  0.00000000000E+00  0.00000000000E+00  0.45593999997E+02  0.45594000000E+02  0.51100000000E-03 0.  1.
         11   -1    0    0    0    0 -0.00000000000E+00 -0.00000000000E+00 -0.45593999997E+02  0.45594000000E+02  0.51100000000E-03 0. -1.
         23    2    1    2    0    0  0.35527136788E-14 -0.35527136788E-14 -0.17763568394E-14  0.91188000000E+02  0.91188000000E+02 0.  0.
    9900012    2    3    3    0    0 -0.25805815453E+02 -0.25907278298E+02  0.43187981476E+01  0.54367092930E+02  0.40000019953E+02 0.  0.
        -12    1    3    3    0    0  0.25805815453E+02  0.25907278298E+02 -0.43187981476E+01  0.36820907070E+02  0.00000000000E+00 0.  1.
         11    1    4    4    0    0 -0.15747019946E+02  0.28185937207E-01 -0.67396237238E+01  0.17128688211E+02  0.51100000000E-03 0. -1.
        -11    1    4    4    0    0 -0.11420419629E+00 -0.17151895278E+02 -0.35373442064E+01  0.17513233811E+02  0.51100000000E-03 0.  1.
        -12    1    4    4    0    0 -0.99445913112E+01 -0.87835689575E+01  0.14595766078E+02  0.19725170909E+02  0.00000000000E+00 0.  1.
</event>
<event>
 8    1  0.2433390E-006  0.9118800E+02  0.7816164E-02  0.1184000E+00
        -11   -1    0    0    0    0  0.00000000000E+00  0.00000000000E+00  0.45593999997E+02  0.45594000000E+02  0.51100000000E-03 0.  1.
         11   -1    0    0    0    0 -0.00000000000E+00 -0.00000000000E+00 -0.45593999997E+02  0.45594000000E+02  0.51100000000E-03 0. -1.
         23    2    1    2    0    0 -0.35527136788E-14 -0.17763568394E-14  0.00000000000E+00  0.91188000000E+02  0.91188000000E+02 0.  0.
    9900012    2    3    3    0    0 -0.22657483773E+02 -0.15682284105E+02  0.24423016546E+02  0.54367090955E+02  0.40000015450E+02 0.  0.
         12    1    3    3    0    0  0.22657483773E+02  0.15682284105E+02 -0.24423016546E+02  0.36820909045E+02  0.00000000000E+00 0. -1.
         11    1    4    4    0    0 -0.11482138574E+02 -0.52084413272E+01  0.12865358177E+02  0.18013461871E+02  0.51100000000E-03 0. -1.
        -11    1    4    4    0    0 -0.57253434657E+01 -0.11544468998E+02  0.21441662723E+02  0.25015979350E+02  0.51100000000E-03 0.  1.
         12    1    4    4    0    0 -0.54500017333E+01  0.10706262208E+01 -0.98840043545E+01  0.11337649733E+02  0.00000000000E+00 0. -1.
</event>
<event>
 8    1  0.2433390E-006  0.9118800E+02  0.7816164E-02  0.1184000E+00
        -11   -1    0    0    0    0  0.00000000000E+00  0.00000000000E+00  0.45593999997E+02  0.45594000000E+02  0.51100000000E-03 0. -1.
         11   -1    0    0    0    0 -0.00000000000E+00 -0.00000000000E+00 -0.45593999997E+02  0.45594000000E+02  0.51100000000E-03 0.  1.
         23    2    1    2    0    0  0.00000000000E+00  0.00000000000E+00  0.17763568394E-14  0.91188000000E+02  0.91188000000E+02 0.  0.
    9900012    2    3    3    0    0  0.60275085020E+01  0.35398795375E+02 -0.81468483811E+01  0.54367126690E+02  0.40000096915E+02 0.  0.
        -12    1    3    3    0    0 -0.60275085020E+01 -0.35398795375E+02  0.81468483811E+01  0.36820873310E+02  0.00000000000E+00 0.  1.
         11    1    4    4    0    0 -0.69804422303E+01  0.15170470288E+02  0.35329746705E+01  0.17069026123E+02  0.51100000000E-03 0. -1.
        -11    1    4    4    0    0  0.57623320027E+01  0.73609293367E+01  0.82674397415E+01  0.12479515654E+02  0.51100000000E-03 0.  1.
        -12    1    4    4    0    0  0.72456187296E+01  0.12867395751E+02 -0.19947262793E+02  0.24818584914E+02  0.00000000000E+00 0.  1.
</event>
<event>
 8    1  0.2433390E-006  0.9118800E+02  0.7816164E-02  0.1184000E+00
        -11   -1    0    0    0    0  0.00000000000E+00  0.00000000000E+00  0.45593999997E+02  0.45594000000E+02  0.51100000000E-03 0.  1.
         11   -1    0    0    0    0 -0.00000000000E+00 -0.00000000000E+00 -0.45593999997E+02  0.45594000000E+02  0.51100000000E-03 0. -1.
         23    2    1    2    0    0  0.88817841970E-15  0.00000000000E+00  0.00000000000E+00  0.91188000000E+02  0.91188000000E+02 0.  0.
    9900012    2    3    3    0    0  0.45413172873E+01  0.17084094937E+02  0.32299992238E+02  0.54367090708E+02  0.40000014887E+02 0.  0.
         12    1    3    3    0    0 -0.45413172873E+01 -0.17084094937E+02 -0.32299992238E+02  0.36820909292E+02  0.00000000000E+00 0. -1.
         11    1    4    4    0    0  0.86449827222E+01  0.10934072028E+02  0.71299998611E+01  0.15656517993E+02  0.51100000000E-03 0. -1.
        -11    1    4    4    0    0  0.12239763670E+02  0.42518653061E+01  0.11073776668E+02  0.17044609213E+02  0.51100000000E-03 0.  1.
         12    1    4    4    0    0 -0.16343429104E+02  0.18981576030E+01  0.14096215709E+02  0.21665963503E+02  0.00000000000E+00 0. -1.
</event>
<event>
 8    1  0.2433390E-006  0.9118800E+02  0.7816164E-02  0.1184000E+00
        -11   -1    0    0    0    0  0.00000000000E+00  0.00000000000E+00  0.45593999997E+02  0.45594000000E+02  0.51100000000E-03 0.  1.
         11   -1    0    0    0    0 -0.00000000000E+00 -0.00000000000E+00 -0.45593999997E+02  0.45594000000E+02  0.51100000000E-03 0. -1.
         23    2    1    2    0    0 -0.17763568394E-14  0.71054273576E-14 -0.17763568394E-14  0.91188000000E+02  0.91188000000E+02 0.  0.
    9900012    2    3    3    0    0 -0.43825477335E+01  0.35596206573E+02 -0.83353061735E+01  0.54367163834E+02  0.40000181591E+02 0.  0.
        -12    1    3    3    0    0  0.43825477335E+01 -0.35596206573E+02  0.83353061735E+01  0.36820836166E+02  0.00000000000E+00 0.  1.
         11    1    4    4    0    0  0.44387864130E+01  0.11695689669E+02 -0.57568369459E+01  0.13770735403E+02  0.51100000000E-03 0. -1.
        -11    1    4    4    0    0  0.10294841603E+02  0.29327824988E+01  0.40734535580E+01  0.11453296511E+02  0.51100000000E-03 0.  1.
         12    1    4    4    0    0 -0.19116175749E+02  0.20967734405E+02 -0.66519227856E+01  0.29143131920E+02  0.00000000000E+00 0. -1.
</event>
<event>
 8    1  0.2433390E-006  0.9118800E+02  0.7816164E-02  0.1184000E+00
        -11   -1    0    0    0    0  0.00000000000E+00  0.00000000000E+00  0.45593999997E+02  0.45594000000E+02  0.51100000000E-03 0.  1.
         11   -1    0    0    0    0 -0.00000000000E+00 -0.00000000000E+00 -0.45593999997E+02  0.45594000000E+02  0.51100000000E-03 0. -1.
         23    2    1    2    0    0 -0.17763568394E-14  0.00000000000E+00  0.00000000000E+00  0.91188000000E+02  0.91188000000E+02 0.  0.
    9900012    2    3    3    0    0 -0.57468114448E+01 -0.84464700172E+01  0.35375278884E+02  0.54367094882E+02  0.40000024403E+02 0.  0.
         12    1    3    3    0    0  0.57468114448E+01  0.84464700172E+01 -0.35375278884E+02  0.36820905118E+02  0.00000000000E+00 0. -1.
         11    1    4    4    0    0 -0.37860694579E+01 -0.31173166615E+01 -0.66793248841E+01  0.82864567987E+01  0.51100000000E-03 0. -1.
        -11    1    4    4    0    0  0.27894509963E+01 -0.99262064299E-01  0.37653531791E+02  0.37756845027E+02  0.51100000000E-03 0.  1.
        -12    1    4    4    0    0 -0.47501929832E+01 -0.52298912914E+01  0.44010719776E+01  0.83237930566E+01  0.00000000000E+00 0.  1.
</event>
<event>
 8    1  0.2433390E-006  0.9118800E+02  0.7816164E-02  0.1184000E+00
        -11   -1    0    0    0    0  0.00000000000E+00  0.00000000000E+00  0.45593999997E+02  0.45594000000E+02  0.51100000000E-03 0. -1.
         11   -1    0    0    0    0 -0.00000000000E+00 -0.00000000000E+00 -0.45593999997E+02  0.45594000000E+02  0.51100000000E-03 0.  1.
         23    2    1    2    0    0  0.35527136788E-14  0.00000000000E+00 -0.35527136788E-14  0.91188000000E+02  0.91188000000E+02 0.  0.
    9900012    2    3    3    0    0  0.17158061855E+02  0.20048352081E+02 -0.25679637248E+02  0.54367091850E+02  0.40000017491E+02 0.  0.
         12    1    3    3    0    0 -0.17158061855E+02 -0.20048352081E+02  0.25679637248E+02  0.36820908150E+02  0.00000000000E+00 0. -1.
         11    1    4    4    0    0  0.96492784075E+01  0.13399936316E+02 -0.63528543164E+00  0.16524843567E+02  0.51100000000E-03 0. -1.
        -11    1    4    4    0    0  0.11578332276E+02  0.11526155439E+02 -0.54162594408E+01  0.17211795493E+02  0.51100000000E-03 0.  1.
        -12    1    4    4    0    0 -0.40695488289E+01 -0.48777396750E+01 -0.19628092376E+02  0.20630452790E+02  0.00000000000E+00 0.  1.
</event>
<event>
 8    1  0.2433390E-006  0.9118800E+02  0.7816164E-02  0.1184000E+00
        -11   -1    0    0    0    0  0.00000000000E+00  0.00000000000E+00  0.45593999997E+02  0.45594000000E+02  0.51100000000E-03 0. -1.
         11   -1    0    0    0    0 -0.00000000000E+00 -0.00000000000E+00 -0.45593999997E+02  0.45594000000E+02  0.51100000000E-03 0.  1.
         23    2    1    2    0    0  0.88817841970E-15  0.35527136788E-14  0.00000000000E+00  0.91188000000E+02  0.91188000000E+02 0.  0.
    9900012    2    3    3    0    0  0.55252081999E+01 -0.25986110898E+02 -0.25494583928E+02  0.54367086175E+02  0.40000004553E+02 0.  0.
         12    1    3    3    0    0 -0.55252081999E+01  0.25986110898E+02  0.25494583928E+02  0.36820913825E+02  0.00000000000E+00 0. -1.
         11    1    4    4    0    0 -0.72762035373E+01  0.33260591291E+01  0.34128850957E+01  0.86979073451E+01  0.51100000000E-03 0. -1.
        -11    1    4    4    0    0  0.11348452791E+01 -0.18560015874E+02 -0.20632652115E+02  0.27775319918E+02  0.51100000000E-03 0.  1.
         12    1    4    4    0    0  0.11666566458E+02 -0.10752154153E+02 -0.82748169091E+01  0.17893858911E+02  0.00000000000E+00 0. -1.
</event>
<event>
 8    1  0.2433390E-006  0.9118800E+02  0.7816164E-02  0.1184000E+00
        -11   -1    0    0    0    0  0.00000000000E+00  0.00000000000E+00  0.45593999997E+02  0.45594000000E+02  0.51100000000E-03 0.  1.
         11   -1    0    0    0    0 -0.00000000000E+00 -0.00000000000E+00 -0.45593999997E+02  0.45594000000E+02  0.51100000000E-03 0. -1.
         23    2    1    2    0    0 -0.88817841970E-15  0.17763568394E-14  0.00000000000E+00  0.91188000000E+02  0.91188000000E+02 0.  0.
    9900012    2    3    3    0    0 -0.50313831640E+01  0.13760531049E+02 -0.33780355998E+02  0.54367089057E+02  0.40000011123E+02 0.  0.
        -12    1    3    3    0    0  0.50313831640E+01 -0.13760531049E+02  0.33780355998E+02  0.36820910943E+02  0.00000000000E+00 0.  1.
         11    1    4    4    0    0 -0.17921908125E+02  0.57423482253E+01 -0.11513571206E+02  0.22061996196E+02  0.51100000000E-03 0.  1.
        -11    1    4    4    0    0  0.53265064342E+01 -0.67327325137E+00  0.17669785313E+01  0.56521837422E+01  0.51100000000E-03 0. -1.
         12    1    4    4    0    0  0.75640185268E+01  0.86914560754E+01 -0.24033763324E+02  0.26652909119E+02  0.00000000000E+00 0. -1.
</event>
<event>
 8    1  0.2433390E-006  0.9118800E+02  0.7816164E-02  0.1184000E+00
        -11   -1    0    0    0    0  0.00000000000E+00  0.00000000000E+00  0.45593999997E+02  0.45594000000E+02  0.51100000000E-03 0.  1.
         11   -1    0    0    0    0 -0.00000000000E+00 -0.00000000000E+00 -0.45593999997E+02  0.45594000000E+02  0.51100000000E-03 0. -1.
         23    2    1    2    0    0  0.00000000000E+00  0.00000000000E+00  0.00000000000E+00  0.91188000000E+02  0.91188000000E+02 0.  0.
    9900012    2    3    3    0    0 -0.20075834080E+02  0.29970647630E+02  0.73827043188E+01  0.54367039170E+02  0.39999897395E+02 0.  0.
         12    1    3    3    0    0  0.20075834080E+02 -0.29970647630E+02 -0.73827043188E+01  0.36820960830E+02  0.00000000000E+00 0. -1.
         11    1    4    4    0    0  0.17668924666E+01  0.21770806921E+02 -0.66505394938E+01  0.22832424724E+02  0.51100000000E-03 0.  1.
        -11    1    4    4    0    0 -0.21812940062E+02  0.55223016325E+01  0.63230186058E+01  0.23372649273E+02  0.51100000000E-03 0. -1.
        -12    1    4    4    0    0 -0.29786485206E-01  0.26775390775E+01  0.77102252068E+01  0.81619651730E+01  0.00000000000E+00 0.  1.
</event>
<event>
 8    1  0.2433390E-006  0.9118800E+02  0.7816164E-02  0.1184000E+00
        -11   -1    0    0    0    0  0.00000000000E+00  0.00000000000E+00  0.45593999997E+02  0.45594000000E+02  0.51100000000E-03 0.  1.
         11   -1    0    0    0    0 -0.00000000000E+00 -0.00000000000E+00 -0.45593999997E+02  0.45594000000E+02  0.51100000000E-03 0. -1.
         23    2    1    2    0    0  0.00000000000E+00  0.88817841970E-15 -0.71054273576E-14  0.91188000000E+02  0.91188000000E+02 0.  0.
    9900012    2    3    3    0    0 -0.78882692944E+01 -0.61603746638E+01  0.35434485979E+02  0.54367111838E+02  0.40000063057E+02 0.  0.
         12    1    3    3    0    0  0.78882692944E+01  0.61603746638E+01 -0.35434485979E+02  0.36820888162E+02  0.00000000000E+00 0. -1.
         11    1    4    4    0    0  0.26376092636E+01 -0.42947463077E+01 -0.80473905473E+01  0.94953843186E+01  0.51100000000E-03 0. -1.
        -11    1    4    4    0    0 -0.64276014933E+01 -0.18064401672E+01  0.21565594924E+02  0.22575477220E+02  0.51100000000E-03 0.  1.
         12    1    4    4    0    0 -0.40982770647E+01 -0.59188188877E-01  0.21916281602E+02  0.22296250299E+02  0.00000000000E+00 0. -1.
</event>
<event>
 8    1  0.2433390E-006  0.9118800E+02  0.7816164E-02  0.1184000E+00
        -11   -1    0    0    0    0  0.00000000000E+00  0.00000000000E+00  0.45593999997E+02  0.45594000000E+02  0.51100000000E-03 0.  1.
         11   -1    0    0    0    0 -0.00000000000E+00 -0.00000000000E+00 -0.45593999997E+02  0.45594000000E+02  0.51100000000E-03 0. -1.
         23    2    1    2    0    0  0.88817841970E-15 -0.71054273576E-14  0.17763568394E-14  0.91188000000E+02  0.91188000000E+02 0.  0.
    9900012    2    3    3    0    0 -0.37191448434E+01  0.33900307244E+02 -0.13882199955E+02  0.54367104503E+02  0.40000046335E+02 0.  0.
        -12    1    3    3    0    0  0.37191448434E+01 -0.33900307244E+02  0.13882199955E+02  0.36820895497E+02  0.00000000000E+00 0.  1.
         11    1    4    4    0    0  0.47011948371E+00  0.14976030744E+02 -0.13429433368E+02  0.20120939094E+02  0.51100000000E-03 0. -1.
        -11    1    4    4    0    0 -0.21773248686E+01  0.14407948046E+01 -0.12596451851E+02  0.12864184108E+02  0.51100000000E-03 0.  1.
         12    1    4    4    0    0 -0.20119394584E+01  0.17483481695E+02  0.12143685264E+02  0.21381981301E+02  0.00000000000E+00 0. -1.
</event>
<event>
 8    1  0.2433390E-006  0.9118800E+02  0.7816164E-02  0.1184000E+00
        -11   -1    0    0    0    0  0.00000000000E+00  0.00000000000E+00  0.45593999997E+02  0.45594000000E+02  0.51100000000E-03 0. -1.
         11   -1    0    0    0    0 -0.00000000000E+00 -0.00000000000E+00 -0.45593999997E+02  0.45594000000E+02  0.51100000000E-03 0.  1.
         23    2    1    2    0    0  0.00000000000E+00 -0.17763568394E-14  0.35527136788E-14  0.91188000000E+02  0.91188000000E+02 0.  0.
    9900012    2    3    3    0    0 -0.22537500663E+02  0.13373406164E+02 -0.25864910201E+02  0.54367075131E+02  0.39999979375E+02 0.  0.
         12    1    3    3    0    0  0.22537500663E+02 -0.13373406164E+02  0.25864910201E+02  0.36820924869E+02  0.00000000000E+00 0. -1.
         11    1    4    4    0    0 -0.38800441974E+01  0.10323722922E+02 -0.65608777959E+01  0.12832736094E+02  0.51100000000E-03 0. -1.
        -11    1    4    4    0    0 -0.25923590780E+02 -0.11228276044E+01 -0.74098304044E+01  0.26985160508E+02  0.51100000000E-03 0.  1.
        -12    1    4    4    0    0  0.72661343144E+01  0.41725108461E+01 -0.11894202000E+02  0.14549178529E+02  0.00000000000E+00 0.  1.
</event>
<event>
 8    1  0.2433390E-006  0.9118800E+02  0.7816164E-02  0.1184000E+00
        -11   -1    0    0    0    0  0.00000000000E+00  0.00000000000E+00  0.45593999997E+02  0.45594000000E+02  0.51100000000E-03 0. -1.
         11   -1    0    0    0    0 -0.00000000000E+00 -0.00000000000E+00 -0.45593999997E+02  0.45594000000E+02  0.51100000000E-03 0.  1.
         23    2    1    2    0    0  0.00000000000E+00  0.35527136788E-14 -0.35527136788E-14  0.91188000000E+02  0.91188000000E+02 0.  0.
    9900012    2    3    3    0    0 -0.18982970620E+02  0.21894724425E+02 -0.22716669984E+02  0.54367092538E+02  0.40000019058E+02 0.  0.
         12    1    3    3    0    0  0.18982970620E+02 -0.21894724425E+02  0.22716669984E+02  0.36820907462E+02  0.00000000000E+00 0. -1.
         11    1    4    4    0    0 -0.94227398581E+00  0.51028187267E+01  0.76913319709E+01  0.92781047079E+01  0.51100000000E-03 0. -1.
        -11    1    4    4    0    0  0.26995484690E+01 -0.16744352778E+01  0.83880867619E+00  0.32855586576E+01  0.51100000000E-03 0.  1.
        -12    1    4    4    0    0 -0.20740245103E+02  0.18466340976E+02 -0.31246810631E+02  0.41803429172E+02  0.00000000000E+00 0.  1.
</event>
<event>
 8    1  0.2433390E-006  0.9118800E+02  0.7816164E-02  0.1184000E+00
        -11   -1    0    0    0    0  0.00000000000E+00  0.00000000000E+00  0.45593999997E+02  0.45594000000E+02  0.51100000000E-03 0.  1.
         11   -1    0    0    0    0 -0.00000000000E+00 -0.00000000000E+00 -0.45593999997E+02  0.45594000000E+02  0.51100000000E-03 0. -1.
         23    2    1    2    0    0  0.88817841970E-15  0.00000000000E+00  0.00000000000E+00  0.91188000000E+02  0.91188000000E+02 0.  0.
    9900012    2    3    3    0    0  0.41719395813E+01 -0.32749720096E+02 -0.16304303812E+02  0.54367087884E+02  0.40000008450E+02 0.  0.
         12    1    3    3    0    0 -0.41719395813E+01  0.32749720096E+02  0.16304303812E+02  0.36820912116E+02  0.00000000000E+00 0. -1.
         11    1    4    4    0    0  0.11442598723E+02 -0.22760166432E+02  0.46813561749E+00  0.25478959806E+02  0.51100000000E-03 0. -1.
        -11    1    4    4    0    0  0.66799222471E+01 -0.11401572628E+01 -0.67519867651E+01  0.95661196599E+01  0.51100000000E-03 0.  1.
         12    1    4    4    0    0 -0.13950581389E+02 -0.88493964010E+01 -0.10020452664E+02  0.19322008419E+02  0.00000000000E+00 0. -1.
</event>
<event>
 8    1  0.2433390E-006  0.9118800E+02  0.7816164E-02  0.1184000E+00
        -11   -1    0    0    0    0  0.00000000000E+00  0.00000000000E+00  0.45593999997E+02  0.45594000000E+02  0.51100000000E-03 0.  1.
         11   -1    0    0    0    0 -0.00000000000E+00 -0.00000000000E+00 -0.45593999997E+02  0.45594000000E+02  0.51100000000E-03 0. -1.
         23    2    1    2    0    0 -0.17763568394E-14  0.00000000000E+00  0.00000000000E+00  0.91188000000E+02  0.91188000000E+02 0.  0.
    9900012    2    3    3    0    0 -0.14863606691E+02  0.19566049437E+02 -0.27423020057E+02  0.54367093934E+02  0.40000022242E+02 0.  0.
        -12    1    3    3    0    0  0.14863606691E+02 -0.19566049437E+02  0.27423020057E+02  0.36820906066E+02  0.00000000000E+00 0.  1.
         11    1    4    4    0    0 -0.68185726364E+01  0.13857823036E+01 -0.62992413901E+01  0.93858280265E+01  0.51100000000E-03 0. -1.
        -11    1    4    4    0    0  0.29538178933E+01  0.21374094025E+02 -0.24875061040E+02  0.32929403237E+02  0.51100000000E-03 0.  1.
        -12    1    4    4    0    0 -0.10998851948E+02 -0.31938268910E+01  0.37512823734E+01  0.12051862671E+02  0.00000000000E+00 0.  1.
</event>
<event>
 8    1  0.2433390E-006  0.9118800E+02  0.7816164E-02  0.1184000E+00
        -11   -1    0    0    0    0  0.00000000000E+00  0.00000000000E+00  0.45593999997E+02  0.45594000000E+02  0.51100000000E-03 0.  1.
         11   -1    0    0    0    0 -0.00000000000E+00 -0.00000000000E+00 -0.45593999997E+02  0.45594000000E+02  0.51100000000E-03 0. -1.
         23    2    1    2    0    0  0.00000000000E+00 -0.71054273576E-14  0.00000000000E+00  0.91188000000E+02  0.91188000000E+02 0.  0.
    9900012    2    3    3    0    0 -0.33532147119E+01  0.34688744505E+02 -0.11883869461E+02  0.54367090213E+02  0.40000013757E+02 0.  0.
         12    1    3    3    0    0  0.33532147119E+01 -0.34688744505E+02  0.11883869461E+02  0.36820909787E+02  0.00000000000E+00 0. -1.
         11    1    4    4    0    0  0.24909049039E+01  0.55283557408E+01 -0.87413513195E+01  0.10638540670E+02  0.51100000000E-03 0. -1.
        -11    1    4    4    0    0  0.74424768275E+01  0.11167130598E+01 -0.94311488604E+01  0.12065822743E+02  0.51100000000E-03 0.  1.
        -12    1    4    4    0    0 -0.13286596443E+02  0.28043675704E+02  0.62886307187E+01  0.31662726799E+02  0.00000000000E+00 0.  1.
</event>
<event>
 8    1  0.2433390E-006  0.9118800E+02  0.7816164E-02  0.1184000E+00
        -11   -1    0    0    0    0  0.00000000000E+00  0.00000000000E+00  0.45593999997E+02  0.45594000000E+02  0.51100000000E-03 0.  1.
         11   -1    0    0    0    0 -0.00000000000E+00 -0.00000000000E+00 -0.45593999997E+02  0.45594000000E+02  0.51100000000E-03 0. -1.
         23    2    1    2    0    0  0.00000000000E+00  0.00000000000E+00 -0.88817841970E-15  0.91188000000E+02  0.91188000000E+02 0.  0.
    9900012    2    3    3    0    0 -0.23501697822E+02  0.28285986278E+02  0.18315538579E+01  0.54367062888E+02  0.39999951466E+02 0.  0.
        -12    1    3    3    0    0  0.23501697822E+02 -0.28285986278E+02 -0.18315538579E+01  0.36820937112E+02  0.00000000000E+00 0.  1.
         11    1    4    4    0    0  0.11176160831E+01  0.23156962137E+02  0.40550005796E+01  0.23535866057E+02  0.51100000000E-03 0. -1.
        -11    1    4    4    0    0 -0.14817409956E+02 -0.15834581609E+01  0.63318973988E+01  0.16191229184E+02  0.51100000000E-03 0.  1.
         12    1    4    4    0    0 -0.98019039494E+01  0.67124823023E+01 -0.85553441205E+01  0.14639967647E+02  0.00000000000E+00 0. -1.
</event>
<event>
 8    1  0.2433390E-006  0.9118800E+02  0.7816164E-02  0.1184000E+00
        -11   -1    0    0    0    0  0.00000000000E+00  0.00000000000E+00  0.45593999997E+02  0.45594000000E+02  0.51100000000E-03 0.  1.
         11   -1    0    0    0    0 -0.00000000000E+00 -0.00000000000E+00 -0.45593999997E+02  0.45594000000E+02  0.51100000000E-03 0. -1.
         23    2    1    2    0    0  0.35527136788E-14  0.35527136788E-14  0.88817841970E-15  0.91188000000E+02  0.91188000000E+02 0.  0.
    9900012    2    3    3    0    0 -0.21645070078E+02 -0.29646575913E+02  0.28900552355E+01  0.54367069250E+02  0.39999965970E+02 0.  0.
         12    1    3    3    0    0  0.21645070078E+02  0.29646575913E+02 -0.28900552355E+01  0.36820930750E+02  0.00000000000E+00 0. -1.
         11    1    4    4    0    0 -0.13864394191E+02 -0.12035574042E+01  0.67292030811E+01  0.15458077211E+02  0.51100000000E-03 0. -1.
        -11    1    4    4    0    0 -0.19647270496E+01 -0.29124149131E+02  0.36331818703E+01  0.29415577943E+02  0.51100000000E-03 0.  1.
        -12    1    4    4    0    0 -0.58159488376E+01  0.68113062268E+00 -0.74723297158E+01  0.94934140955E+01  0.00000000000E+00 0.  1.
</event>
<event>
 8    1  0.2433390E-006  0.9118800E+02  0.7816164E-02  0.1184000E+00
        -11   -1    0    0    0    0  0.00000000000E+00  0.00000000000E+00  0.45593999997E+02  0.45594000000E+02  0.51100000000E-03 0. -1.
         11   -1    0    0    0    0 -0.00000000000E+00 -0.00000000000E+00 -0.45593999997E+02  0.45594000000E+02  0.51100000000E-03 0.  1.
         23    2    1    2    0    0  0.00000000000E+00  0.00000000000E+00  0.35527136788E-14  0.91188000000E+02  0.91188000000E+02 0.  0.
    9900012    2    3    3    0    0 -0.10290473828E+02 -0.23535533390E+02  0.26381211278E+02  0.54367034613E+02  0.39999887006E+02 0.  0.
        -12    1    3    3    0    0  0.10290473828E+02  0.23535533390E+02 -0.26381211278E+02  0.36820965387E+02  0.00000000000E+00 0.  1.
         11    1    4    4    0    0 -0.25025789112E+01 -0.63826020959E+01 -0.15426067120E+01  0.70271008567E+01  0.51100000000E-03 0. -1.
        -11    1    4    4    0    0  0.69051132447E+01 -0.20645201755E+01 -0.46309992900E+01  0.85667372530E+01  0.51100000000E-03 0.  1.
         12    1    4    4    0    0 -0.14693008161E+02 -0.15088411119E+02  0.32554817280E+02  0.38773196503E+02  0.00000000000E+00 0. -1.
</event>
<event>
 8    1  0.2433390E-006  0.9118800E+02  0.7816164E-02  0.1184000E+00
        -11   -1    0    0    0    0  0.00000000000E+00  0.00000000000E+00  0.45593999997E+02  0.45594000000E+02  0.51100000000E-03 0. -1.
         11   -1    0    0    0    0 -0.00000000000E+00 -0.00000000000E+00 -0.45593999997E+02  0.45594000000E+02  0.51100000000E-03 0.  1.
         23    2    1    2    0    0  0.00000000000E+00  0.00000000000E+00  0.00000000000E+00  0.91188000000E+02  0.91188000000E+02 0.  0.
    9900012    2    3    3    0    0 -0.34462595544E+02  0.11840534685E+02  0.52841671472E+01  0.54366930275E+02  0.39999649146E+02 0.  0.
        -12    1    3    3    0    0  0.34462595544E+02 -0.11840534685E+02 -0.52841671472E+01  0.36821069725E+02  0.00000000000E+00 0.  1.
         11    1    4    4    0    0 -0.28287792211E+01  0.52433088276E+00  0.59048769157E+01  0.65684462704E+01  0.51100000000E-03 0. -1.
        -11    1    4    4    0    0 -0.97407555939E+01 -0.11596412846E+02 -0.46746253579E+01  0.15849644568E+02  0.51100000000E-03 0.  1.
         12    1    4    4    0    0 -0.21893060729E+02  0.22912616647E+02  0.40539155894E+01  0.31948839437E+02  0.00000000000E+00 0. -1.
</event>
<event>
 8    1  0.2433390E-006  0.9118800E+02  0.7816164E-02  0.1184000E+00
        -11   -1    0    0    0    0  0.00000000000E+00  0.00000000000E+00  0.45593999997E+02  0.45594000000E+02  0.51100000000E-03 0. -1.
         11   -1    0    0    0    0 -0.00000000000E+00 -0.00000000000E+00 -0.45593999997E+02  0.45594000000E+02  0.51100000000E-03 0.  1.
         23    2    1    2    0    0  0.00000000000E+00  0.00000000000E+00  0.00000000000E+00  0.91188000000E+02  0.91188000000E+02 0.  0.
    9900012    2    3    3    0    0  0.20493626935E+02  0.60336797245E+01  0.29989775088E+02  0.54367073262E+02  0.39999975116E+02 0.  0.
        -12    1    3    3    0    0 -0.20493626935E+02 -0.60336797245E+01 -0.29989775088E+02  0.36820926738E+02  0.00000000000E+00 0.  1.
         11    1    4    4    0    0  0.10271253961E+02  0.14393529192E+02  0.32047900099E+02  0.36602462234E+02  0.51100000000E-03 0. -1.
        -11    1    4    4    0    0  0.15450134438E+00 -0.33564947774E+01 -0.51094966583E+01  0.61152991929E+01  0.51100000000E-03 0.  1.
         12    1    4    4    0    0  0.10067871630E+02 -0.50033546904E+01  0.30513716470E+01  0.11649311836E+02  0.00000000000E+00 0. -1.
</event>
<event>
 8    1  0.2433390E-006  0.9118800E+02  0.7816164E-02  0.1184000E+00
        -11   -1    0    0    0    0  0.00000000000E+00  0.00000000000E+00  0.45593999997E+02  0.45594000000E+02  0.51100000000E-03 0. -1.
         11   -1    0    0    0    0 -0.00000000000E+00 -0.00000000000E+00 -0.45593999997E+02  0.45594000000E+02  0.51100000000E-03 0.  1.
         23    2    1    2    0    0 -0.35527136788E-14 -0.35527136788E-14  0.00000000000E+00  0.91188000000E+02  0.91188000000E+02 0.  0.
    9900012    2    3    3    0    0 -0.28101789818E+02 -0.16485972867E+02  0.17154484013E+02  0.54367160600E+02  0.40000174219E+02 0.  0.
        -12    1    3    3    0    0  0.28101789818E+02  0.16485972867E+02 -0.17154484013E+02  0.36820839400E+02  0.00000000000E+00 0.  1.
         11    1    4    4    0    0 -0.24024908106E+02 -0.10983156212E+02  0.10040612872E+02  0.28260216506E+02  0.51100000000E-03 0. -1.
        -11    1    4    4    0    0 -0.13370191113E+02 -0.71971676305E+01  0.68471628027E+01  0.16656676469E+02  0.51100000000E-03 0.  1.
        -12    1    4    4    0    0  0.92933094001E+01  0.16943509758E+01  0.26670833901E+00  0.94502676245E+01  0.00000000000E+00 0.  1.
</event>
<event>
 8    1  0.2433390E-006  0.9118800E+02  0.7816164E-02  0.1184000E+00
        -11   -1    0    0    0    0  0.00000000000E+00  0.00000000000E+00  0.45593999997E+02  0.45594000000E+02  0.51100000000E-03 0.  1.
         11   -1    0    0    0    0 -0.00000000000E+00 -0.00000000000E+00 -0.45593999997E+02  0.45594000000E+02  0.51100000000E-03 0. -1.
         23    2    1    2    0    0 -0.44408920985E-15 -0.35527136788E-14  0.00000000000E+00  0.91188000000E+02  0.91188000000E+02 0.  0.
    9900012    2    3    3    0    0 -0.32090397560E+01 -0.27493540038E+02 -0.24281429464E+02  0.54367075286E+02  0.39999979729E+02 0.  0.
        -12    1    3    3    0    0  0.32090397560E+01  0.27493540038E+02  0.24281429464E+02  0.36820924714E+02  0.00000000000E+00 0.  1.
         11    1    4    4    0    0 -0.92590266753E+01 -0.18520457217E+02 -0.23679308318E+02  0.31455469368E+02  0.51100000000E-03 0. -1.
        -11    1    4    4    0    0  0.85954266499E+01 -0.47787935077E+01 -0.89052172015E+01  0.13267295141E+02  0.51100000000E-03 0.  1.
        -12    1    4    4    0    0 -0.25454397306E+01 -0.41942893136E+01  0.83030960550E+01  0.96443107772E+01  0.00000000000E+00 0.  1.
</event>
<event>
 8    1  0.2433390E-006  0.9118800E+02  0.7816164E-02  0.1184000E+00
        -11   -1    0    0    0    0  0.00000000000E+00  0.00000000000E+00  0.45593999997E+02  0.45594000000E+02  0.51100000000E-03 0. -1.
         11   -1    0    0    0    0 -0.00000000000E+00 -0.00000000000E+00 -0.45593999997E+02  0.45594000000E+02  0.51100000000E-03 0.  1.
         23    2    1    2    0    0  0.17763568394E-14  0.35527136788E-14  0.00000000000E+00  0.91188000000E+02  0.91188000000E+02 0.  0.
    9900012    2    3    3    0    0  0.13201811958E+02  0.19822097028E+02  0.28081614910E+02  0.54367075711E+02  0.39999980697E+02 0.  0.
        -12    1    3    3    0    0 -0.13201811958E+02 -0.19822097028E+02 -0.28081614910E+02  0.36820924289E+02  0.00000000000E+00 0.  1.
         11    1    4    4    0    0  0.10260770185E+02  0.25168173883E+01 -0.45376990039E+00  0.10574671717E+02  0.51100000000E-03 0. -1.
        -11    1    4    4    0    0  0.54918414866E+01  0.21936971140E+02  0.10379518128E+02  0.24882231061E+02  0.51100000000E-03 0.  1.
         12    1    4    4    0    0 -0.25507997129E+01 -0.46316915011E+01  0.18155866683E+02  0.18910172933E+02  0.00000000000E+00 0. -1.
</event>
<event>
 8    1  0.2433390E-006  0.9118800E+02  0.7816164E-02  0.1184000E+00
        -11   -1    0    0    0    0  0.00000000000E+00  0.00000000000E+00  0.45593999997E+02  0.45594000000E+02  0.51100000000E-03 0. -1.
         11   -1    0    0    0    0 -0.00000000000E+00 -0.00000000000E+00 -0.45593999997E+02  0.45594000000E+02  0.51100000000E-03 0.  1.
         23    2    1    2    0    0  0.00000000000E+00  0.35527136788E-14  0.88817841970E-15  0.91188000000E+02  0.91188000000E+02 0.  0.
    9900012    2    3    3    0    0 -0.26872353313E+02 -0.23991060519E+02  0.76212688581E+01  0.54367107881E+02  0.40000054037E+02 0.  0.
        -12    1    3    3    0    0  0.26872353313E+02  0.23991060519E+02 -0.76212688581E+01  0.36820892119E+02  0.00000000000E+00 0.  1.
         11    1    4    4    0    0 -0.22111888941E+02 -0.24774673606E+02  0.18556762617E+02  0.38040419607E+02  0.51100000000E-03 0. -1.
        -11    1    4    4    0    0 -0.40320222059E+01  0.51108048356E+01 -0.98492676589E+01  0.11806167999E+02  0.51100000000E-03 0.  1.
         12    1    4    4    0    0 -0.72844216614E+00 -0.43271917491E+01 -0.10862260996E+01  0.45205202757E+01  0.00000000000E+00 0. -1.
</event>
<event>
 8    1  0.2433390E-006  0.9118800E+02  0.7816164E-02  0.1184000E+00
        -11   -1    0    0    0    0  0.00000000000E+00  0.00000000000E+00  0.45593999997E+02  0.45594000000E+02  0.51100000000E-03 0.  1.
         11   -1    0    0    0    0 -0.00000000000E+00 -0.00000000000E+00 -0.45593999997E+02  0.45594000000E+02  0.51100000000E-03 0. -1.
         23    2    1    2    0    0  0.00000000000E+00 -0.88817841970E-15  0.00000000000E+00  0.91188000000E+02  0.91188000000E+02 0.  0.
    9900012    2    3    3    0    0  0.32368226870E+02 -0.43161313410E+01 -0.17013058889E+02  0.54367146219E+02  0.40000141434E+02 0.  0.
        -12    1    3    3    0    0 -0.32368226870E+02  0.43161313410E+01  0.17013058889E+02  0.36820853781E+02  0.00000000000E+00 0.  1.
         11    1    4    4    0    0  0.23418830579E+01 -0.26793853933E+01 -0.18966903891E+02  0.19297848736E+02  0.51100000000E-03 0. -1.
        -11    1    4    4    0    0  0.48821825522E+00 -0.48006959527E+01 -0.17483053997E+01  0.51324078878E+01  0.51100000000E-03 0.  1.
         12    1    4    4    0    0  0.29538125556E+02  0.31639500051E+01  0.37021504024E+01  0.29936889595E+02  0.00000000000E+00 0. -1.
</event>
<event>
 8    1  0.2433390E-006  0.9118800E+02  0.7816164E-02  0.1184000E+00
        -11   -1    0    0    0    0  0.00000000000E+00  0.00000000000E+00  0.45593999997E+02  0.45594000000E+02  0.51100000000E-03 0.  1.
         11   -1    0    0    0    0 -0.00000000000E+00 -0.00000000000E+00 -0.45593999997E+02  0.45594000000E+02  0.51100000000E-03 0. -1.
         23    2    1    2    0    0  0.35527136788E-14  0.00000000000E+00 -0.17763568394E-14  0.91188000000E+02  0.91188000000E+02 0.  0.
    9900012    2    3    3    0    0  0.27522609965E+02  0.22875099304E+02 -0.86608138619E+01  0.54367164537E+02  0.40000183194E+02 0.  0.
        -12    1    3    3    0    0 -0.27522609965E+02 -0.22875099304E+02  0.86608138619E+01  0.36820835463E+02  0.00000000000E+00 0.  1.
         11    1    4    4    0    0  0.18787109285E+02  0.10844930507E+02  0.49764030498E+01  0.22256068399E+02  0.51100000000E-03 0. -1.
        -11    1    4    4    0    0 -0.49640212261E+01  0.51539464052E+01  0.44311864321E+01  0.84166551396E+01  0.51100000000E-03 0.  1.
         12    1    4    4    0    0  0.13699521906E+02  0.68762223916E+01 -0.18068403344E+02  0.23694440999E+02  0.00000000000E+00 0. -1.
</event>
<event>
 8    1  0.2433390E-006  0.9118800E+02  0.7816164E-02  0.1184000E+00
        -11   -1    0    0    0    0  0.00000000000E+00  0.00000000000E+00  0.45593999997E+02  0.45594000000E+02  0.51100000000E-03 0. -1.
         11   -1    0    0    0    0 -0.00000000000E+00 -0.00000000000E+00 -0.45593999997E+02  0.45594000000E+02  0.51100000000E-03 0.  1.
         23    2    1    2    0    0  0.00000000000E+00  0.00000000000E+00  0.00000000000E+00  0.91188000000E+02  0.91188000000E+02 0.  0.
    9900012    2    3    3    0    0 -0.77075161375E+01 -0.13571385871E+02 -0.33349531330E+02  0.54367088015E+02  0.40000008749E+02 0.  0.
         12    1    3    3    0    0  0.77075161375E+01  0.13571385871E+02  0.33349531330E+02  0.36820911985E+02  0.00000000000E+00 0. -1.
         11    1    4    4    0    0  0.74445051765E+00  0.12265900995E+02 -0.72933769838E+01  0.14289852409E+02  0.51100000000E-03 0. -1.
        -11    1    4    4    0    0 -0.36430539054E+01 -0.25713285943E+00 -0.65871824321E+00  0.37110468941E+01  0.51100000000E-03 0.  1.
         12    1    4    4    0    0 -0.48089127497E+01 -0.25580154007E+02 -0.25397436103E+02  0.36366188712E+02  0.00000000000E+00 0. -1.
</event>
<event>
 8    1  0.2433390E-006  0.9118800E+02  0.7816164E-02  0.1184000E+00
        -11   -1    0    0    0    0  0.00000000000E+00  0.00000000000E+00  0.45593999997E+02  0.45594000000E+02  0.51100000000E-03 0.  1.
         11   -1    0    0    0    0 -0.00000000000E+00 -0.00000000000E+00 -0.45593999997E+02  0.45594000000E+02  0.51100000000E-03 0. -1.
         23    2    1    2    0    0 -0.35527136788E-14 -0.49960036108E-15  0.00000000000E+00  0.91188000000E+02  0.91188000000E+02 0.  0.
    9900012    2    3    3    0    0 -0.26435231011E+02 -0.28483757649E+00  0.25629613354E+02  0.54367086761E+02  0.40000005890E+02 0.  0.
         12    1    3    3    0    0  0.26435231011E+02  0.28483757649E+00 -0.25629613354E+02  0.36820913239E+02  0.00000000000E+00 0. -1.
         11    1    4    4    0    0 -0.65933890564E+01 -0.16858214198E+02  0.33518594896E+01  0.18409430396E+02  0.51100000000E-03 0. -1.
        -11    1    4    4    0    0 -0.13951829279E+02  0.78521339807E+01  0.19187578319E+02  0.24989451980E+02  0.51100000000E-03 0.  1.
        -12    1    4    4    0    0 -0.58900126760E+01  0.87212426410E+01  0.30901755455E+01  0.10968204385E+02  0.00000000000E+00 0.  1.
</event>
<event>
 8    1  0.2433390E-006  0.9118800E+02  0.7816164E-02  0.1184000E+00
        -11   -1    0    0    0    0  0.00000000000E+00  0.00000000000E+00  0.45593999997E+02  0.45594000000E+02  0.51100000000E-03 0.  1.
         11   -1    0    0    0    0 -0.00000000000E+00 -0.00000000000E+00 -0.45593999997E+02  0.45594000000E+02  0.51100000000E-03 0. -1.
         23    2    1    2    0    0  0.00000000000E+00  0.00000000000E+00  0.00000000000E+00  0.91188000000E+02  0.91188000000E+02 0.  0.
    9900012    2    3    3    0    0  0.24518945434E+02 -0.19848091717E+02  0.18990874795E+02  0.54367098931E+02  0.40000033634E+02 0.  0.
         12    1    3    3    0    0 -0.24518945434E+02  0.19848091717E+02 -0.18990874795E+02  0.36820901069E+02  0.00000000000E+00 0. -1.
         11    1    4    4    0    0  0.48326652337E-01  0.89100075690E+01  0.10679612023E+02  0.13908439293E+02  0.51100000000E-03 0. -1.
        -11    1    4    4    0    0  0.16982169064E+02 -0.23390331947E+02  0.10894198918E+02  0.30889889366E+02  0.51100000000E-03 0.  1.
        -12    1    4    4    0    0  0.74884497176E+01 -0.53677673396E+01 -0.25829361463E+01  0.95687702721E+01  0.00000000000E+00 0.  1.
</event>
<event>
 8    1  0.2433390E-006  0.9118800E+02  0.7816164E-02  0.1184000E+00
        -11   -1    0    0    0    0  0.00000000000E+00  0.00000000000E+00  0.45593999997E+02  0.45594000000E+02  0.51100000000E-03 0.  1.
         11   -1    0    0    0    0 -0.00000000000E+00 -0.00000000000E+00 -0.45593999997E+02  0.45594000000E+02  0.51100000000E-03 0. -1.
         23    2    1    2    0    0  0.71054273576E-14  0.13322676296E-14  0.00000000000E+00  0.91188000000E+02  0.91188000000E+02 0.  0.
    9900012    2    3    3    0    0 -0.35796173024E+02  0.92322885436E+00  0.85768017337E+01  0.54367083626E+02  0.39999998742E+02 0.  0.
         12    1    3    3    0    0  0.35796173024E+02 -0.92322885436E+00 -0.85768017337E+01  0.36820916374E+02  0.00000000000E+00 0. -1.
         11    1    4    4    0    0 -0.17254963179E+02  0.75129983675E+01 -0.16014717965E+01  0.18887657635E+02  0.51100000000E-03 0. -1.
        -11    1    4    4    0    0 -0.23690829174E+02  0.17283693520E+01  0.97794953179E+01  0.25688152454E+02  0.51100000000E-03 0.  1.
         12    1    4    4    0    0  0.51496193287E+01 -0.83181388652E+01  0.39877821225E+00  0.97912735368E+01  0.00000000000E+00 0. -1.
</event>
<event>
 8    1  0.2433390E-006  0.9118800E+02  0.7816164E-02  0.1184000E+00
        -11   -1    0    0    0    0  0.00000000000E+00  0.00000000000E+00  0.45593999997E+02  0.45594000000E+02  0.51100000000E-03 0. -1.
         11   -1    0    0    0    0 -0.00000000000E+00 -0.00000000000E+00 -0.45593999997E+02  0.45594000000E+02  0.51100000000E-03 0.  1.
         23    2    1    2    0    0  0.00000000000E+00  0.00000000000E+00  0.00000000000E+00  0.91188000000E+02  0.91188000000E+02 0.  0.
    9900012    2    3    3    0    0 -0.15018215389E+02 -0.22704292154E+02 -0.24794115455E+02  0.54367084247E+02  0.40000000158E+02 0.  0.
         12    1    3    3    0    0  0.15018215389E+02  0.22704292154E+02  0.24794115455E+02  0.36820915753E+02  0.00000000000E+00 0. -1.
         11    1    4    4    0    0  0.17139887714E+01 -0.49025966684E+01 -0.51193606371E+01  0.72925348951E+01  0.51100000000E-03 0. -1.
        -11    1    4    4    0    0  0.79309138573E+01 -0.11900724724E+02 -0.15984313805E+02  0.21448191804E+02  0.51100000000E-03 0.  1.
         12    1    4    4    0    0 -0.24663118018E+02 -0.59009707610E+01 -0.36904410126E+01  0.25626357548E+02  0.00000000000E+00 0. -1.
</event>
<event>
 8    1  0.2433390E-006  0.9118800E+02  0.7816164E-02  0.1184000E+00
        -11   -1    0    0    0    0  0.00000000000E+00  0.00000000000E+00  0.45593999997E+02  0.45594000000E+02  0.51100000000E-03 0. -1.
         11   -1    0    0    0    0 -0.00000000000E+00 -0.00000000000E+00 -0.45593999997E+02  0.45594000000E+02  0.51100000000E-03 0.  1.
         23    2    1    2    0    0  0.00000000000E+00 -0.17763568394E-14  0.00000000000E+00  0.91188000000E+02  0.91188000000E+02 0.  0.
    9900012    2    3    3    0    0 -0.40354453333E+01  0.13229993125E+02  0.34124238379E+02  0.54367065981E+02  0.39999958516E+02 0.  0.
        -12    1    3    3    0    0  0.40354453333E+01 -0.13229993125E+02 -0.34124238379E+02  0.36820934019E+02  0.00000000000E+00 0.  1.
         11    1    4    4    0    0 -0.65919694833E+01  0.12499669788E+02  0.34874817021E+02  0.37629093385E+02  0.51100000000E-03 0. -1.
        -11    1    4    4    0    0 -0.68540796397E+01  0.51849202366E+00  0.15536454542E+01  0.70470601065E+01  0.51100000000E-03 0.  1.
         12    1    4    4    0    0  0.94106037897E+01  0.21183131400E+00 -0.23042240960E+01  0.96909124894E+01  0.00000000000E+00 0. -1.
</event>
<event>
 8    1  0.2433390E-006  0.9118800E+02  0.7816164E-02  0.1184000E+00
        -11   -1    0    0    0    0  0.00000000000E+00  0.00000000000E+00  0.45593999997E+02  0.45594000000E+02  0.51100000000E-03 0.  1.
         11   -1    0    0    0    0 -0.00000000000E+00 -0.00000000000E+00 -0.45593999997E+02  0.45594000000E+02  0.51100000000E-03 0. -1.
         23    2    1    2    0    0 -0.17763568394E-14  0.00000000000E+00  0.00000000000E+00  0.91188000000E+02  0.91188000000E+02 0.  0.
    9900012    2    3    3    0    0  0.12292772095E+02  0.75192819329E+01 -0.33884047340E+02  0.54367075098E+02  0.39999979300E+02 0.  0.
        -12    1    3    3    0    0 -0.12292772095E+02 -0.75192819329E+01  0.33884047340E+02  0.36820924902E+02  0.00000000000E+00 0.  1.
         11    1    4    4    0    0  0.26081644943E+01 -0.43080076123E+01 -0.77555327916E+00  0.50953836722E+01  0.51100000000E-03 0. -1.
        -11    1    4    4    0    0 -0.11871164183E+02  0.29015724914E+01 -0.16932388275E+02  0.20881796736E+02  0.51100000000E-03 0.  1.
        -12    1    4    4    0    0  0.21555771783E+02  0.89257170537E+01 -0.16176105785E+02  0.28389894689E+02  0.00000000000E+00 0.  1.
</event>
<event>
 8    1  0.2433390E-006  0.9118800E+02  0.7816164E-02  0.1184000E+00
        -11   -1    0    0    0    0  0.00000000000E+00  0.00000000000E+00  0.45593999997E+02  0.45594000000E+02  0.51100000000E-03 0. -1.
         11   -1    0    0    0    0 -0.00000000000E+00 -0.00000000000E+00 -0.45593999997E+02  0.45594000000E+02  0.51100000000E-03 0.  1.
         23    2    1    2    0    0 -0.17763568394E-14 -0.17763568394E-14  0.00000000000E+00  0.91188000000E+02  0.91188000000E+02 0.  0.
    9900012    2    3    3    0    0  0.19441405890E+01 -0.12899012904E+02  0.34432781281E+02  0.54367073297E+02  0.39999975195E+02 0.  0.
        -12    1    3    3    0    0 -0.19441405890E+01  0.12899012904E+02 -0.34432781281E+02  0.36820926703E+02  0.00000000000E+00 0.  1.
         11    1    4    4    0    0  0.10270502022E+02 -0.10509340223E+01  0.12599255564E+02  0.16288920012E+02  0.51100000000E-03 0. -1.
        -11    1    4    4    0    0 -0.35520594129E+01 -0.19500767313E+02  0.76028211082E+01  0.21229694791E+02  0.51100000000E-03 0.  1.
        -12    1    4    4    0    0 -0.47743020203E+01  0.76526884305E+01  0.14230704608E+02  0.16848458494E+02  0.00000000000E+00 0.  1.
</event>
<event>
 8    1  0.2433390E-006  0.9118800E+02  0.7816164E-02  0.1184000E+00
        -11   -1    0    0    0    0  0.00000000000E+00  0.00000000000E+00  0.45593999997E+02  0.45594000000E+02  0.51100000000E-03 0.  1.
         11   -1    0    0    0    0 -0.00000000000E+00 -0.00000000000E+00 -0.45593999997E+02  0.45594000000E+02  0.51100000000E-03 0. -1.
         23    2    1    2    0    0  0.00000000000E+00  0.00000000000E+00  0.44408920985E-15  0.91188000000E+02  0.91188000000E+02 0.  0.
    9900012    2    3    3    0    0  0.36014803100E+02 -0.73889739143E+01  0.20288977924E+01  0.54367090124E+02  0.40000013556E+02 0.  0.
        -12    1    3    3    0    0 -0.36014803100E+02  0.73889739143E+01 -0.20288977924E+01  0.36820909876E+02  0.00000000000E+00 0.  1.
         11    1    4    4    0    0  0.90621626577E+00  0.34361953425E+01 -0.58911346898E+01  0.68799807083E+01  0.51100000000E-03 0.  1.
        -11    1    4    4    0    0  0.28760500394E+02 -0.16721375303E+02 -0.31645089942E+01  0.33418331682E+02  0.51100000000E-03 0. -1.
        -12    1    4    4    0    0  0.63480864398E+01  0.58962060466E+01  0.11084541476E+02  0.14068777734E+02  0.00000000000E+00 0.  1.
</event>
<event>
 8    1  0.2433390E-006  0.9118800E+02  0.7816164E-02  0.1184000E+00
        -11   -1    0    0    0    0  0.00000000000E+00  0.00000000000E+00  0.45593999997E+02  0.45594000000E+02  0.51100000000E-03 0. -1.
         11   -1    0    0    0    0 -0.00000000000E+00 -0.00000000000E+00 -0.45593999997E+02  0.45594000000E+02  0.51100000000E-03 0.  1.
         23    2    1    2    0    0  0.99920072216E-15 -0.35527136788E-14  0.00000000000E+00  0.91188000000E+02  0.91188000000E+02 0.  0.
    9900012    2    3    3    0    0 -0.34240370684E+00 -0.31490307259E+02 -0.19079377170E+02  0.54367091202E+02  0.40000016013E+02 0.  0.
         12    1    3    3    0    0  0.34240370684E+00  0.31490307259E+02  0.19079377170E+02  0.36820908798E+02  0.00000000000E+00 0. -1.
         11    1    4    4    0    0 -0.48246188345E+01  0.38845309430E+01 -0.34119397370E+01  0.70716236166E+01  0.51100000000E-03 0. -1.
        -11    1    4    4    0    0  0.73565158619E+01 -0.15020798128E+02 -0.20220370807E+02  0.26241305186E+02  0.51100000000E-03 0.  1.
        -12    1    4    4    0    0 -0.28743007342E+01 -0.20354040073E+02  0.45529333742E+01  0.21054162399E+02  0.00000000000E+00 0.  1.
</event>
<event>
 8    1  0.2433390E-006  0.9118800E+02  0.7816164E-02  0.1184000E+00
        -11   -1    0    0    0    0  0.00000000000E+00  0.00000000000E+00  0.45593999997E+02  0.45594000000E+02  0.51100000000E-03 0.  1.
         11   -1    0    0    0    0 -0.00000000000E+00 -0.00000000000E+00 -0.45593999997E+02  0.45594000000E+02  0.51100000000E-03 0. -1.
         23    2    1    2    0    0 -0.17763568394E-14  0.35527136788E-14  0.00000000000E+00  0.91188000000E+02  0.91188000000E+02 0.  0.
    9900012    2    3    3    0    0  0.14138077944E+02 -0.22348012695E+02  0.25621497412E+02  0.54367081367E+02  0.39999993592E+02 0.  0.
         12    1    3    3    0    0 -0.14138077944E+02  0.22348012695E+02 -0.25621497412E+02  0.36820918633E+02  0.00000000000E+00 0. -1.
         11    1    4    4    0    0  0.16179487679E+02 -0.24624840029E+02  0.25905622256E+02  0.39233402003E+02  0.51100000000E-03 0.  1.
        -11    1    4    4    0    0 -0.74854302647E+01  0.60613397999E+00 -0.38250722794E+01  0.84279441653E+01  0.51100000000E-03 0. -1.
         12    1    4    4    0    0  0.54440205300E+01  0.16706933537E+01  0.35409474351E+01  0.67057351984E+01  0.00000000000E+00 0. -1.
</event>
<event>
 8    1  0.2433390E-006  0.9118800E+02  0.7816164E-02  0.1184000E+00
        -11   -1    0    0    0    0  0.00000000000E+00  0.00000000000E+00  0.45593999997E+02  0.45594000000E+02  0.51100000000E-03 0. -1.
         11   -1    0    0    0    0 -0.00000000000E+00 -0.00000000000E+00 -0.45593999997E+02  0.45594000000E+02  0.51100000000E-03 0.  1.
         23    2    1    2    0    0  0.71054273576E-14  0.00000000000E+00  0.00000000000E+00  0.91188000000E+02  0.91188000000E+02 0.  0.
    9900012    2    3    3    0    0 -0.32543753297E+02 -0.13656772095E+02  0.10496496218E+02  0.54367085623E+02  0.40000003295E+02 0.  0.
        -12    1    3    3    0    0  0.32543753297E+02  0.13656772095E+02 -0.10496496218E+02  0.36820914377E+02  0.00000000000E+00 0.  1.
         11    1    4    4    0    0 -0.61001633233E+01 -0.77406068871E+01  0.14935217050E+00  0.98565355924E+01  0.51100000000E-03 0. -1.
        -11    1    4    4    0    0 -0.33178071510E+02 -0.10688189230E+02  0.99398666842E+01  0.36246693202E+02  0.51100000000E-03 0.  1.
        -12    1    4    4    0    0  0.67344815365E+01  0.47720240220E+01  0.40727736346E+00  0.82638568285E+01  0.00000000000E+00 0.  1.
</event>
<event>
 8    1  0.2433390E-006  0.9118800E+02  0.7816164E-02  0.1184000E+00
        -11   -1    0    0    0    0  0.00000000000E+00  0.00000000000E+00  0.45593999997E+02  0.45594000000E+02  0.51100000000E-03 0. -1.
         11   -1    0    0    0    0 -0.00000000000E+00 -0.00000000000E+00 -0.45593999997E+02  0.45594000000E+02  0.51100000000E-03 0.  1.
         23    2    1    2    0    0  0.35527136788E-14 -0.35527136788E-14  0.22204460493E-15  0.91188000000E+02  0.91188000000E+02 0.  0.
    9900012    2    3    3    0    0  0.29348011018E+02 -0.22202559494E+02  0.12350943587E+01  0.54367016079E+02  0.39999844755E+02 0.  0.
         12    1    3    3    0    0 -0.29348011018E+02  0.22202559494E+02 -0.12350943587E+01  0.36820983921E+02  0.00000000000E+00 0. -1.
         11    1    4    4    0    0  0.10422401279E+02  0.38729023763E+01  0.45232138560E+01  0.12003553019E+02  0.51100000000E-03 0. -1.
        -11    1    4    4    0    0  0.26405749343E+00 -0.15319010006E+01 -0.10569248964E+02  0.10682952352E+02  0.51100000000E-03 0.  1.
         12    1    4    4    0    0  0.18661552245E+02 -0.24543560870E+02  0.72811294665E+01  0.31680510708E+02  0.00000000000E+00 0. -1.
</event>
<event>
 8    1  0.2433390E-006  0.9118800E+02  0.7816164E-02  0.1184000E+00
        -11   -1    0    0    0    0  0.00000000000E+00  0.00000000000E+00  0.45593999997E+02  0.45594000000E+02  0.51100000000E-03 0.  1.
         11   -1    0    0    0    0 -0.00000000000E+00 -0.00000000000E+00 -0.45593999997E+02  0.45594000000E+02  0.51100000000E-03 0. -1.
         23    2    1    2    0    0  0.35527136788E-14  0.88817841970E-15 -0.35527136788E-14  0.91188000000E+02  0.91188000000E+02 0.  0.
    9900012    2    3    3    0    0  0.19578235778E+02  0.61422864232E+01 -0.30573599528E+02  0.54367082211E+02  0.39999995517E+02 0.  0.
        -12    1    3    3    0    0 -0.19578235778E+02 -0.61422864232E+01  0.30573599528E+02  0.36820917789E+02  0.00000000000E+00 0.  1.
         11    1    4    4    0    0  0.22924341671E+02  0.11591941545E+02 -0.21367604903E+02  0.33413666206E+02  0.51100000000E-03 0. -1.
        -11    1    4    4    0    0 -0.26275282800E+01 -0.11740438397E+02 -0.81569939537E+01  0.14535417064E+02  0.51100000000E-03 0.  1.
        -12    1    4    4    0    0 -0.71857761232E+00  0.62907832745E+01 -0.10490006718E+01  0.64179989406E+01  0.00000000000E+00 0.  1.
</event>
<event>
 8    1  0.2433390E-006  0.9118800E+02  0.7816164E-02  0.1184000E+00
        -11   -1    0    0    0    0  0.00000000000E+00  0.00000000000E+00  0.45593999997E+02  0.45594000000E+02  0.51100000000E-03 0. -1.
         11   -1    0    0    0    0 -0.00000000000E+00 -0.00000000000E+00 -0.45593999997E+02  0.45594000000E+02  0.51100000000E-03 0.  1.
         23    2    1    2    0    0  0.00000000000E+00  0.88817841970E-15 -0.35527136788E-14  0.91188000000E+02  0.91188000000E+02 0.  0.
    9900012    2    3    3    0    0 -0.24472121841E+02 -0.66031908626E+01  0.26707535928E+02  0.54367090827E+02  0.40000015158E+02 0.  0.
        -12    1    3    3    0    0  0.24472121841E+02  0.66031908626E+01 -0.26707535928E+02  0.36820909173E+02  0.00000000000E+00 0.  1.
         11    1    4    4    0    0 -0.14050898256E+02  0.67724154745E+01  0.21115767589E+01  0.15740143260E+02  0.51100000000E-03 0. -1.
        -11    1    4    4    0    0  0.58464018566E+00 -0.86491720458E+01  0.25184441421E+02  0.26634677982E+02  0.51100000000E-03 0.  1.
        -12    1    4    4    0    0 -0.11005863771E+02 -0.47264342913E+01 -0.58848225203E+00  0.11992269586E+02  0.00000000000E+00 0.  1.
</event>
<event>
 8    1  0.2433390E-006  0.9118800E+02  0.7816164E-02  0.1184000E+00
        -11   -1    0    0    0    0  0.00000000000E+00  0.00000000000E+00  0.45593999997E+02  0.45594000000E+02  0.51100000000E-03 0.  1.
         11   -1    0    0    0    0 -0.00000000000E+00 -0.00000000000E+00 -0.45593999997E+02  0.45594000000E+02  0.51100000000E-03 0. -1.
         23    2    1    2    0    0 -0.17763568394E-14  0.00000000000E+00 -0.35527136788E-14  0.91188000000E+02  0.91188000000E+02 0.  0.
    9900012    2    3    3    0    0  0.13943539214E+02  0.21981758123E+02 -0.26041495547E+02  0.54367089280E+02  0.40000011631E+02 0.  0.
        -12    1    3    3    0    0 -0.13943539214E+02 -0.21981758123E+02  0.26041495547E+02  0.36820910720E+02  0.00000000000E+00 0.  1.
         11    1    4    4    0    0  0.71210402949E+01  0.76604992738E+01  0.42309093061E+01  0.11282422516E+02  0.51100000000E-03 0. -1.
        -11    1    4    4    0    0 -0.53531354485E+01  0.29382927427E+01  0.22758451160E+01  0.65168316400E+01  0.51100000000E-03 0.  1.
         12    1    4    4    0    0  0.12175634367E+02  0.11382966106E+02 -0.32548249969E+02  0.36567835124E+02  0.00000000000E+00 0. -1.
</event>
<event>
 8    1  0.2433390E-006  0.9118800E+02  0.7816164E-02  0.1184000E+00
        -11   -1    0    0    0    0  0.00000000000E+00  0.00000000000E+00  0.45593999997E+02  0.45594000000E+02  0.51100000000E-03 0.  1.
         11   -1    0    0    0    0 -0.00000000000E+00 -0.00000000000E+00 -0.45593999997E+02  0.45594000000E+02  0.51100000000E-03 0. -1.
         23    2    1    2    0    0  0.00000000000E+00 -0.17763568394E-14  0.71054273576E-14  0.91188000000E+02  0.91188000000E+02 0.  0.
    9900012    2    3    3    0    0 -0.92068063372E+01 -0.71189286365E+01 -0.34933320241E+02  0.54367064503E+02  0.39999955147E+02 0.  0.
        -12    1    3    3    0    0  0.92068063372E+01  0.71189286365E+01  0.34933320241E+02  0.36820935497E+02  0.00000000000E+00 0.  1.
         11    1    4    4    0    0 -0.13177544909E+02 -0.18313188547E+02 -0.34574612270E+02  0.41284674862E+02  0.51100000000E-03 0. -1.
        -11    1    4    4    0    0 -0.13483111205E+01  0.19905147375E+01 -0.47934427420E+00  0.24515021910E+01  0.51100000000E-03 0.  1.
         12    1    4    4    0    0  0.53190496922E+01  0.92037451733E+01  0.12063630350E+00  0.10630887449E+02  0.00000000000E+00 0. -1.
</event>
<event>
 8    1  0.2433390E-006  0.9118800E+02  0.7816164E-02  0.1184000E+00
        -11   -1    0    0    0    0  0.00000000000E+00  0.00000000000E+00  0.45593999997E+02  0.45594000000E+02  0.51100000000E-03 0.  1.
         11   -1    0    0    0    0 -0.00000000000E+00 -0.00000000000E+00 -0.45593999997E+02  0.45594000000E+02  0.51100000000E-03 0. -1.
         23    2    1    2    0    0 -0.71054273576E-14 -0.17763568394E-14  0.00000000000E+00  0.91188000000E+02  0.91188000000E+02 0.  0.
    9900012    2    3    3    0    0  0.35520159918E+02 -0.18719611003E+01  0.95180228284E+01  0.54367098904E+02  0.40000033571E+02 0.  0.
        -12    1    3    3    0    0 -0.35520159918E+02  0.18719611003E+01 -0.95180228284E+01  0.36820901096E+02  0.00000000000E+00 0.  1.
         11    1    4    4    0    0 -0.42835986039E+01 -0.17515463436E+01 -0.41681425725E+01  0.62282055488E+01  0.51100000000E-03 0. -1.
        -11    1    4    4    0    0  0.85772034617E+01 -0.80539062967E+01  0.10488401984E+02  0.15761992333E+02  0.51100000000E-03 0.  1.
        -12    1    4    4    0    0  0.31226555060E+02  0.79334915400E+01  0.31977634171E+01  0.32376901022E+02  0.00000000000E+00 0.  1.
</event>
<event>
 8    1  0.2433390E-006  0.9118800E+02  0.7816164E-02  0.1184000E+00
        -11   -1    0    0    0    0  0.00000000000E+00  0.00000000000E+00  0.45593999997E+02  0.45594000000E+02  0.51100000000E-03 0.  1.
         11   -1    0    0    0    0 -0.00000000000E+00 -0.00000000000E+00 -0.45593999997E+02  0.45594000000E+02  0.51100000000E-03 0. -1.
         23    2    1    2    0    0  0.00000000000E+00  0.00000000000E+00 -0.17763568394E-14  0.91188000000E+02  0.91188000000E+02 0.  0.
    9900012    2    3    3    0    0  0.55163630154E+01 -0.33628274649E+02 -0.13945927230E+02  0.54367081990E+02  0.39999995013E+02 0.  0.
        -12    1    3    3    0    0 -0.55163630154E+01  0.33628274649E+02  0.13945927230E+02  0.36820918010E+02  0.00000000000E+00 0.  1.
         11    1    4    4    0    0  0.86243506273E+01 -0.12596805492E+02  0.66860585164E+00  0.15280902015E+02  0.51100000000E-03 0. -1.
        -11    1    4    4    0    0  0.45728655778E+01 -0.18899247789E+01 -0.17567269119E+02  0.18250804361E+02  0.51100000000E-03 0.  1.
        -12    1    4    4    0    0 -0.76808531897E+01 -0.19141544378E+02  0.29527360365E+01  0.20835375615E+02  0.00000000000E+00 0.  1.
</event>
<event>
 8    1  0.2433390E-006  0.9118800E+02  0.7816164E-02  0.1184000E+00
        -11   -1    0    0    0    0  0.00000000000E+00  0.00000000000E+00  0.45593999997E+02  0.45594000000E+02  0.51100000000E-03 0. -1.
         11   -1    0    0    0    0 -0.00000000000E+00 -0.00000000000E+00 -0.45593999997E+02  0.45594000000E+02  0.51100000000E-03 0.  1.
         23    2    1    2    0    0  0.71054273576E-14  0.00000000000E+00 -0.17763568394E-14  0.91188000000E+02  0.91188000000E+02 0.  0.
    9900012    2    3    3    0    0  0.33483156467E+02 -0.11703894709E+02 -0.98832674415E+01  0.54367056318E+02  0.39999936487E+02 0.  0.
         12    1    3    3    0    0 -0.33483156467E+02  0.11703894709E+02  0.98832674415E+01  0.36820943682E+02  0.00000000000E+00 0. -1.
         11    1    4    4    0    0  0.21259490324E+01  0.37686592858E+01  0.84849452682E+00  0.44093531639E+01  0.51100000000E-03 0. -1.
        -11    1    4    4    0    0  0.35146351590E+02 -0.10464867073E+02 -0.17578949759E+02  0.40666926954E+02  0.51100000000E-03 0.  1.
        -12    1    4    4    0    0 -0.37891441561E+01 -0.50076869226E+01  0.68471877909E+01  0.92907761998E+01  0.00000000000E+00 0.  1.
</event>
<event>
 8    1  0.2433390E-006  0.9118800E+02  0.7816164E-02  0.1184000E+00
        -11   -1    0    0    0    0  0.00000000000E+00  0.00000000000E+00  0.45593999997E+02  0.45594000000E+02  0.51100000000E-03 0.  1.
         11   -1    0    0    0    0 -0.00000000000E+00 -0.00000000000E+00 -0.45593999997E+02  0.45594000000E+02  0.51100000000E-03 0. -1.
         23    2    1    2    0    0  0.00000000000E+00  0.00000000000E+00  0.88817841970E-15  0.91188000000E+02  0.91188000000E+02 0.  0.
    9900012    2    3    3    0    0 -0.34606910285E+02 -0.10137462382E+02  0.74405853252E+01  0.54367235572E+02  0.40000345133E+02 0.  0.
         12    1    3    3    0    0  0.34606910285E+02  0.10137462382E+02 -0.74405853252E+01  0.36820764428E+02  0.00000000000E+00 0. -1.
         11    1    4    4    0    0  0.56744617631E+01  0.16340314715E-01  0.65867349673E+01  0.86939554345E+01  0.51100000000E-03 0. -1.
        -11    1    4    4    0    0 -0.26945206342E+02 -0.94841981538E+01  0.90990930686E+01  0.29979787430E+02  0.51100000000E-03 0.  1.
         12    1    4    4    0    0 -0.13336165706E+02 -0.66960454336E+00 -0.82452427107E+01  0.15693492707E+02  0.00000000000E+00 0. -1.
</event>
<event>
 8    1  0.2433390E-006  0.9118800E+02  0.7816164E-02  0.1184000E+00
        -11   -1    0    0    0    0  0.00000000000E+00  0.00000000000E+00  0.45593999997E+02  0.45594000000E+02  0.51100000000E-03 0.  1.
         11   -1    0    0    0    0 -0.00000000000E+00 -0.00000000000E+00 -0.45593999997E+02  0.45594000000E+02  0.51100000000E-03 0. -1.
         23    2    1    2    0    0 -0.17763568394E-14  0.88817841970E-15  0.71054273576E-14  0.91188000000E+02  0.91188000000E+02 0.  0.
    9900012    2    3    3    0    0  0.84193702541E+01 -0.45243061168E+01 -0.35558743361E+02  0.54367090577E+02  0.40000014589E+02 0.  0.
        -12    1    3    3    0    0 -0.84193702541E+01  0.45243061168E+01  0.35558743361E+02  0.36820909423E+02  0.00000000000E+00 0.  1.
         11    1    4    4    0    0  0.95457541485E+01  0.91220875525E+01 -0.89007210762E+01  0.15923465060E+02  0.51100000000E-03 0. -1.
        -11    1    4    4    0    0  0.72231602012E+01 -0.14641509684E+02 -0.25022142221E+02  0.29877340087E+02  0.51100000000E-03 0.  1.
         12    1    4    4    0    0 -0.83495440957E+01  0.99511601473E+00 -0.16358800640E+01  0.85662854302E+01  0.00000000000E+00 0. -1.
</event>
<event>
 8    1  0.2433390E-006  0.9118800E+02  0.7816164E-02  0.1184000E+00
        -11   -1    0    0    0    0  0.00000000000E+00  0.00000000000E+00  0.45593999997E+02  0.45594000000E+02  0.51100000000E-03 0.  1.
         11   -1    0    0    0    0 -0.00000000000E+00 -0.00000000000E+00 -0.45593999997E+02  0.45594000000E+02  0.51100000000E-03 0. -1.
         23    2    1    2    0    0 -0.71054273576E-14  0.00000000000E+00  0.35527136788E-14  0.91188000000E+02  0.91188000000E+02 0.  0.
    9900012    2    3    3    0    0  0.30837396923E+02 -0.65443949525E+01 -0.19026448901E+02  0.54367083226E+02  0.39999997830E+02 0.  0.
        -12    1    3    3    0    0 -0.30837396923E+02  0.65443949525E+01  0.19026448901E+02  0.36820916774E+02  0.00000000000E+00 0.  1.
         11    1    4    4    0    0  0.11356794291E+02 -0.48277372894E+01 -0.25394391649E+02  0.28234003460E+02  0.51100000000E-03 0. -1.
        -11    1    4    4    0    0  0.37298882133E+01 -0.59158702807E+01  0.68987614331E+01  0.98235684369E+01  0.51100000000E-03 0.  1.
        -12    1    4    4    0    0  0.15750714419E+02  0.41992126177E+01 -0.53081868564E+00  0.16309511329E+02  0.00000000000E+00 0.  1.
</event>
<event>
 8    1  0.2433390E-006  0.9118800E+02  0.7816164E-02  0.1184000E+00
        -11   -1    0    0    0    0  0.00000000000E+00  0.00000000000E+00  0.45593999997E+02  0.45594000000E+02  0.51100000000E-03 0.  1.
         11   -1    0    0    0    0 -0.00000000000E+00 -0.00000000000E+00 -0.45593999997E+02  0.45594000000E+02  0.51100000000E-03 0. -1.
         23    2    1    2    0    0  0.88817841970E-15  0.00000000000E+00  0.88817841970E-15  0.91188000000E+02  0.91188000000E+02 0.  0.
    9900012    2    3    3    0    0  0.71301486816E+01 -0.35672823102E+02 -0.56919041623E+01  0.54366985602E+02  0.39999775276E+02 0.  0.
         12    1    3    3    0    0 -0.71301486816E+01  0.35672823102E+02  0.56919041623E+01  0.36821014398E+02  0.00000000000E+00 0. -1.
         11    1    4    4    0    0 -0.10854090627E+02 -0.10742047766E+02 -0.72783847879E+01  0.16916789262E+02  0.51100000000E-03 0. -1.
        -11    1    4    4    0    0  0.31597946201E+01 -0.18127760023E+02 -0.61445418514E+01  0.19399880935E+02  0.51100000000E-03 0.  1.
         12    1    4    4    0    0  0.14824444689E+02 -0.68030153133E+01  0.77310224769E+01  0.18050315405E+02  0.00000000000E+00 0. -1.
</event>
<event>
 8    1  0.2433390E-006  0.9118800E+02  0.7816164E-02  0.1184000E+00
        -11   -1    0    0    0    0  0.00000000000E+00  0.00000000000E+00  0.45593999997E+02  0.45594000000E+02  0.51100000000E-03 0.  1.
         11   -1    0    0    0    0 -0.00000000000E+00 -0.00000000000E+00 -0.45593999997E+02  0.45594000000E+02  0.51100000000E-03 0. -1.
         23    2    1    2    0    0 -0.71054273576E-14 -0.35527136788E-14  0.00000000000E+00  0.91188000000E+02  0.91188000000E+02 0.  0.
    9900012    2    3    3    0    0  0.17046172482E+02  0.21648215855E+02 -0.24424631993E+02  0.54367083472E+02  0.39999998390E+02 0.  0.
         12    1    3    3    0    0 -0.17046172482E+02 -0.21648215855E+02  0.24424631993E+02  0.36820916528E+02  0.00000000000E+00 0. -1.
         11    1    4    4    0    0  0.75544688878E+01  0.87969835646E+01 -0.46544316827E+01  0.12494825111E+02  0.51100000000E-03 0. -1.
        -11    1    4    4    0    0  0.14298076346E+02  0.15950462557E+02 -0.13510993584E+00  0.21421262754E+02  0.51100000000E-03 0.  1.
         12    1    4    4    0    0 -0.48063727525E+01 -0.30992302669E+01 -0.19635090375E+02  0.20450995607E+02  0.00000000000E+00 0. -1.
</event>
<event>
 8    1  0.2433390E-006  0.9118800E+02  0.7816164E-02  0.1184000E+00
        -11   -1    0    0    0    0  0.00000000000E+00  0.00000000000E+00  0.45593999997E+02  0.45594000000E+02  0.51100000000E-03 0.  1.
         11   -1    0    0    0    0 -0.00000000000E+00 -0.00000000000E+00 -0.45593999997E+02  0.45594000000E+02  0.51100000000E-03 0. -1.
         23    2    1    2    0    0 -0.35527136788E-14  0.00000000000E+00  0.00000000000E+00  0.91188000000E+02  0.91188000000E+02 0.  0.
    9900012    2    3    3    0    0  0.21689374118E+02  0.27623054322E+02  0.11059841507E+02  0.54367052513E+02  0.39999927814E+02 0.  0.
         12    1    3    3    0    0 -0.21689374118E+02 -0.27623054322E+02 -0.11059841507E+02  0.36820947487E+02  0.00000000000E+00 0. -1.
         11    1    4    4    0    0  0.16982340744E+02  0.22196621448E+02  0.16470520896E+02  0.32440221326E+02  0.51100000000E-03 0.  1.
        -11    1    4    4    0    0 -0.10613247003E+00  0.11137989966E+02 -0.83285614621E+01  0.13907948119E+02  0.51100000000E-03 0. -1.
         12    1    4    4    0    0  0.48131658441E+01 -0.57115570926E+01  0.29178820732E+01  0.80188830680E+01  0.00000000000E+00 0. -1.
</event>
<event>
 8    1  0.2433390E-006  0.9118800E+02  0.7816164E-02  0.1184000E+00
        -11   -1    0    0    0    0  0.00000000000E+00  0.00000000000E+00  0.45593999997E+02  0.45594000000E+02  0.51100000000E-03 0.  1.
         11   -1    0    0    0    0 -0.00000000000E+00 -0.00000000000E+00 -0.45593999997E+02  0.45594000000E+02  0.51100000000E-03 0. -1.
         23    2    1    2    0    0  0.35527136788E-14  0.00000000000E+00 -0.17763568394E-14  0.91188000000E+02  0.91188000000E+02 0.  0.
    9900012    2    3    3    0    0 -0.28160300111E+02 -0.19610697267E+02 -0.13349084449E+02  0.54367081960E+02  0.39999994945E+02 0.  0.
        -12    1    3    3    0    0  0.28160300111E+02  0.19610697267E+02  0.13349084449E+02  0.36820918040E+02  0.00000000000E+00 0.  1.
         11    1    4    4    0    0 -0.43124793423E+01 -0.61188911815E+01 -0.99162743943E+01  0.12424604843E+02  0.51100000000E-03 0. -1.
        -11    1    4    4    0    0 -0.17358194230E+01 -0.17929147056E+02  0.34963732515E+01  0.18349169174E+02  0.51100000000E-03 0.  1.
        -12    1    4    4    0    0 -0.22112001346E+02  0.44373409703E+01 -0.69291833063E+01  0.23593307943E+02  0.00000000000E+00 0.  1.
</event>
<event>
 8    1  0.2433390E-006  0.9118800E+02  0.7816164E-02  0.1184000E+00
        -11   -1    0    0    0    0  0.00000000000E+00  0.00000000000E+00  0.45593999997E+02  0.45594000000E+02  0.51100000000E-03 0. -1.
         11   -1    0    0    0    0 -0.00000000000E+00 -0.00000000000E+00 -0.45593999997E+02  0.45594000000E+02  0.51100000000E-03 0.  1.
         23    2    1    2    0    0  0.17763568394E-14  0.00000000000E+00  0.88817841970E-15  0.91188000000E+02  0.91188000000E+02 0.  0.
    9900012    2    3    3    0    0  0.14862195962E+02  0.33567558143E+02 -0.28481206309E+01  0.54367114355E+02  0.40000068795E+02 0.  0.
         12    1    3    3    0    0 -0.14862195962E+02 -0.33567558143E+02  0.28481206309E+01  0.36820885645E+02  0.00000000000E+00 0. -1.
         11    1    4    4    0    0  0.70084764363E+01  0.93089673199E+01  0.12230530125E+02  0.16892645794E+02  0.51100000000E-03 0. -1.
        -11    1    4    4    0    0  0.66998500522E+01  0.54889118108E+01  0.49706510180E+01  0.99861662009E+01  0.51100000000E-03 0.  1.
        -12    1    4    4    0    0  0.11538694740E+01  0.18769679013E+02 -0.20049301774E+02  0.27488302360E+02  0.00000000000E+00 0.  1.
</event>
<event>
 8    1  0.2433390E-006  0.9118800E+02  0.7816164E-02  0.1184000E+00
        -11   -1    0    0    0    0  0.00000000000E+00  0.00000000000E+00  0.45593999997E+02  0.45594000000E+02  0.51100000000E-03 0. -1.
         11   -1    0    0    0    0 -0.00000000000E+00 -0.00000000000E+00 -0.45593999997E+02  0.45594000000E+02  0.51100000000E-03 0.  1.
         23    2    1    2    0    0 -0.88817841970E-15  0.35527136788E-14  0.00000000000E+00  0.91188000000E+02  0.91188000000E+02 0.  0.
    9900012    2    3    3    0    0  0.73061240138E+01 -0.31604977021E+02  0.17422006325E+02  0.54367077619E+02  0.39999985047E+02 0.  0.
        -12    1    3    3    0    0 -0.73061240138E+01  0.31604977021E+02 -0.17422006325E+02  0.36820922381E+02  0.00000000000E+00 0.  1.
         11    1    4    4    0    0 -0.80369559608E+01 -0.27472118226E+02  0.18257344860E+01  0.28681758098E+02  0.51100000000E-03 0. -1.
        -11    1    4    4    0    0  0.67799621810E+01 -0.72861324910E+01  0.35367057075E+01  0.10562381425E+02  0.51100000000E-03 0.  1.
         12    1    4    4    0    0  0.85631177936E+01  0.31532736954E+01  0.12059566132E+02  0.15122938095E+02  0.00000000000E+00 0. -1.
</event>
<event>
 8    1  0.2433390E-006  0.9118800E+02  0.7816164E-02  0.1184000E+00
        -11   -1    0    0    0    0  0.00000000000E+00  0.00000000000E+00  0.45593999997E+02  0.45594000000E+02  0.51100000000E-03 0. -1.
         11   -1    0    0    0    0 -0.00000000000E+00 -0.00000000000E+00 -0.45593999997E+02  0.45594000000E+02  0.51100000000E-03 0.  1.
         23    2    1    2    0    0  0.00000000000E+00  0.00000000000E+00  0.00000000000E+00  0.91188000000E+02  0.91188000000E+02 0.  0.
    9900012    2    3    3    0    0  0.12082817878E+02  0.21679441733E+02  0.27199049855E+02  0.54367068524E+02  0.39999964314E+02 0.  0.
        -12    1    3    3    0    0 -0.12082817878E+02 -0.21679441733E+02 -0.27199049855E+02  0.36820931476E+02  0.00000000000E+00 0.  1.
         11    1    4    4    0    0  0.35285561949E+01  0.80809489319E+01  0.66983091872E+00  0.88431396111E+01  0.51100000000E-03 0. -1.
        -11    1    4    4    0    0  0.14969333661E+02  0.19490024881E+01  0.28332595191E+02  0.32103200953E+02  0.51100000000E-03 0.  1.
        -12    1    4    4    0    0 -0.64150719779E+01  0.11649490313E+02 -0.18033762543E+01  0.13420727959E+02  0.00000000000E+00 0.  1.
</event>
<event>
 8    1  0.2433390E-006  0.9118800E+02  0.7816164E-02  0.1184000E+00
        -11   -1    0    0    0    0  0.00000000000E+00  0.00000000000E+00  0.45593999997E+02  0.45594000000E+02  0.51100000000E-03 0.  1.
         11   -1    0    0    0    0 -0.00000000000E+00 -0.00000000000E+00 -0.45593999997E+02  0.45594000000E+02  0.51100000000E-03 0. -1.
         23    2    1    2    0    0  0.00000000000E+00 -0.88817841970E-15  0.35527136788E-14  0.91188000000E+02  0.91188000000E+02 0.  0.
    9900012    2    3    3    0    0 -0.23318335269E+02 -0.65419634158E+01 -0.27735136317E+02  0.54367084319E+02  0.40000000322E+02 0.  0.
        -12    1    3    3    0    0  0.23318335269E+02  0.65419634158E+01  0.27735136317E+02  0.36820915681E+02  0.00000000000E+00 0.  1.
         11    1    4    4    0    0 -0.95771613687E+01 -0.10982299500E+02  0.22653145405E+01  0.14746680048E+02  0.51100000000E-03 0. -1.
        -11    1    4    4    0    0 -0.12507269727E+02  0.39490395683E+01 -0.41800697274E+01  0.13765888737E+02  0.51100000000E-03 0.  1.
         12    1    4    4    0    0 -0.12339041731E+01  0.49129651613E+00 -0.25820381131E+02  0.25854515534E+02  0.00000000000E+00 0. -1.
</event>
<event>
 8    1  0.2433390E-006  0.9118800E+02  0.7816164E-02  0.1184000E+00
        -11   -1    0    0    0    0  0.00000000000E+00  0.00000000000E+00  0.45593999997E+02  0.45594000000E+02  0.51100000000E-03 0.  1.
         11   -1    0    0    0    0 -0.00000000000E+00 -0.00000000000E+00 -0.45593999997E+02  0.45594000000E+02  0.51100000000E-03 0. -1.
         23    2    1    2    0    0 -0.35527136788E-14  0.00000000000E+00  0.35527136788E-14  0.91188000000E+02  0.91188000000E+02 0.  0.
    9900012    2    3    3    0    0 -0.17907930208E+02 -0.15974805202E+02  0.27926545973E+02  0.54367077475E+02  0.39999984720E+02 0.  0.
         12    1    3    3    0    0  0.17907930208E+02  0.15974805202E+02 -0.27926545973E+02  0.36820922525E+02  0.00000000000E+00 0. -1.
         11    1    4    4    0    0 -0.27033130214E+01 -0.11335197606E+02 -0.45875093977E+01  0.12523571727E+02  0.51100000000E-03 0. -1.
        -11    1    4    4    0    0 -0.64494950079E+01  0.73570283070E+01  0.60683857577E+01  0.11512912635E+02  0.51100000000E-03 0.  1.
        -12    1    4    4    0    0 -0.87551221788E+01 -0.11996635902E+02  0.26445669613E+02  0.30330593114E+02  0.00000000000E+00 0.  1.
</event>
<event>
 8    1  0.2433390E-006  0.9118800E+02  0.7816164E-02  0.1184000E+00
        -11   -1    0    0    0    0  0.00000000000E+00  0.00000000000E+00  0.45593999997E+02  0.45594000000E+02  0.51100000000E-03 0. -1.
         11   -1    0    0    0    0 -0.00000000000E+00 -0.00000000000E+00 -0.45593999997E+02  0.45594000000E+02  0.51100000000E-03 0.  1.
         23    2    1    2    0    0 -0.71054273576E-14 -0.71054273576E-14 -0.88817841970E-15  0.91188000000E+02  0.91188000000E+02 0.  0.
    9900012    2    3    3    0    0  0.26835848225E+02  0.25092014889E+02  0.24508121464E+01  0.54367103198E+02  0.40000043361E+02 0.  0.
        -12    1    3    3    0    0 -0.26835848225E+02 -0.25092014889E+02 -0.24508121464E+01  0.36820896802E+02  0.00000000000E+00 0.  1.
         11    1    4    4    0    0  0.23187129065E+02  0.70834399457E+01  0.68871287978E+01  0.25204178604E+02  0.51100000000E-03 0.  1.
        -11    1    4    4    0    0  0.11205998367E+02  0.36647948519E+01 -0.53012055213E+01  0.12927022122E+02  0.51100000000E-03 0. -1.
        -12    1    4    4    0    0 -0.75572792075E+01  0.14343780091E+02  0.86488886991E+00  0.16235902472E+02  0.00000000000E+00 0.  1.
</event>
<event>
 8    1  0.2433390E-006  0.9118800E+02  0.7816164E-02  0.1184000E+00
        -11   -1    0    0    0    0  0.00000000000E+00  0.00000000000E+00  0.45593999997E+02  0.45594000000E+02  0.51100000000E-03 0. -1.
         11   -1    0    0    0    0 -0.00000000000E+00 -0.00000000000E+00 -0.45593999997E+02  0.45594000000E+02  0.51100000000E-03 0.  1.
         23    2    1    2    0    0  0.00000000000E+00 -0.17763568394E-14  0.71054273576E-14  0.91188000000E+02  0.91188000000E+02 0.  0.
    9900012    2    3    3    0    0 -0.10362836780E+02  0.91201154534E+01 -0.34135235275E+02  0.54367093177E+02  0.40000020516E+02 0.  0.
         12    1    3    3    0    0  0.10362836780E+02 -0.91201154534E+01  0.34135235275E+02  0.36820906823E+02  0.00000000000E+00 0. -1.
         11    1    4    4    0    0  0.81937787695E+00  0.69999922859E+01 -0.12784372421E+01  0.71627979276E+01  0.51100000000E-03 0. -1.
        -11    1    4    4    0    0  0.29029479723E+01  0.12441895742E+02 -0.24959360648E+02  0.28039214697E+02  0.51100000000E-03 0.  1.
         12    1    4    4    0    0 -0.14085162629E+02 -0.10321772574E+02 -0.78974373843E+01  0.19165080553E+02  0.00000000000E+00 0. -1.
</event>
<event>
 8    1  0.2433390E-006  0.9118800E+02  0.7816164E-02  0.1184000E+00
        -11   -1    0    0    0    0  0.00000000000E+00  0.00000000000E+00  0.45593999997E+02  0.45594000000E+02  0.51100000000E-03 0. -1.
         11   -1    0    0    0    0 -0.00000000000E+00 -0.00000000000E+00 -0.45593999997E+02  0.45594000000E+02  0.51100000000E-03 0.  1.
         23    2    1    2    0    0  0.00000000000E+00  0.00000000000E+00 -0.17763568394E-14  0.91188000000E+02  0.91188000000E+02 0.  0.
    9900012    2    3    3    0    0 -0.14633359591E+02 -0.32465620020E+02  0.93609982483E+01  0.54367082243E+02  0.39999995590E+02 0.  0.
        -12    1    3    3    0    0  0.14633359591E+02  0.32465620020E+02 -0.93609982483E+01  0.36820917757E+02  0.00000000000E+00 0.  1.
         11    1    4    4    0    0 -0.85108283839E+01 -0.26228621760E+02  0.91168138303E+01  0.29042918136E+02  0.51100000000E-03 0. -1.
        -11    1    4    4    0    0  0.24658945194E+00 -0.10242163194E+02 -0.88379606463E+01  0.13530419872E+02  0.51100000000E-03 0.  1.
        -12    1    4    4    0    0 -0.63691206593E+01  0.40051649339E+01  0.90821450643E+01  0.11793744235E+02  0.00000000000E+00 0.  1.
</event>
<event>
 8    1  0.2433390E-006  0.9118800E+02  0.7816164E-02  0.1184000E+00
        -11   -1    0    0    0    0  0.00000000000E+00  0.00000000000E+00  0.45593999997E+02  0.45594000000E+02  0.51100000000E-03 0.  1.
         11   -1    0    0    0    0 -0.00000000000E+00 -0.00000000000E+00 -0.45593999997E+02  0.45594000000E+02  0.51100000000E-03 0. -1.
         23    2    1    2    0    0 -0.22204460493E-14 -0.35527136788E-14  0.00000000000E+00  0.91188000000E+02  0.91188000000E+02 0.  0.
    9900012    2    3    3    0    0 -0.26622006319E+01 -0.23752334169E+02 -0.28009268253E+02  0.54367084765E+02  0.40000001339E+02 0.  0.
        -12    1    3    3    0    0  0.26622006319E+01  0.23752334169E+02  0.28009268253E+02  0.36820915235E+02  0.00000000000E+00 0.  1.
         11    1    4    4    0    0  0.10676980079E+02 -0.17416582987E+01 -0.17990153342E+02  0.20992305608E+02  0.51100000000E-03 0. -1.
        -11    1    4    4    0    0 -0.17369449758E+02 -0.12774397049E+02 -0.50768333439E+01  0.22150784228E+02  0.51100000000E-03 0.  1.
         12    1    4    4    0    0  0.40302690474E+01 -0.92362788216E+01 -0.49422815671E+01  0.11223994928E+02  0.00000000000E+00 0. -1.
</event>
<event>
 8    1  0.2433390E-006  0.9118800E+02  0.7816164E-02  0.1184000E+00
        -11   -1    0    0    0    0  0.00000000000E+00  0.00000000000E+00  0.45593999997E+02  0.45594000000E+02  0.51100000000E-03 0. -1.
         11   -1    0    0    0    0 -0.00000000000E+00 -0.00000000000E+00 -0.45593999997E+02  0.45594000000E+02  0.51100000000E-03 0.  1.
         23    2    1    2    0    0  0.00000000000E+00  0.15820678101E-14 -0.71054273576E-14  0.91188000000E+02  0.91188000000E+02 0.  0.
    9900012    2    3    3    0    0  0.21371193730E+01  0.21174935635E+00 -0.36758240997E+02  0.54367076625E+02  0.39999982783E+02 0.  0.
         12    1    3    3    0    0 -0.21371193730E+01 -0.21174935635E+00  0.36758240997E+02  0.36820923375E+02  0.00000000000E+00 0. -1.
         11    1    4    4    0    0 -0.57673077228E+01  0.67063910634E+01 -0.48397635304E+01  0.10082699577E+02  0.51100000000E-03 0. -1.
        -11    1    4    4    0    0  0.26141664254E+01  0.11414621847E+02 -0.93050251459E+01  0.14956969989E+02  0.51100000000E-03 0.  1.
        -12    1    4    4    0    0  0.52902606704E+01 -0.17909263554E+02 -0.22613452320E+02  0.29327407060E+02  0.00000000000E+00 0.  1.
</event>
<event>
 8    1  0.2433390E-006  0.9118800E+02  0.7816164E-02  0.1184000E+00
        -11   -1    0    0    0    0  0.00000000000E+00  0.00000000000E+00  0.45593999997E+02  0.45594000000E+02  0.51100000000E-03 0.  1.
         11   -1    0    0    0    0 -0.00000000000E+00 -0.00000000000E+00 -0.45593999997E+02  0.45594000000E+02  0.51100000000E-03 0. -1.
         23    2    1    2    0    0  0.00000000000E+00  0.00000000000E+00  0.35527136788E-14  0.91188000000E+02  0.91188000000E+02 0.  0.
    9900012    2    3    3    0    0 -0.62339749824E+01 -0.17397443257E+02 -0.31847236586E+02  0.54367082655E+02  0.39999996530E+02 0.  0.
        -12    1    3    3    0    0  0.62339749824E+01  0.17397443257E+02  0.31847236586E+02  0.36820917345E+02  0.00000000000E+00 0.  1.
         11    1    4    4    0    0 -0.41786024256E+01  0.64181136913E+01  0.42420983598E+01  0.87549015038E+01  0.51100000000E-03 0. -1.
        -11    1    4    4    0    0 -0.18189864921E+01 -0.18232646470E+02 -0.14659232763E+02  0.23465532481E+02  0.51100000000E-03 0.  1.
         12    1    4    4    0    0 -0.23638606467E+00 -0.55829104780E+01 -0.21430102183E+02  0.22146648670E+02  0.00000000000E+00 0. -1.
</event>
<event>
 8    1  0.2433390E-006  0.9118800E+02  0.7816164E-02  0.1184000E+00
        -11   -1    0    0    0    0  0.00000000000E+00  0.00000000000E+00  0.45593999997E+02  0.45594000000E+02  0.51100000000E-03 0.  1.
         11   -1    0    0    0    0 -0.00000000000E+00 -0.00000000000E+00 -0.45593999997E+02  0.45594000000E+02  0.51100000000E-03 0. -1.
         23    2    1    2    0    0  0.00000000000E+00 -0.35527136788E-14  0.00000000000E+00  0.91188000000E+02  0.91188000000E+02 0.  0.
    9900012    2    3    3    0    0  0.20354054086E+02 -0.28481862846E+02 -0.11413871572E+02  0.54367075336E+02  0.39999979842E+02 0.  0.
        -12    1    3    3    0    0 -0.20354054086E+02  0.28481862846E+02  0.11413871572E+02  0.36820924664E+02  0.00000000000E+00 0.  1.
         11    1    4    4    0    0  0.21059081442E+02 -0.25721911446E+02 -0.12457865185E+02  0.35500704850E+02  0.51100000000E-03 0. -1.
        -11    1    4    4    0    0 -0.63400115341E+01 -0.37359927495E+01  0.73172089995E+01  0.10377617062E+02  0.51100000000E-03 0.  1.
         12    1    4    4    0    0  0.56349841778E+01  0.97604135008E+00 -0.62732153865E+01  0.84887534236E+01  0.00000000000E+00 0. -1.
</event>
<event>
 8    1  0.2433390E-006  0.9118800E+02  0.7816164E-02  0.1184000E+00
        -11   -1    0    0    0    0  0.00000000000E+00  0.00000000000E+00  0.45593999997E+02  0.45594000000E+02  0.51100000000E-03 0.  1.
         11   -1    0    0    0    0 -0.00000000000E+00 -0.00000000000E+00 -0.45593999997E+02  0.45594000000E+02  0.51100000000E-03 0. -1.
         23    2    1    2    0    0 -0.44408920985E-15  0.00000000000E+00  0.00000000000E+00  0.91188000000E+02  0.91188000000E+02 0.  0.
    9900012    2    3    3    0    0 -0.28935100540E+01  0.13602904059E+02 -0.34093545656E+02  0.54367064995E+02  0.39999956268E+02 0.  0.
        -12    1    3    3    0    0  0.28935100540E+01 -0.13602904059E+02  0.34093545656E+02  0.36820935005E+02  0.00000000000E+00 0.  1.
         11    1    4    4    0    0 -0.50239244230E+01  0.72836403124E+01 -0.28465977061E+02  0.29809446206E+02  0.51100000000E-03 0. -1.
        -11    1    4    4    0    0  0.16963659437E+00  0.14452609952E+02 -0.70332462466E+01  0.16073993406E+02  0.51100000000E-03 0.  1.
         12    1    4    4    0    0  0.19607777747E+01 -0.81333462050E+01  0.14056776514E+01  0.84836253826E+01  0.00000000000E+00 0. -1.
</event>
<event>
 8    1  0.2433390E-006  0.9118800E+02  0.7816164E-02  0.1184000E+00
        -11   -1    0    0    0    0  0.00000000000E+00  0.00000000000E+00  0.45593999997E+02  0.45594000000E+02  0.51100000000E-03 0.  1.
         11   -1    0    0    0    0 -0.00000000000E+00 -0.00000000000E+00 -0.45593999997E+02  0.45594000000E+02  0.51100000000E-03 0. -1.
         23    2    1    2    0    0 -0.17763568394E-14  0.35527136788E-14 -0.35527136788E-14  0.91188000000E+02  0.91188000000E+02 0.  0.
    9900012    2    3    3    0    0 -0.13429096658E+02  0.18109072731E+02 -0.29111858172E+02  0.54367089657E+02  0.40000012491E+02 0.  0.
        -12    1    3    3    0    0  0.13429096658E+02 -0.18109072731E+02  0.29111858172E+02  0.36820910343E+02  0.00000000000E+00 0.  1.
         11    1    4    4    0    0 -0.37200347105E+01  0.28598630667E+01  0.59076952747E+01  0.75444243470E+01  0.51100000000E-03 0.  1.
        -11    1    4    4    0    0 -0.17350715732E+02  0.10499440914E+02 -0.30818712451E+02  0.36892799207E+02  0.51100000000E-03 0. -1.
        -12    1    4    4    0    0  0.76416537849E+01  0.47497687506E+01 -0.42008409961E+01  0.99298661032E+01  0.00000000000E+00 0.  1.
</event>
<event>
 8    1  0.2433390E-006  0.9118800E+02  0.7816164E-02  0.1184000E+00
        -11   -1    0    0    0    0  0.00000000000E+00  0.00000000000E+00  0.45593999997E+02  0.45594000000E+02  0.51100000000E-03 0.  1.
         11   -1    0    0    0    0 -0.00000000000E+00 -0.00000000000E+00 -0.45593999997E+02  0.45594000000E+02  0.51100000000E-03 0. -1.
         23    2    1    2    0    0  0.00000000000E+00  0.44408920985E-15  0.35527136788E-14  0.91188000000E+02  0.91188000000E+02 0.  0.
    9900012    2    3    3    0    0  0.23815879119E+02 -0.24693460719E+01 -0.27972909235E+02  0.54367117076E+02  0.40000074998E+02 0.  0.
        -12    1    3    3    0    0 -0.23815879119E+02  0.24693460719E+01  0.27972909235E+02  0.36820882924E+02  0.00000000000E+00 0.  1.
         11    1    4    4    0    0  0.68172580287E+01  0.14610255895E+02 -0.84819593412E+01  0.18217525048E+02  0.51100000000E-03 0. -1.
        -11    1    4    4    0    0 -0.17444779314E+01 -0.27890656138E+01  0.23288947801E+01  0.40306130314E+01  0.51100000000E-03 0.  1.
         12    1    4    4    0    0  0.18743099022E+02 -0.14290536353E+02 -0.21819844674E+02  0.32118978997E+02  0.00000000000E+00 0. -1.
</event>
<event>
 8    1  0.2433390E-006  0.9118800E+02  0.7816164E-02  0.1184000E+00
        -11   -1    0    0    0    0  0.00000000000E+00  0.00000000000E+00  0.45593999997E+02  0.45594000000E+02  0.51100000000E-03 0. -1.
         11   -1    0    0    0    0 -0.00000000000E+00 -0.00000000000E+00 -0.45593999997E+02  0.45594000000E+02  0.51100000000E-03 0.  1.
         23    2    1    2    0    0  0.14210854715E-13 -0.17763568394E-14  0.00000000000E+00  0.91188000000E+02  0.91188000000E+02 0.  0.
    9900012    2    3    3    0    0  0.35801008472E+02 -0.48465340678E+01 -0.71120700926E+01  0.54367046168E+02  0.39999913349E+02 0.  0.
        -12    1    3    3    0    0 -0.35801008472E+02  0.48465340678E+01  0.71120700926E+01  0.36820953832E+02  0.00000000000E+00 0.  1.
         11    1    4    4    0    0 -0.10537689942E+01  0.61600928596E+01  0.13228093232E+01  0.63880355273E+01  0.51100000000E-03 0. -1.
        -11    1    4    4    0    0  0.13212021810E+01  0.24243160445E+01  0.65771343294E+01  0.71331325332E+01  0.51100000000E-03 0.  1.
         12    1    4    4    0    0  0.35533575285E+02 -0.13430942972E+02 -0.15012013745E+02  0.40845878107E+02  0.00000000000E+00 0. -1.
</event>
<event>
 8    1  0.2433390E-006  0.9118800E+02  0.7816164E-02  0.1184000E+00
        -11   -1    0    0    0    0  0.00000000000E+00  0.00000000000E+00  0.45593999997E+02  0.45594000000E+02  0.51100000000E-03 0. -1.
         11   -1    0    0    0    0 -0.00000000000E+00 -0.00000000000E+00 -0.45593999997E+02  0.45594000000E+02  0.51100000000E-03 0.  1.
         23    2    1    2    0    0  0.00000000000E+00  0.35527136788E-14 -0.35527136788E-14  0.91188000000E+02  0.91188000000E+02 0.  0.
    9900012    2    3    3    0    0  0.98546278503E+01  0.21604818265E+02 -0.28140702363E+02  0.54367068564E+02  0.39999964406E+02 0.  0.
         12    1    3    3    0    0 -0.98546278503E+01 -0.21604818265E+02  0.28140702363E+02  0.36820931436E+02  0.00000000000E+00 0. -1.
         11    1    4    4    0    0  0.10824495627E+01  0.45388505944E+01 -0.10352274881E+01  0.47795980989E+01  0.51100000000E-03 0.  1.
        -11    1    4    4    0    0  0.18674699619E+01  0.21279550750E+02 -0.33186984229E+02  0.39467488476E+02  0.51100000000E-03 0. -1.
        -12    1    4    4    0    0  0.69047083258E+01 -0.42135830797E+01  0.60815093538E+01  0.10119981989E+02  0.00000000000E+00 0.  1.
</event>
<event>
 8    1  0.2433390E-006  0.9118800E+02  0.7816164E-02  0.1184000E+00
        -11   -1    0    0    0    0  0.00000000000E+00  0.00000000000E+00  0.45593999997E+02  0.45594000000E+02  0.51100000000E-03 0.  1.
         11   -1    0    0    0    0 -0.00000000000E+00 -0.00000000000E+00 -0.45593999997E+02  0.45594000000E+02  0.51100000000E-03 0. -1.
         23    2    1    2    0    0 -0.35527136788E-14  0.00000000000E+00 -0.17763568394E-14  0.91188000000E+02  0.91188000000E+02 0.  0.
    9900012    2    3    3    0    0  0.25141522296E+02 -0.21935482384E+02  0.15572975488E+02  0.54367094303E+02  0.40000023083E+02 0.  0.
         12    1    3    3    0    0 -0.25141522296E+02  0.21935482384E+02 -0.15572975488E+02  0.36820905697E+02  0.00000000000E+00 0. -1.
         11    1    4    4    0    0  0.25256108306E+02 -0.10475247260E+02  0.12328019812E+02  0.29993030602E+02  0.51100000000E-03 0. -1.
        -11    1    4    4    0    0  0.62534222300E+01  0.23329464553E+01  0.59516707723E+01  0.89426122578E+01  0.51100000000E-03 0.  1.
         12    1    4    4    0    0 -0.63680082400E+01 -0.13793181579E+02 -0.27067150968E+01  0.15431451443E+02  0.00000000000E+00 0. -1.
</event>
<event>
 8    1  0.2433390E-006  0.9118800E+02  0.7816164E-02  0.1184000E+00
        -11   -1    0    0    0    0  0.00000000000E+00  0.00000000000E+00  0.45593999997E+02  0.45594000000E+02  0.51100000000E-03 0.  1.
         11   -1    0    0    0    0 -0.00000000000E+00 -0.00000000000E+00 -0.45593999997E+02  0.45594000000E+02  0.51100000000E-03 0. -1.
         23    2    1    2    0    0  0.00000000000E+00  0.35527136788E-14  0.44408920985E-15  0.91188000000E+02  0.91188000000E+02 0.  0.
    9900012    2    3    3    0    0 -0.18659439291E+02  0.31575292726E+02 -0.32565681149E+01  0.54367095322E+02  0.40000025407E+02 0.  0.
         12    1    3    3    0    0  0.18659439291E+02 -0.31575292726E+02  0.32565681149E+01  0.36820904678E+02  0.00000000000E+00 0. -1.
         11    1    4    4    0    0  0.27594019465E+01 -0.25055558466E+01 -0.20035758857E+01  0.42315984916E+01  0.51100000000E-03 0. -1.
        -11    1    4    4    0    0 -0.18633004543E+02  0.11125429750E+02  0.10598521359E+02  0.24151453386E+02  0.51100000000E-03 0.  1.
        -12    1    4    4    0    0 -0.27858366950E+01  0.22955418822E+02 -0.11851513588E+02  0.25984043445E+02  0.00000000000E+00 0.  1.
</event>
<event>
 8    1  0.2433390E-006  0.9118800E+02  0.7816164E-02  0.1184000E+00
        -11   -1    0    0    0    0  0.00000000000E+00  0.00000000000E+00  0.45593999997E+02  0.45594000000E+02  0.51100000000E-03 0.  1.
         11   -1    0    0    0    0 -0.00000000000E+00 -0.00000000000E+00 -0.45593999997E+02  0.45594000000E+02  0.51100000000E-03 0. -1.
         23    2    1    2    0    0  0.00000000000E+00  0.55511151231E-15  0.00000000000E+00  0.91188000000E+02  0.91188000000E+02 0.  0.
    9900012    2    3    3    0    0  0.21986530764E+02  0.22645469953E+00 -0.29535112186E+02  0.54367059373E+02  0.39999943454E+02 0.  0.
        -12    1    3    3    0    0 -0.21986530764E+02 -0.22645469953E+00  0.29535112186E+02  0.36820940627E+02  0.00000000000E+00 0.  1.
         11    1    4    4    0    0  0.99016686247E+01  0.48235318450E+01 -0.84153914343E+01  0.13861035830E+02  0.51100000000E-03 0. -1.
        -11    1    4    4    0    0 -0.91892531578E+01  0.58104588934E+01 -0.70707811570E+01  0.12969184731E+02  0.51100000000E-03 0.  1.
        -12    1    4    4    0    0  0.21274115297E+02 -0.10407536039E+02 -0.14048939595E+02  0.27536838813E+02  0.00000000000E+00 0.  1.
</event>
<event>
 8    1  0.2433390E-006  0.9118800E+02  0.7816164E-02  0.1184000E+00
        -11   -1    0    0    0    0  0.00000000000E+00  0.00000000000E+00  0.45593999997E+02  0.45594000000E+02  0.51100000000E-03 0. -1.
         11   -1    0    0    0    0 -0.00000000000E+00 -0.00000000000E+00 -0.45593999997E+02  0.45594000000E+02  0.51100000000E-03 0.  1.
         23    2    1    2    0    0  0.17763568394E-14  0.44408920985E-15  0.71054273576E-14  0.91188000000E+02  0.91188000000E+02 0.  0.
    9900012    2    3    3    0    0  0.89154436616E+01 -0.92459992950E+00 -0.35713301977E+02  0.54367082592E+02  0.39999996384E+02 0.  0.
         12    1    3    3    0    0 -0.89154436616E+01  0.92459992950E+00  0.35713301977E+02  0.36820917408E+02  0.00000000000E+00 0. -1.
         11    1    4    4    0    0  0.15752352278E+02 -0.15008878854E+01 -0.18743966709E+01  0.15934322385E+02  0.51100000000E-03 0. -1.
        -11    1    4    4    0    0 -0.16148754595E+01  0.72805523069E+01 -0.68086199022E+01  0.10098097339E+02  0.51100000000E-03 0.  1.
         12    1    4    4    0    0 -0.52220331569E+01 -0.67042643510E+01 -0.27030285404E+02  0.28334662867E+02  0.00000000000E+00 0. -1.
</event>
<event>
 8    1  0.2433390E-006  0.9118800E+02  0.7816164E-02  0.1184000E+00
        -11   -1    0    0    0    0  0.00000000000E+00  0.00000000000E+00  0.45593999997E+02  0.45594000000E+02  0.51100000000E-03 0.  1.
         11   -1    0    0    0    0 -0.00000000000E+00 -0.00000000000E+00 -0.45593999997E+02  0.45594000000E+02  0.51100000000E-03 0. -1.
         23    2    1    2    0    0 -0.71054273576E-14  0.35527136788E-14  0.00000000000E+00  0.91188000000E+02  0.91188000000E+02 0.  0.
    9900012    2    3    3    0    0 -0.21721358575E+02  0.28015638688E+02 -0.99543062770E+01  0.54367059723E+02  0.39999944250E+02 0.  0.
        -12    1    3    3    0    0  0.21721358575E+02 -0.28015638688E+02  0.99543062770E+01  0.36820940277E+02  0.00000000000E+00 0.  1.
         11    1    4    4    0    0  0.54061135582E+00  0.14179087320E+02 -0.11571098384E+02  0.18309262572E+02  0.51100000000E-03 0. -1.
        -11    1    4    4    0    0 -0.98206239397E+00 -0.35776867394E+01 -0.64159733912E+01  0.74114103765E+01  0.51100000000E-03 0.  1.
        -12    1    4    4    0    0 -0.21279907537E+02  0.17414238108E+02  0.80327654984E+01  0.28646386774E+02  0.00000000000E+00 0.  1.
</event>
<event>
 8    1  0.2433390E-006  0.9118800E+02  0.7816164E-02  0.1184000E+00
        -11   -1    0    0    0    0  0.00000000000E+00  0.00000000000E+00  0.45593999997E+02  0.45594000000E+02  0.51100000000E-03 0. -1.
         11   -1    0    0    0    0 -0.00000000000E+00 -0.00000000000E+00 -0.45593999997E+02  0.45594000000E+02  0.51100000000E-03 0.  1.
         23    2    1    2    0    0  0.17763568394E-14 -0.17763568394E-14  0.71054273576E-14  0.91188000000E+02  0.91188000000E+02 0.  0.
    9900012    2    3    3    0    0 -0.11390000427E+02  0.11589524615E+02 -0.33041341446E+02  0.54367089703E+02  0.40000012596E+02 0.  0.
         12    1    3    3    0    0  0.11390000427E+02 -0.11589524615E+02  0.33041341446E+02  0.36820910297E+02  0.00000000000E+00 0. -1.
         11    1    4    4    0    0 -0.97620962434E+00 -0.21855404626E+01  0.50212249636E+01  0.55625778862E+01  0.51100000000E-03 0. -1.
        -11    1    4    4    0    0 -0.40810899075E+01 -0.68818614890E+01 -0.16195176155E+02  0.18063749426E+02  0.51100000000E-03 0.  1.
        -12    1    4    4    0    0 -0.63327008953E+01  0.20656926567E+02 -0.21867390255E+02  0.30740762391E+02  0.00000000000E+00 0.  1.
</event>
<event>
 8    1  0.2433390E-006  0.9118800E+02  0.7816164E-02  0.1184000E+00
        -11   -1    0    0    0    0  0.00000000000E+00  0.00000000000E+00  0.45593999997E+02  0.45594000000E+02  0.51100000000E-03 0.  1.
         11   -1    0    0    0    0 -0.00000000000E+00 -0.00000000000E+00 -0.45593999997E+02  0.45594000000E+02  0.51100000000E-03 0. -1.
         23    2    1    2    0    0  0.00000000000E+00 -0.88817841970E-15  0.71054273576E-14  0.91188000000E+02  0.91188000000E+02 0.  0.
    9900012    2    3    3    0    0 -0.15187321263E+02  0.77215931482E+01 -0.32642013836E+02  0.54367098393E+02  0.40000032406E+02 0.  0.
        -12    1    3    3    0    0  0.15187321263E+02 -0.77215931482E+01  0.32642013836E+02  0.36820901607E+02  0.00000000000E+00 0.  1.
         11    1    4    4    0    0  0.19867138189E+01  0.51183134264E+01  0.17887240400E+01  0.57744002356E+01  0.51100000000E-03 0. -1.
        -11    1    4    4    0    0 -0.10838088532E+02  0.15604664629E+02 -0.14179619861E+02  0.23707200191E+02  0.51100000000E-03 0.  1.
         12    1    4    4    0    0 -0.63359465501E+01 -0.13001384907E+02 -0.20251118015E+02  0.24885497966E+02  0.00000000000E+00 0. -1.
</event>
<event>
 8    1  0.2433390E-006  0.9118800E+02  0.7816164E-02  0.1184000E+00
        -11   -1    0    0    0    0  0.00000000000E+00  0.00000000000E+00  0.45593999997E+02  0.45594000000E+02  0.51100000000E-03 0. -1.
         11   -1    0    0    0    0 -0.00000000000E+00 -0.00000000000E+00 -0.45593999997E+02  0.45594000000E+02  0.51100000000E-03 0.  1.
         23    2    1    2    0    0  0.00000000000E+00 -0.35527136788E-14  0.17763568394E-14  0.91188000000E+02  0.91188000000E+02 0.  0.
    9900012    2    3    3    0    0  0.17632877678E+02 -0.29572501743E+02 -0.13050986144E+02  0.54367089176E+02  0.40000011395E+02 0.  0.
         12    1    3    3    0    0 -0.17632877678E+02  0.29572501743E+02  0.13050986144E+02  0.36820910824E+02  0.00000000000E+00 0. -1.
         11    1    4    4    0    0  0.46349058184E+00  0.46716139913E+01 -0.42837961354E+01  0.63552899535E+01  0.51100000000E-03 0. -1.
        -11    1    4    4    0    0  0.19879053253E+02 -0.16465940621E+02  0.37738910076E+01  0.26087280662E+02  0.51100000000E-03 0.  1.
        -12    1    4    4    0    0 -0.27096661567E+01 -0.17778175114E+02 -0.12541081016E+02  0.21924518561E+02  0.00000000000E+00 0.  1.
</event>
<event>
 8    1  0.2433390E-006  0.9118800E+02  0.7816164E-02  0.1184000E+00
        -11   -1    0    0    0    0  0.00000000000E+00  0.00000000000E+00  0.45593999997E+02  0.45594000000E+02  0.51100000000E-03 0.  1.
         11   -1    0    0    0    0 -0.00000000000E+00 -0.00000000000E+00 -0.45593999997E+02  0.45594000000E+02  0.51100000000E-03 0. -1.
         23    2    1    2    0    0 -0.71054273576E-14  0.88817841970E-15  0.88817841970E-15  0.91188000000E+02  0.91188000000E+02 0.  0.
    9900012    2    3    3    0    0  0.36805751808E+02  0.10375666517E+01 -0.19281885315E+00  0.54367121550E+02  0.40000085197E+02 0.  0.
         12    1    3    3    0    0 -0.36805751808E+02 -0.10375666517E+01  0.19281885315E+00  0.36820878450E+02  0.00000000000E+00 0. -1.
         11    1    4    4    0    0  0.10581357519E+02  0.11754232266E+02  0.91044832641E+01  0.18248800477E+02  0.51100000000E-03 0. -1.
        -11    1    4    4    0    0  0.19311946009E-01 -0.62288441958E+01  0.28957659339E+01  0.68690853519E+01  0.51100000000E-03 0.  1.
         12    1    4    4    0    0  0.26205082344E+02 -0.44878214182E+01 -0.12193068051E+02  0.29249235720E+02  0.00000000000E+00 0. -1.
</event>
<event>
 8    1  0.2433390E-006  0.9118800E+02  0.7816164E-02  0.1184000E+00
        -11   -1    0    0    0    0  0.00000000000E+00  0.00000000000E+00  0.45593999997E+02  0.45594000000E+02  0.51100000000E-03 0.  1.
         11   -1    0    0    0    0 -0.00000000000E+00 -0.00000000000E+00 -0.45593999997E+02  0.45594000000E+02  0.51100000000E-03 0. -1.
         23    2    1    2    0    0  0.35527136788E-14  0.00000000000E+00 -0.13322676296E-14  0.91188000000E+02  0.91188000000E+02 0.  0.
    9900012    2    3    3    0    0  0.30936873962E+02  0.19744931310E+02 -0.29709487201E+01  0.54367095349E+02  0.40000025468E+02 0.  0.
         12    1    3    3    0    0 -0.30936873962E+02 -0.19744931310E+02  0.29709487201E+01  0.36820904651E+02  0.00000000000E+00 0. -1.
         11    1    4    4    0    0  0.24376983072E+02  0.59051232843E+01  0.76719325767E+01  0.26229112345E+02  0.51100000000E-03 0. -1.
        -11    1    4    4    0    0  0.11910870392E+02  0.15213915431E+02 -0.44282167853E+01  0.19822743513E+02  0.51100000000E-03 0.  1.
         12    1    4    4    0    0 -0.53509795023E+01 -0.13741074046E+01 -0.62146645115E+01  0.83152394905E+01  0.00000000000E+00 0. -1.
</event>
<event>
 8    1  0.2433390E-006  0.9118800E+02  0.7816164E-02  0.1184000E+00
        -11   -1    0    0    0    0  0.00000000000E+00  0.00000000000E+00  0.45593999997E+02  0.45594000000E+02  0.51100000000E-03 0. -1.
         11   -1    0    0    0    0 -0.00000000000E+00 -0.00000000000E+00 -0.45593999997E+02  0.45594000000E+02  0.51100000000E-03 0.  1.
         23    2    1    2    0    0  0.00000000000E+00  0.00000000000E+00  0.22204460493E-15  0.91188000000E+02  0.91188000000E+02 0.  0.
    9900012    2    3    3    0    0 -0.45750367212E+01  0.36526110942E+02  0.83240216083E+00  0.54367073411E+02  0.39999975455E+02 0.  0.
        -12    1    3    3    0    0  0.45750367212E+01 -0.36526110942E+02 -0.83240216083E+00  0.36820926589E+02  0.00000000000E+00 0.  1.
         11    1    4    4    0    0 -0.14768102957E+02  0.30080732397E+02 -0.10356027406E+02  0.35074130500E+02  0.51100000000E-03 0. -1.
        -11    1    4    4    0    0  0.11349985813E+02  0.26202631401E+01  0.91144074920E+01  0.14790550398E+02  0.51100000000E-03 0.  1.
        -12    1    4    4    0    0 -0.11569195779E+01  0.38251154047E+01  0.20740220747E+01  0.45023925124E+01  0.00000000000E+00 0.  1.
</event>
<event>
 8    1  0.2433390E-006  0.9118800E+02  0.7816164E-02  0.1184000E+00
        -11   -1    0    0    0    0  0.00000000000E+00  0.00000000000E+00  0.45593999997E+02  0.45594000000E+02  0.51100000000E-03 0.  1.
         11   -1    0    0    0    0 -0.00000000000E+00 -0.00000000000E+00 -0.45593999997E+02  0.45594000000E+02  0.51100000000E-03 0. -1.
         23    2    1    2    0    0 -0.17763568394E-14  0.00000000000E+00  0.00000000000E+00  0.91188000000E+02  0.91188000000E+02 0.  0.
    9900012    2    3    3    0    0 -0.13625325343E+02 -0.50342258137E+01  0.33834581369E+02  0.54367193156E+02  0.40000248436E+02 0.  0.
         12    1    3    3    0    0  0.13625325343E+02  0.50342258137E+01 -0.33834581369E+02  0.36820806844E+02  0.00000000000E+00 0. -1.
         11    1    4    4    0    0 -0.84946467970E+01 -0.19775467277E+02  0.25282848241E+02  0.33203170717E+02  0.51100000000E-03 0. -1.
        -11    1    4    4    0    0 -0.73843899417E+01  0.54612913185E+01  0.15308556255E+01  0.93111995405E+01  0.51100000000E-03 0.  1.
         12    1    4    4    0    0  0.22537113953E+01  0.92799501449E+01  0.70208775021E+01  0.11852822898E+02  0.00000000000E+00 0. -1.
</event>
<event>
 8    1  0.2433390E-006  0.9118800E+02  0.7816164E-02  0.1184000E+00
        -11   -1    0    0    0    0  0.00000000000E+00  0.00000000000E+00  0.45593999997E+02  0.45594000000E+02  0.51100000000E-03 0. -1.
         11   -1    0    0    0    0 -0.00000000000E+00 -0.00000000000E+00 -0.45593999997E+02  0.45594000000E+02  0.51100000000E-03 0.  1.
         23    2    1    2    0    0 -0.35527136788E-14  0.00000000000E+00  0.00000000000E+00  0.91188000000E+02  0.91188000000E+02 0.  0.
    9900012    2    3    3    0    0  0.31191617983E+02 -0.13495656457E+02 -0.14167917734E+02  0.54367086533E+02  0.40000005370E+02 0.  0.
        -12    1    3    3    0    0 -0.31191617983E+02  0.13495656457E+02  0.14167917734E+02  0.36820913467E+02  0.00000000000E+00 0.  1.
         11    1    4    4    0    0  0.22115542547E+02 -0.15189078988E+02 -0.75487909279E+01  0.27870945218E+02  0.51100000000E-03 0. -1.
        -11    1    4    4    0    0  0.14030077253E+01 -0.76650531865E+01 -0.11124985093E+02  0.13582590497E+02  0.51100000000E-03 0.  1.
        -12    1    4    4    0    0  0.76730677107E+01  0.93584757171E+01  0.45058582861E+01  0.12913550818E+02  0.00000000000E+00 0.  1.
</event>
<event>
 8    1  0.2433390E-006  0.9118800E+02  0.7816164E-02  0.1184000E+00
        -11   -1    0    0    0    0  0.00000000000E+00  0.00000000000E+00  0.45593999997E+02  0.45594000000E+02  0.51100000000E-03 0. -1.
         11   -1    0    0    0    0 -0.00000000000E+00 -0.00000000000E+00 -0.45593999997E+02  0.45594000000E+02  0.51100000000E-03 0.  1.
         23    2    1    2    0    0  0.00000000000E+00  0.00000000000E+00  0.00000000000E+00  0.91188000000E+02  0.91188000000E+02 0.  0.
    9900012    2    3    3    0    0  0.29941158865E+02  0.19670180465E+02  0.85080961328E+01  0.54367126932E+02  0.40000097466E+02 0.  0.
        -12    1    3    3    0    0 -0.29941158865E+02 -0.19670180465E+02 -0.85080961328E+01  0.36820873068E+02  0.00000000000E+00 0.  1.
         11    1    4    4    0    0  0.70466402081E+01  0.15801146547E+02 -0.49633748847E+01  0.17999068335E+02  0.51100000000E-03 0. -1.
        -11    1    4    4    0    0  0.19051066319E+02 -0.33303103991E+00 -0.26804996563E+01  0.19241598588E+02  0.51100000000E-03 0.  1.
         12    1    4    4    0    0  0.38434523384E+01  0.42020649577E+01  0.16151970674E+02  0.17126460009E+02  0.00000000000E+00 0. -1.
</event>
<event>
 8    1  0.2433390E-006  0.9118800E+02  0.7816164E-02  0.1184000E+00
        -11   -1    0    0    0    0  0.00000000000E+00  0.00000000000E+00  0.45593999997E+02  0.45594000000E+02  0.51100000000E-03 0. -1.
         11   -1    0    0    0    0 -0.00000000000E+00 -0.00000000000E+00 -0.45593999997E+02  0.45594000000E+02  0.51100000000E-03 0.  1.
         23    2    1    2    0    0  0.17763568394E-14  0.00000000000E+00  0.35527136788E-14  0.91188000000E+02  0.91188000000E+02 0.  0.
    9900012    2    3    3    0    0 -0.86127719474E+01  0.33064626681E+02 -0.13723363085E+02  0.54367081047E+02  0.39999992862E+02 0.  0.
         12    1    3    3    0    0  0.86127719474E+01 -0.33064626681E+02  0.13723363085E+02  0.36820918953E+02  0.00000000000E+00 0. -1.
         11    1    4    4    0    0 -0.59245009343E+01  0.12944994110E+01  0.82873983968E+01  0.10269197266E+02  0.51100000000E-03 0. -1.
        -11    1    4    4    0    0  0.57220257097E+01  0.12061826792E+02  0.40606454922E-01  0.13350314338E+02  0.51100000000E-03 0.  1.
        -12    1    4    4    0    0 -0.84102967228E+01  0.19708300479E+02 -0.22051367937E+02  0.30747569443E+02  0.00000000000E+00 0.  1.
</event>
<event>
 8    1  0.2433390E-006  0.9118800E+02  0.7816164E-02  0.1184000E+00
        -11   -1    0    0    0    0  0.00000000000E+00  0.00000000000E+00  0.45593999997E+02  0.45594000000E+02  0.51100000000E-03 0.  1.
         11   -1    0    0    0    0 -0.00000000000E+00 -0.00000000000E+00 -0.45593999997E+02  0.45594000000E+02  0.51100000000E-03 0. -1.
         23    2    1    2    0    0  0.00000000000E+00  0.35527136788E-14  0.71054273576E-14  0.91188000000E+02  0.91188000000E+02 0.  0.
    9900012    2    3    3    0    0 -0.20780728654E+02  0.17215008108E+02  0.25051639842E+02  0.54367084119E+02  0.39999999866E+02 0.  0.
         12    1    3    3    0    0  0.20780728654E+02 -0.17215008108E+02 -0.25051639842E+02  0.36820915881E+02  0.00000000000E+00 0. -1.
         11    1    4    4    0    0  0.52006422169E+01  0.81022024769E+00  0.64390392327E-01  0.52637707683E+01  0.51100000000E-03 0. -1.
        -11    1    4    4    0    0  0.26713132487E+01  0.10747646132E+02  0.14111397407E+02  0.17938209188E+02  0.51100000000E-03 0.  1.
        -12    1    4    4    0    0 -0.28652684120E+02  0.56571417284E+01  0.10875852043E+02  0.31165104162E+02  0.00000000000E+00 0.  1.
</event>
<event>
 8    1  0.2433390E-006  0.9118800E+02  0.7816164E-02  0.1184000E+00
        -11   -1    0    0    0    0  0.00000000000E+00  0.00000000000E+00  0.45593999997E+02  0.45594000000E+02  0.51100000000E-03 0.  1.
         11   -1    0    0    0    0 -0.00000000000E+00 -0.00000000000E+00 -0.45593999997E+02  0.45594000000E+02  0.51100000000E-03 0. -1.
         23    2    1    2    0    0 -0.35527136788E-14  0.44408920985E-15 -0.71054273576E-14  0.91188000000E+02  0.91188000000E+02 0.  0.
    9900012    2    3    3    0    0 -0.31040324337E+02  0.24149651040E+01 -0.19658215586E+02  0.54367092469E+02  0.40000018902E+02 0.  0.
        -12    1    3    3    0    0  0.31040324337E+02 -0.24149651040E+01  0.19658215586E+02  0.36820907531E+02  0.00000000000E+00 0.  1.
         11    1    4    4    0    0 -0.87780136680E+01 -0.26855731881E+01 -0.12034141898E+01  0.92581873646E+01  0.51100000000E-03 0. -1.
        -11    1    4    4    0    0 -0.14612813936E+02  0.18269967273E+02 -0.33052289836E+01  0.23627326852E+02  0.51100000000E-03 0.  1.
         12    1    4    4    0    0 -0.76494967330E+01 -0.13169428980E+02 -0.15149572413E+02  0.21481578253E+02  0.00000000000E+00 0. -1.
</event>
<event>
 8    1  0.2433390E-006  0.9118800E+02  0.7816164E-02  0.1184000E+00
        -11   -1    0    0    0    0  0.00000000000E+00  0.00000000000E+00  0.45593999997E+02  0.45594000000E+02  0.51100000000E-03 0.  1.
         11   -1    0    0    0    0 -0.00000000000E+00 -0.00000000000E+00 -0.45593999997E+02  0.45594000000E+02  0.51100000000E-03 0. -1.
         23    2    1    2    0    0  0.44408920985E-15  0.00000000000E+00  0.00000000000E+00  0.91188000000E+02  0.91188000000E+02 0.  0.
    9900012    2    3    3    0    0  0.35136155272E+01 -0.26714051851E+02  0.25095745299E+02  0.54367048187E+02  0.39999917951E+02 0.  0.
         12    1    3    3    0    0 -0.35136155272E+01  0.26714051851E+02 -0.25095745299E+02  0.36820951813E+02  0.00000000000E+00 0. -1.
         11    1    4    4    0    0  0.79416994631E+01  0.35453830517E+01  0.37031319016E+01  0.94526989525E+01  0.51100000000E-03 0. -1.
        -11    1    4    4    0    0  0.88503047032E+01 -0.20796962595E+02  0.16180262824E+02  0.27796446748E+02  0.51100000000E-03 0.  1.
        -12    1    4    4    0    0 -0.13278388639E+02 -0.94624723076E+01  0.52123505726E+01  0.17117902486E+02  0.00000000000E+00 0.  1.
</event>
<event>
 8    1  0.2433390E-006  0.9118800E+02  0.7816164E-02  0.1184000E+00
        -11   -1    0    0    0    0  0.00000000000E+00  0.00000000000E+00  0.45593999997E+02  0.45594000000E+02  0.51100000000E-03 0.  1.
         11   -1    0    0    0    0 -0.00000000000E+00 -0.00000000000E+00 -0.45593999997E+02  0.45594000000E+02  0.51100000000E-03 0. -1.
         23    2    1    2    0    0  0.00000000000E+00 -0.88817841970E-15  0.00000000000E+00  0.91188000000E+02  0.91188000000E+02 0.  0.
    9900012    2    3    3    0    0  0.32343088085E+02 -0.65713216480E+01 -0.16325493215E+02  0.54367090943E+02  0.40000015423E+02 0.  0.
        -12    1    3    3    0    0 -0.32343088085E+02  0.65713216480E+01  0.16325493215E+02  0.36820909057E+02  0.00000000000E+00 0.  1.
         11    1    4    4    0    0  0.33908825230E+02 -0.52559942857E+01 -0.24921350821E+02  0.42408815492E+02  0.51100000000E-03 0. -1.
        -11    1    4    4    0    0  0.26164682614E+01  0.16626707495E+01  0.40543982445E+01  0.51037756191E+01  0.51100000000E-03 0.  1.
         12    1    4    4    0    0 -0.41822054069E+01 -0.29779981117E+01  0.45414593610E+01  0.68544998320E+01  0.00000000000E+00 0. -1.
</event>
<event>
 8    1  0.2433390E-006  0.9118800E+02  0.7816164E-02  0.1184000E+00
        -11   -1    0    0    0    0  0.00000000000E+00  0.00000000000E+00  0.45593999997E+02  0.45594000000E+02  0.51100000000E-03 0.  1.
         11   -1    0    0    0    0 -0.00000000000E+00 -0.00000000000E+00 -0.45593999997E+02  0.45594000000E+02  0.51100000000E-03 0. -1.
         23    2    1    2    0    0  0.33306690739E-15  0.35527136788E-14  0.00000000000E+00  0.91188000000E+02  0.91188000000E+02 0.  0.
    9900012    2    3    3    0    0 -0.82282447268E+00  0.16370006199E+02 -0.32971596508E+02  0.54367077695E+02  0.39999985222E+02 0.  0.
        -12    1    3    3    0    0  0.82282447268E+00 -0.16370006199E+02  0.32971596508E+02  0.36820922305E+02  0.00000000000E+00 0.  1.
         11    1    4    4    0    0  0.13083393840E+02  0.93602286748E+01 -0.11670862130E+02  0.19874559073E+02  0.51100000000E-03 0. -1.
        -11    1    4    4    0    0 -0.54845205043E+00 -0.29531123345E+01  0.35007641880E+01  0.46127022745E+01  0.51100000000E-03 0.  1.
        -12    1    4    4    0    0 -0.13357766263E+02  0.99628898591E+01 -0.24801498566E+02  0.29879816348E+02  0.00000000000E+00 0.  1.
</event>
<event>
 8    1  0.2433390E-006  0.9118800E+02  0.7816164E-02  0.1184000E+00
        -11   -1    0    0    0    0  0.00000000000E+00  0.00000000000E+00  0.45593999997E+02  0.45594000000E+02  0.51100000000E-03 0. -1.
         11   -1    0    0    0    0 -0.00000000000E+00 -0.00000000000E+00 -0.45593999997E+02  0.45594000000E+02  0.51100000000E-03 0.  1.
         23    2    1    2    0    0  0.35527136788E-14  0.00000000000E+00  0.00000000000E+00  0.91188000000E+02  0.91188000000E+02 0.  0.
    9900012    2    3    3    0    0  0.31113530907E+02  0.19605295496E+02 -0.18330290002E+01  0.54367090012E+02  0.40000013301E+02 0.  0.
        -12    1    3    3    0    0 -0.31113530907E+02 -0.19605295496E+02  0.18330290002E+01  0.36820909988E+02  0.00000000000E+00 0.  1.
         11    1    4    4    0    0 -0.95499377277E+00  0.15874875730E+02  0.18610864187E+01  0.16012099659E+02  0.51100000000E-03 0. -1.
        -11    1    4    4    0    0  0.14637209086E+01 -0.21296877891E+01  0.53218455859E+01  0.59160873623E+01  0.51100000000E-03 0.  1.
         12    1    4    4    0    0  0.30604803771E+02  0.58601075553E+01 -0.90159610048E+01  0.32438902991E+02  0.00000000000E+00 0. -1.
</event>
<event>
 8    1  0.2433390E-006  0.9118800E+02  0.7816164E-02  0.1184000E+00
        -11   -1    0    0    0    0  0.00000000000E+00  0.00000000000E+00  0.45593999997E+02  0.45594000000E+02  0.51100000000E-03 0. -1.
         11   -1    0    0    0    0 -0.00000000000E+00 -0.00000000000E+00 -0.45593999997E+02  0.45594000000E+02  0.51100000000E-03 0.  1.
         23    2    1    2    0    0 -0.31086244690E-14  0.00000000000E+00  0.77715611724E-15  0.91188000000E+02  0.91188000000E+02 0.  0.
    9900012    2    3    3    0    0 -0.30043261490E+01 -0.36690538965E+02 -0.74712862033E+00  0.54367084390E+02  0.40000000484E+02 0.  0.
        -12    1    3    3    0    0  0.30043261490E+01  0.36690538965E+02  0.74712862033E+00  0.36820915610E+02  0.00000000000E+00 0.  1.
         11    1    4    4    0    0 -0.85288904297E+01 -0.12295784530E+02 -0.28574341260E-01  0.14964260955E+02  0.51100000000E-03 0. -1.
        -11    1    4    4    0    0  0.16731676754E+02 -0.20386143952E+02 -0.48269804210E+01  0.26811259062E+02  0.51100000000E-03 0.  1.
        -12    1    4    4    0    0 -0.11207112474E+02 -0.40086104837E+01  0.41084261419E+01  0.12591564373E+02  0.00000000000E+00 0.  1.
</event>
<event>
 8    1  0.2433390E-006  0.9118800E+02  0.7816164E-02  0.1184000E+00
        -11   -1    0    0    0    0  0.00000000000E+00  0.00000000000E+00  0.45593999997E+02  0.45594000000E+02  0.51100000000E-03 0.  1.
         11   -1    0    0    0    0 -0.00000000000E+00 -0.00000000000E+00 -0.45593999997E+02  0.45594000000E+02  0.51100000000E-03 0. -1.
         23    2    1    2    0    0 -0.88817841970E-15  0.00000000000E+00 -0.35527136788E-14  0.91188000000E+02  0.91188000000E+02 0.  0.
    9900012    2    3    3    0    0  0.37036912429E+01  0.21850916989E+02 -0.29404064127E+02  0.54367097115E+02  0.40000029492E+02 0.  0.
        -12    1    3    3    0    0 -0.37036912429E+01 -0.21850916989E+02  0.29404064127E+02  0.36820902885E+02  0.00000000000E+00 0.  1.
         11    1    4    4    0    0  0.68189854551E+01 -0.34808059305E+01 -0.12883048252E+02  0.14986243862E+02  0.51100000000E-03 0. -1.
        -11    1    4    4    0    0  0.73027340064E+01  0.23633480068E+02 -0.14374104094E+02  0.28609197347E+02  0.51100000000E-03 0.  1.
        -12    1    4    4    0    0 -0.10418028219E+02  0.16982428516E+01 -0.21469117811E+01  0.10771655905E+02  0.00000000000E+00 0.  1.
</event>
<event>
 8    1  0.2433390E-006  0.9118800E+02  0.7816164E-02  0.1184000E+00
        -11   -1    0    0    0    0  0.00000000000E+00  0.00000000000E+00  0.45593999997E+02  0.45594000000E+02  0.51100000000E-03 0.  1.
         11   -1    0    0    0    0 -0.00000000000E+00 -0.00000000000E+00 -0.45593999997E+02  0.45594000000E+02  0.51100000000E-03 0. -1.
         23    2    1    2    0    0 -0.72164496601E-15 -0.17763568394E-14  0.00000000000E+00  0.91188000000E+02  0.91188000000E+02 0.  0.
    9900012    2    3    3    0    0 -0.45754355389E+00 -0.12190747798E+02  0.34741282194E+02  0.54367077055E+02  0.39999983763E+02 0.  0.
         12    1    3    3    0    0  0.45754355389E+00  0.12190747798E+02 -0.34741282194E+02  0.36820922945E+02  0.00000000000E+00 0. -1.
         11    1    4    4    0    0 -0.14233841563E+02 -0.58710107239E+01  0.18653630166E+02  0.24187371316E+02  0.51100000000E-03 0.  1.
        -11    1    4    4    0    0  0.31597864393E+01 -0.11553416902E+02  0.26406145254E+01  0.12265338878E+02  0.51100000000E-03 0. -1.
         12    1    4    4    0    0  0.10616511569E+02  0.52336798274E+01  0.13447037503E+02  0.17914366861E+02  0.00000000000E+00 0. -1.
</event>
<event>
 8    1  0.2433390E-006  0.9118800E+02  0.7816164E-02  0.1184000E+00
        -11   -1    0    0    0    0  0.00000000000E+00  0.00000000000E+00  0.45593999997E+02  0.45594000000E+02  0.51100000000E-03 0.  1.
         11   -1    0    0    0    0 -0.00000000000E+00 -0.00000000000E+00 -0.45593999997E+02  0.45594000000E+02  0.51100000000E-03 0. -1.
         23    2    1    2    0    0  0.00000000000E+00 -0.35527136788E-14  0.00000000000E+00  0.91188000000E+02  0.91188000000E+02 0.  0.
    9900012    2    3    3    0    0  0.30167130542E+02  0.20446803296E+02  0.52583147475E+01  0.54367117282E+02  0.40000075468E+02 0.  0.
         12    1    3    3    0    0 -0.30167130542E+02 -0.20446803296E+02 -0.52583147475E+01  0.36820882718E+02  0.00000000000E+00 0. -1.
         11    1    4    4    0    0  0.10575425678E+02  0.26470863460E+02  0.37570943811E+01  0.28751730366E+02  0.51100000000E-03 0. -1.
        -11    1    4    4    0    0  0.15518722206E+02 -0.46866807523E+01 -0.57426365580E+01  0.17198069377E+02  0.51100000000E-03 0.  1.
         12    1    4    4    0    0  0.40729826577E+01 -0.13373794118E+01  0.72438569244E+01  0.84173175396E+01  0.00000000000E+00 0. -1.
</event>
<event>
 8    1  0.2433390E-006  0.9118800E+02  0.7816164E-02  0.1184000E+00
        -11   -1    0    0    0    0  0.00000000000E+00  0.00000000000E+00  0.45593999997E+02  0.45594000000E+02  0.51100000000E-03 0. -1.
         11   -1    0    0    0    0 -0.00000000000E+00 -0.00000000000E+00 -0.45593999997E+02  0.45594000000E+02  0.51100000000E-03 0.  1.
         23    2    1    2    0    0  0.00000000000E+00  0.00000000000E+00 -0.11102230246E-15  0.91188000000E+02  0.91188000000E+02 0.  0.
    9900012    2    3    3    0    0  0.33960589920E+02  0.14205887527E+02 -0.80715252724E+00  0.54367076555E+02  0.39999982623E+02 0.  0.
         12    1    3    3    0    0 -0.33960589920E+02 -0.14205887527E+02  0.80715252724E+00  0.36820923445E+02  0.00000000000E+00 0. -1.
         11    1    4    4    0    0  0.11966613963E+02 -0.55483651824E+01 -0.13666052714E+02  0.18993293632E+02  0.51100000000E-03 0.  1.
        -11    1    4    4    0    0  0.89662195276E+01  0.11550019723E+02  0.13587976416E+02  0.19960690157E+02  0.51100000000E-03 0. -1.
        -12    1    4    4    0    0  0.13027756429E+02  0.82042329869E+01 -0.72907622925E+00  0.15413092766E+02  0.00000000000E+00 0.  1.
</event>
<event>
 8    1  0.2433390E-006  0.9118800E+02  0.7816164E-02  0.1184000E+00
        -11   -1    0    0    0    0  0.00000000000E+00  0.00000000000E+00  0.45593999997E+02  0.45594000000E+02  0.51100000000E-03 0. -1.
         11   -1    0    0    0    0 -0.00000000000E+00 -0.00000000000E+00 -0.45593999997E+02  0.45594000000E+02  0.51100000000E-03 0.  1.
         23    2    1    2    0    0  0.00000000000E+00  0.00000000000E+00 -0.35527136788E-14  0.91188000000E+02  0.91188000000E+02 0.  0.
    9900012    2    3    3    0    0 -0.12815803918E+02 -0.19087490014E+02 -0.28761130055E+02  0.54367086009E+02  0.40000004176E+02 0.  0.
        -12    1    3    3    0    0  0.12815803918E+02  0.19087490014E+02  0.28761130055E+02  0.36820913991E+02  0.00000000000E+00 0.  1.
         11    1    4    4    0    0 -0.82009717868E+01 -0.12449481348E+02  0.60117003496E+01  0.16074391604E+02  0.51100000000E-03 0. -1.
        -11    1    4    4    0    0  0.20161629467E+01  0.14950566233E+01 -0.65003739206E+00  0.25928085558E+01  0.51100000000E-03 0.  1.
         12    1    4    4    0    0 -0.66309950774E+01 -0.81330652889E+01 -0.34122793012E+02  0.35699885850E+02  0.00000000000E+00 0. -1.
</event>
<event>
 8    1  0.2433390E-006  0.9118800E+02  0.7816164E-02  0.1184000E+00
        -11   -1    0    0    0    0  0.00000000000E+00  0.00000000000E+00  0.45593999997E+02  0.45594000000E+02  0.51100000000E-03 0.  1.
         11   -1    0    0    0    0 -0.00000000000E+00 -0.00000000000E+00 -0.45593999997E+02  0.45594000000E+02  0.51100000000E-03 0. -1.
         23    2    1    2    0    0  0.00000000000E+00  0.00000000000E+00 -0.35527136788E-14  0.91188000000E+02  0.91188000000E+02 0.  0.
    9900012    2    3    3    0    0 -0.11050358845E+02 -0.23589182183E+02  0.26023451621E+02  0.54367082291E+02  0.39999995698E+02 0.  0.
         12    1    3    3    0    0  0.11050358845E+02  0.23589182183E+02 -0.26023451621E+02  0.36820917709E+02  0.00000000000E+00 0. -1.
         11    1    4    4    0    0 -0.17223529220E+02 -0.14289258382E+02  0.91175266796E+00  0.22397860547E+02  0.51100000000E-03 0. -1.
        -11    1    4    4    0    0  0.27631261386E+01 -0.94204442572E+01  0.40285391802E+01  0.10611727675E+02  0.51100000000E-03 0.  1.
        -12    1    4    4    0    0  0.34100442360E+01  0.12052045648E+00  0.21083159773E+02  0.21357494069E+02  0.00000000000E+00 0.  1.
</event>
<event>
 8    1  0.2433390E-006  0.9118800E+02  0.7816164E-02  0.1184000E+00
        -11   -1    0    0    0    0  0.00000000000E+00  0.00000000000E+00  0.45593999997E+02  0.45594000000E+02  0.51100000000E-03 0. -1.
         11   -1    0    0    0    0 -0.00000000000E+00 -0.00000000000E+00 -0.45593999997E+02  0.45594000000E+02  0.51100000000E-03 0.  1.
         23    2    1    2    0    0  0.35527136788E-14  0.35527136788E-14 -0.35527136788E-14  0.91188000000E+02  0.91188000000E+02 0.  0.
    9900012    2    3    3    0    0 -0.12562367501E+02 -0.22362548427E+02  0.26417435893E+02  0.54367115050E+02  0.40000070379E+02 0.  0.
        -12    1    3    3    0    0  0.12562367501E+02  0.22362548427E+02 -0.26417435893E+02  0.36820884950E+02  0.00000000000E+00 0.  1.
         11    1    4    4    0    0 -0.12199270538E+02 -0.25791530061E+02  0.27182813930E+02  0.39407240426E+02  0.51100000000E-03 0. -1.
        -11    1    4    4    0    0 -0.36437105988E+01  0.35853347053E+01 -0.65495464096E+01  0.83082976783E+01  0.51100000000E-03 0.  1.
        -12    1    4    4    0    0  0.32806136351E+01 -0.15635307071E+00  0.57841683718E+01  0.66515769452E+01  0.00000000000E+00 0.  1.
</event>
<event>
 8    1  0.2433390E-006  0.9118800E+02  0.7816164E-02  0.1184000E+00
        -11   -1    0    0    0    0  0.00000000000E+00  0.00000000000E+00  0.45593999997E+02  0.45594000000E+02  0.51100000000E-03 0.  1.
         11   -1    0    0    0    0 -0.00000000000E+00 -0.00000000000E+00 -0.45593999997E+02  0.45594000000E+02  0.51100000000E-03 0. -1.
         23    2    1    2    0    0  0.00000000000E+00  0.00000000000E+00  0.72164496601E-15  0.91188000000E+02  0.91188000000E+02 0.  0.
    9900012    2    3    3    0    0 -0.20623446947E+02 -0.30499337366E+02  0.49303500456E+00  0.54367092525E+02  0.40000019029E+02 0.  0.
        -12    1    3    3    0    0  0.20623446947E+02  0.30499337366E+02 -0.49303500456E+00  0.36820907475E+02  0.00000000000E+00 0.  1.
         11    1    4    4    0    0 -0.42486284553E+01 -0.17678466665E+02  0.10265242461E+01  0.18210787453E+02  0.51100000000E-03 0. -1.
        -11    1    4    4    0    0 -0.15776581063E+02 -0.17484421105E+02 -0.10000941009E+02  0.25585627073E+02  0.51100000000E-03 0.  1.
        -12    1    4    4    0    0 -0.59823742861E+00  0.46635504031E+01  0.94674517672E+01  0.10570677999E+02  0.00000000000E+00 0.  1.
</event>
<event>
 8    1  0.2433390E-006  0.9118800E+02  0.7816164E-02  0.1184000E+00
        -11   -1    0    0    0    0  0.00000000000E+00  0.00000000000E+00  0.45593999997E+02  0.45594000000E+02  0.51100000000E-03 0. -1.
         11   -1    0    0    0    0 -0.00000000000E+00 -0.00000000000E+00 -0.45593999997E+02  0.45594000000E+02  0.51100000000E-03 0.  1.
         23    2    1    2    0    0  0.00000000000E+00  0.00000000000E+00  0.88817841970E-15  0.91188000000E+02  0.91188000000E+02 0.  0.
    9900012    2    3    3    0    0  0.21990069636E+02  0.29124540736E+02 -0.48969991518E+01  0.54367046232E+02  0.39999913495E+02 0.  0.
         12    1    3    3    0    0 -0.21990069636E+02 -0.29124540736E+02  0.48969991518E+01  0.36820953768E+02  0.00000000000E+00 0. -1.
         11    1    4    4    0    0  0.16452865056E+02  0.19005056800E+02  0.64742088744E+01  0.25957741299E+02  0.51100000000E-03 0. -1.
        -11    1    4    4    0    0  0.76119920197E+01  0.15061426988E+02 -0.14459784519E+02  0.22223284501E+02  0.51100000000E-03 0.  1.
         12    1    4    4    0    0 -0.20747874398E+01 -0.49419430515E+01  0.30885764927E+01  0.61860204328E+01  0.00000000000E+00 0. -1.
</event>
<event>
 8    1  0.2433390E-006  0.9118800E+02  0.7816164E-02  0.1184000E+00
        -11   -1    0    0    0    0  0.00000000000E+00  0.00000000000E+00  0.45593999997E+02  0.45594000000E+02  0.51100000000E-03 0. -1.
         11   -1    0    0    0    0 -0.00000000000E+00 -0.00000000000E+00 -0.45593999997E+02  0.45594000000E+02  0.51100000000E-03 0.  1.
         23    2    1    2    0    0 -0.17763568394E-14  0.35527136788E-14  0.00000000000E+00  0.91188000000E+02  0.91188000000E+02 0.  0.
    9900012    2    3    3    0    0  0.13917351997E+02  0.18184993069E+02 -0.28833901197E+02  0.54367075001E+02  0.39999979081E+02 0.  0.
         12    1    3    3    0    0 -0.13917351997E+02 -0.18184993069E+02  0.28833901197E+02  0.36820924999E+02  0.00000000000E+00 0. -1.
         11    1    4    4    0    0 -0.69584303953E+01 -0.21704277358E+01 -0.22347757824E+02  0.23506441461E+02  0.51100000000E-03 0. -1.
        -11    1    4    4    0    0  0.86518250961E+01  0.39776427246E+01 -0.37816471003E+01  0.10245807640E+02  0.51100000000E-03 0.  1.
         12    1    4    4    0    0  0.12223957296E+02  0.16377778081E+02 -0.27044962720E+01  0.20614825901E+02  0.00000000000E+00 0. -1.
</event>
<event>
 8    1  0.2433390E-006  0.9118800E+02  0.7816164E-02  0.1184000E+00
        -11   -1    0    0    0    0  0.00000000000E+00  0.00000000000E+00  0.45593999997E+02  0.45594000000E+02  0.51100000000E-03 0.  1.
         11   -1    0    0    0    0 -0.00000000000E+00 -0.00000000000E+00 -0.45593999997E+02  0.45594000000E+02  0.51100000000E-03 0. -1.
         23    2    1    2    0    0 -0.35527136788E-14  0.00000000000E+00  0.00000000000E+00  0.91188000000E+02  0.91188000000E+02 0.  0.
    9900012    2    3    3    0    0  0.29197996388E+02 -0.19315732020E+02 -0.11408728265E+02  0.54367087774E+02  0.40000008198E+02 0.  0.
        -12    1    3    3    0    0 -0.29197996388E+02  0.19315732020E+02  0.11408728265E+02  0.36820912226E+02  0.00000000000E+00 0.  1.
         11    1    4    4    0    0  0.67581509337E+01 -0.19142416367E+01 -0.39731844610E+01  0.80698897209E+01  0.51100000000E-03 0. -1.
        -11    1    4    4    0    0  0.11268608468E+02  0.16635927896E+01  0.12232680086E+02  0.16714889773E+02  0.51100000000E-03 0.  1.
         12    1    4    4    0    0  0.11171236986E+02 -0.19065083173E+02 -0.19668223889E+02  0.29582308280E+02  0.00000000000E+00 0. -1.
</event>
<event>
 8    1  0.2433390E-006  0.9118800E+02  0.7816164E-02  0.1184000E+00
        -11   -1    0    0    0    0  0.00000000000E+00  0.00000000000E+00  0.45593999997E+02  0.45594000000E+02  0.51100000000E-03 0.  1.
         11   -1    0    0    0    0 -0.00000000000E+00 -0.00000000000E+00 -0.45593999997E+02  0.45594000000E+02  0.51100000000E-03 0. -1.
         23    2    1    2    0    0  0.88817841970E-15  0.00000000000E+00 -0.13322676296E-14  0.91188000000E+02  0.91188000000E+02 0.  0.
    9900012    2    3    3    0    0 -0.53488344125E+00 -0.36736622678E+02 -0.24318866917E+01  0.54367087206E+02  0.40000006904E+02 0.  0.
        -12    1    3    3    0    0  0.53488344125E+00  0.36736622678E+02  0.24318866917E+01  0.36820912794E+02  0.00000000000E+00 0.  1.
         11    1    4    4    0    0  0.14006502588E+01 -0.20481011626E+02  0.60845502968E+01  0.21411571894E+02  0.51100000000E-03 0. -1.
        -11    1    4    4    0    0 -0.11976402597E+02 -0.74117777698E+01  0.39918794923E+01  0.14639117836E+02  0.51100000000E-03 0.  1.
         12    1    4    4    0    0  0.10040868897E+02 -0.88438332823E+01 -0.12508316481E+02  0.18316397476E+02  0.00000000000E+00 0. -1.
</event>
<event>
 8    1  0.2433390E-006  0.9118800E+02  0.7816164E-02  0.1184000E+00
        -11   -1    0    0    0    0  0.00000000000E+00  0.00000000000E+00  0.45593999997E+02  0.45594000000E+02  0.51100000000E-03 0.  1.
         11   -1    0    0    0    0 -0.00000000000E+00 -0.00000000000E+00 -0.45593999997E+02  0.45594000000E+02  0.51100000000E-03 0. -1.
         23    2    1    2    0    0 -0.22204460493E-15 -0.17763568394E-14  0.00000000000E+00  0.91188000000E+02  0.91188000000E+02 0.  0.
    9900012    2    3    3    0    0  0.86851482956E+00  0.11917301273E+02 -0.34828239769E+02  0.54367045734E+02  0.39999912360E+02 0.  0.
        -12    1    3    3    0    0 -0.86851482956E+00 -0.11917301273E+02  0.34828239769E+02  0.36820954266E+02  0.00000000000E+00 0.  1.
         11    1    4    4    0    0  0.10995117918E+01  0.10522260715E+02 -0.36938837772E+02  0.38424011151E+02  0.51100000000E-03 0. -1.
        -11    1    4    4    0    0  0.49864315995E+01  0.23306146883E+01 -0.47519902430E+01  0.72717038205E+01  0.51100000000E-03 0.  1.
        -12    1    4    4    0    0 -0.52174285617E+01 -0.93557412973E+00  0.68625882464E+01  0.86713307623E+01  0.00000000000E+00 0.  1.
</event>
<event>
 8    1  0.2433390E-006  0.9118800E+02  0.7816164E-02  0.1184000E+00
        -11   -1    0    0    0    0  0.00000000000E+00  0.00000000000E+00  0.45593999997E+02  0.45594000000E+02  0.51100000000E-03 0.  1.
         11   -1    0    0    0    0 -0.00000000000E+00 -0.00000000000E+00 -0.45593999997E+02  0.45594000000E+02  0.51100000000E-03 0. -1.
         23    2    1    2    0    0  0.17763568394E-14  0.00000000000E+00  0.00000000000E+00  0.91188000000E+02  0.91188000000E+02 0.  0.
    9900012    2    3    3    0    0  0.13150915081E+02  0.23999181281E+02 -0.24634641567E+02  0.54367179331E+02  0.40000216919E+02 0.  0.
        -12    1    3    3    0    0 -0.13150915081E+02 -0.23999181281E+02  0.24634641567E+02  0.36820820669E+02  0.00000000000E+00 0.  1.
         11    1    4    4    0    0  0.18664268435E+00 -0.17499019166E+01 -0.57815271222E+01  0.60434301796E+01  0.51100000000E-03 0. -1.
        -11    1    4    4    0    0  0.17195314254E+02  0.29191617420E+01 -0.18037324695E+02  0.25090743711E+02  0.51100000000E-03 0.  1.
        -12    1    4    4    0    0 -0.42310418570E+01  0.22829921455E+02 -0.81578974997E+00  0.23233005440E+02  0.00000000000E+00 0.  1.
</event>
<event>
 8    1  0.2433390E-006  0.9118800E+02  0.7816164E-02  0.1184000E+00
        -11   -1    0    0    0    0  0.00000000000E+00  0.00000000000E+00  0.45593999997E+02  0.45594000000E+02  0.51100000000E-03 0.  1.
         11   -1    0    0    0    0 -0.00000000000E+00 -0.00000000000E+00 -0.45593999997E+02  0.45594000000E+02  0.51100000000E-03 0. -1.
         23    2    1    2    0    0  0.00000000000E+00  0.00000000000E+00 -0.17763568394E-14  0.91188000000E+02  0.91188000000E+02 0.  0.
    9900012    2    3    3    0    0 -0.12145262954E+02 -0.31129488966E+02 -0.15466973706E+02  0.54367085140E+02  0.40000002193E+02 0.  0.
        -12    1    3    3    0    0  0.12145262954E+02  0.31129488966E+02  0.15466973706E+02  0.36820914860E+02  0.00000000000E+00 0.  1.
         11    1    4    4    0    0  0.28155401325E+01 -0.20084067070E+02 -0.28620909281E+01  0.20481420387E+02  0.51100000000E-03 0. -1.
        -11    1    4    4    0    0  0.44352363786E+01 -0.10075872630E+02 -0.88055709489E+01  0.14097255442E+02  0.51100000000E-03 0.  1.
        -12    1    4    4    0    0 -0.19396039465E+02 -0.96954926621E+00 -0.37993118286E+01  0.19788409311E+02  0.00000000000E+00 0.  1.
</event>
<event>
 8    1  0.2433390E-006  0.9118800E+02  0.7816164E-02  0.1184000E+00
        -11   -1    0    0    0    0  0.00000000000E+00  0.00000000000E+00  0.45593999997E+02  0.45594000000E+02  0.51100000000E-03 0. -1.
         11   -1    0    0    0    0 -0.00000000000E+00 -0.00000000000E+00 -0.45593999997E+02  0.45594000000E+02  0.51100000000E-03 0.  1.
         23    2    1    2    0    0  0.00000000000E+00  0.00000000000E+00  0.00000000000E+00  0.91188000000E+02  0.91188000000E+02 0.  0.
    9900012    2    3    3    0    0  0.86088836231E+01  0.65593599581E+01 -0.35194365024E+02  0.54367062889E+02  0.39999951469E+02 0.  0.
         12    1    3    3    0    0 -0.86088836231E+01 -0.65593599581E+01  0.35194365024E+02  0.36820937111E+02  0.00000000000E+00 0. -1.
         11    1    4    4    0    0 -0.10018443923E+02  0.57502800525E+01 -0.95779110005E+01  0.15005709537E+02  0.51100000000E-03 0. -1.
        -11    1    4    4    0    0 -0.50911739301E+01  0.13344019254E+01 -0.13692259952E+01  0.54383325177E+01  0.51100000000E-03 0.  1.
         12    1    4    4    0    0  0.23718501476E+02 -0.52532201991E+00 -0.24247228028E+02  0.33923020835E+02  0.00000000000E+00 0. -1.
</event>
<event>
 8    1  0.2433390E-006  0.9118800E+02  0.7816164E-02  0.1184000E+00
        -11   -1    0    0    0    0  0.00000000000E+00  0.00000000000E+00  0.45593999997E+02  0.45594000000E+02  0.51100000000E-03 0. -1.
         11   -1    0    0    0    0 -0.00000000000E+00 -0.00000000000E+00 -0.45593999997E+02  0.45594000000E+02  0.51100000000E-03 0.  1.
         23    2    1    2    0    0  0.44408920985E-15  0.35527136788E-14 -0.35527136788E-14  0.91188000000E+02  0.91188000000E+02 0.  0.
    9900012    2    3    3    0    0  0.35513913577E+01  0.19620511030E+02 -0.30954863448E+02  0.54367076536E+02  0.39999982580E+02 0.  0.
         12    1    3    3    0    0 -0.35513913577E+01 -0.19620511030E+02  0.30954863448E+02  0.36820923464E+02  0.00000000000E+00 0. -1.
         11    1    4    4    0    0 -0.91445201469E+00  0.21298552312E+02 -0.16720868085E+02  0.27093393712E+02  0.51100000000E-03 0. -1.
        -11    1    4    4    0    0  0.20252952001E+01 -0.11034759891E+02 -0.15523004569E+01  0.11325960598E+02  0.51100000000E-03 0.  1.
         12    1    4    4    0    0  0.24405481723E+01  0.93567186095E+01 -0.12681694905E+02  0.15947722226E+02  0.00000000000E+00 0. -1.
</event>
<event>
 8    1  0.2433390E-006  0.9118800E+02  0.7816164E-02  0.1184000E+00
        -11   -1    0    0    0    0  0.00000000000E+00  0.00000000000E+00  0.45593999997E+02  0.45594000000E+02  0.51100000000E-03 0. -1.
         11   -1    0    0    0    0 -0.00000000000E+00 -0.00000000000E+00 -0.45593999997E+02  0.45594000000E+02  0.51100000000E-03 0.  1.
         23    2    1    2    0    0  0.00000000000E+00  0.17763568394E-14 -0.35527136788E-14  0.91188000000E+02  0.91188000000E+02 0.  0.
    9900012    2    3    3    0    0 -0.24747659793E+02  0.27225919077E+01 -0.27127840628E+02  0.54367096846E+02  0.40000028881E+02 0.  0.
         12    1    3    3    0    0  0.24747659793E+02 -0.27225919077E+01  0.27127840628E+02  0.36820903154E+02  0.00000000000E+00 0. -1.
         11    1    4    4    0    0 -0.10876476312E+02 -0.10311404966E+02 -0.99806606781E+01  0.18006565391E+02  0.51100000000E-03 0. -1.
        -11    1    4    4    0    0 -0.21442490738E+02  0.90026613803E+01 -0.14402931019E+02  0.27354574447E+02  0.51100000000E-03 0.  1.
         12    1    4    4    0    0  0.75713072576E+01  0.40313354929E+01 -0.27442489311E+01  0.90059570086E+01  0.00000000000E+00 0. -1.
</event>
<event>
 8    1  0.2433390E-006  0.9118800E+02  0.7816164E-02  0.1184000E+00
        -11   -1    0    0    0    0  0.00000000000E+00  0.00000000000E+00  0.45593999997E+02  0.45594000000E+02  0.51100000000E-03 0. -1.
         11   -1    0    0    0    0 -0.00000000000E+00 -0.00000000000E+00 -0.45593999997E+02  0.45594000000E+02  0.51100000000E-03 0.  1.
         23    2    1    2    0    0  0.00000000000E+00  0.00000000000E+00  0.00000000000E+00  0.91188000000E+02  0.91188000000E+02 0.  0.
    9900012    2    3    3    0    0  0.19793987149E+02 -0.16039194080E+02 -0.26584221713E+02  0.54367102155E+02  0.40000040984E+02 0.  0.
         12    1    3    3    0    0 -0.19793987149E+02  0.16039194080E+02  0.26584221713E+02  0.36820897845E+02  0.00000000000E+00 0. -1.
         11    1    4    4    0    0  0.16119955428E+02 -0.14843585412E+02  0.17274813501E+01  0.21981109684E+02  0.51100000000E-03 0.  1.
        -11    1    4    4    0    0  0.38887174980E+01  0.64649999231E+01 -0.18172805066E+02  0.19676615360E+02  0.51100000000E-03 0. -1.
         12    1    4    4    0    0 -0.21468577652E+00 -0.76606085908E+01 -0.10138897997E+02  0.12709377111E+02  0.00000000000E+00 0. -1.
</event>
<event>
 8    1  0.2433390E-006  0.9118800E+02  0.7816164E-02  0.1184000E+00
        -11   -1    0    0    0    0  0.00000000000E+00  0.00000000000E+00  0.45593999997E+02  0.45594000000E+02  0.51100000000E-03 0. -1.
         11   -1    0    0    0    0 -0.00000000000E+00 -0.00000000000E+00 -0.45593999997E+02  0.45594000000E+02  0.51100000000E-03 0.  1.
         23    2    1    2    0    0  0.00000000000E+00  0.00000000000E+00  0.00000000000E+00  0.91188000000E+02  0.91188000000E+02 0.  0.
    9900012    2    3    3    0    0  0.20277006184E+02  0.74276951047E+01 -0.29823690402E+02  0.54367080083E+02  0.39999990665E+02 0.  0.
         12    1    3    3    0    0 -0.20277006184E+02 -0.74276951047E+01  0.29823690402E+02  0.36820919917E+02  0.00000000000E+00 0. -1.
         11    1    4    4    0    0 -0.88090123058E+00 -0.50866750370E+01  0.31531325326E+01  0.60491730790E+01  0.51100000000E-03 0. -1.
        -11    1    4    4    0    0  0.18763196269E+02  0.99600751424E+01 -0.37196340988E+02  0.42834897154E+02  0.51100000000E-03 0.  1.
        -12    1    4    4    0    0  0.23947111450E+01  0.25542949993E+01  0.42195180528E+01  0.54830098495E+01  0.00000000000E+00 0.  1.
</event>
<event>
 8    1  0.2433390E-006  0.9118800E+02  0.7816164E-02  0.1184000E+00
        -11   -1    0    0    0    0  0.00000000000E+00  0.00000000000E+00  0.45593999997E+02  0.45594000000E+02  0.51100000000E-03 0. -1.
         11   -1    0    0    0    0 -0.00000000000E+00 -0.00000000000E+00 -0.45593999997E+02  0.45594000000E+02  0.51100000000E-03 0.  1.
         23    2    1    2    0    0  0.00000000000E+00 -0.71054273576E-14 -0.35527136788E-14  0.91188000000E+02  0.91188000000E+02 0.  0.
    9900012    2    3    3    0    0 -0.16655221080E+02  0.21009927001E+02  0.25238187776E+02  0.54367088224E+02  0.40000009224E+02 0.  0.
        -12    1    3    3    0    0  0.16655221080E+02 -0.21009927001E+02 -0.25238187776E+02  0.36820911776E+02  0.00000000000E+00 0.  1.
         11    1    4    4    0    0  0.70089255159E+01  0.15478195406E+02 -0.30551167940E+00  0.16993907955E+02  0.51100000000E-03 0. -1.
        -11    1    4    4    0    0  0.13786357847E+01  0.11473050061E+01  0.23752025254E+01  0.29763287287E+01  0.51100000000E-03 0.  1.
        -12    1    4    4    0    0 -0.25042782381E+02  0.43844265886E+01  0.23168496930E+02  0.34396851540E+02  0.00000000000E+00 0.  1.
</event>
<event>
 8    1  0.2433390E-006  0.9118800E+02  0.7816164E-02  0.1184000E+00
        -11   -1    0    0    0    0  0.00000000000E+00  0.00000000000E+00  0.45593999997E+02  0.45594000000E+02  0.51100000000E-03 0.  1.
         11   -1    0    0    0    0 -0.00000000000E+00 -0.00000000000E+00 -0.45593999997E+02  0.45594000000E+02  0.51100000000E-03 0. -1.
         23    2    1    2    0    0  0.00000000000E+00  0.00000000000E+00  0.00000000000E+00  0.91188000000E+02  0.91188000000E+02 0.  0.
    9900012    2    3    3    0    0 -0.13809966177E+02 -0.81162939463E+01  0.33154053644E+02  0.54367072985E+02  0.39999974483E+02 0.  0.
         12    1    3    3    0    0  0.13809966177E+02  0.81162939463E+01 -0.33154053644E+02  0.36820927015E+02  0.00000000000E+00 0. -1.
         11    1    4    4    0    0 -0.46570598986E+01 -0.94347296699E+01 -0.56613960801E+01  0.11947959520E+02  0.51100000000E-03 0. -1.
        -11    1    4    4    0    0 -0.11473863475E+02  0.19490430739E+01  0.17803736152E+02  0.21270198240E+02  0.51100000000E-03 0.  1.
         12    1    4    4    0    0  0.23209571966E+01 -0.63060735037E+00  0.21011713572E+02  0.21148915225E+02  0.00000000000E+00 0. -1.
</event>
<event>
 8    1  0.2433390E-006  0.9118800E+02  0.7816164E-02  0.1184000E+00
        -11   -1    0    0    0    0  0.00000000000E+00  0.00000000000E+00  0.45593999997E+02  0.45594000000E+02  0.51100000000E-03 0.  1.
         11   -1    0    0    0    0 -0.00000000000E+00 -0.00000000000E+00 -0.45593999997E+02  0.45594000000E+02  0.51100000000E-03 0. -1.
         23    2    1    2    0    0  0.00000000000E+00  0.17763568394E-14  0.00000000000E+00  0.91188000000E+02  0.91188000000E+02 0.  0.
    9900012    2    3    3    0    0  0.35158326627E+02 -0.10612237076E+02  0.26558548971E+01  0.54367067472E+02  0.39999961916E+02 0.  0.
         12    1    3    3    0    0 -0.35158326627E+02  0.10612237076E+02 -0.26558548971E+01  0.36820932528E+02  0.00000000000E+00 0. -1.
         11    1    4    4    0    0  0.16848138985E+02  0.56536618466E+01 -0.88263663568E+01  0.19842591132E+02  0.51100000000E-03 0. -1.
        -11    1    4    4    0    0  0.53453235380E+01  0.24361967464E+01  0.10152158531E+02  0.11729188438E+02  0.51100000000E-03 0.  1.
         12    1    4    4    0    0  0.12964864105E+02 -0.18702095669E+02  0.13300627232E+01  0.22795287902E+02  0.00000000000E+00 0. -1.
</event>
<event>
 8    1  0.2433390E-006  0.9118800E+02  0.7816164E-02  0.1184000E+00
        -11   -1    0    0    0    0  0.00000000000E+00  0.00000000000E+00  0.45593999997E+02  0.45594000000E+02  0.51100000000E-03 0. -1.
         11   -1    0    0    0    0 -0.00000000000E+00 -0.00000000000E+00 -0.45593999997E+02  0.45594000000E+02  0.51100000000E-03 0.  1.
         23    2    1    2    0    0 -0.35527136788E-14  0.00000000000E+00  0.00000000000E+00  0.91188000000E+02  0.91188000000E+02 0.  0.
    9900012    2    3    3    0    0 -0.14386172578E+02 -0.10476330144E+02 -0.32234525689E+02  0.54367080659E+02  0.39999991978E+02 0.  0.
         12    1    3    3    0    0  0.14386172578E+02  0.10476330144E+02  0.32234525689E+02  0.36820919341E+02  0.00000000000E+00 0. -1.
         11    1    4    4    0    0 -0.72337751475E+01 -0.28097589970E+01  0.44896838314E+01  0.89654620446E+01  0.51100000000E-03 0.  1.
        -11    1    4    4    0    0 -0.12809529896E+02  0.16772851166E+01 -0.94050866163E+01  0.15979768335E+02  0.51100000000E-03 0. -1.
        -12    1    4    4    0    0  0.56571324656E+01 -0.93438562639E+01 -0.27319122904E+02  0.29421850279E+02  0.00000000000E+00 0.  1.
</event>
<event>
 8    1  0.2433390E-006  0.9118800E+02  0.7816164E-02  0.1184000E+00
        -11   -1    0    0    0    0  0.00000000000E+00  0.00000000000E+00  0.45593999997E+02  0.45594000000E+02  0.51100000000E-03 0.  1.
         11   -1    0    0    0    0 -0.00000000000E+00 -0.00000000000E+00 -0.45593999997E+02  0.45594000000E+02  0.51100000000E-03 0. -1.
         23    2    1    2    0    0 -0.71054273576E-14  0.00000000000E+00  0.00000000000E+00  0.91188000000E+02  0.91188000000E+02 0.  0.
    9900012    2    3    3    0    0 -0.34319312258E+02  0.17145152300E+01 -0.13229725776E+02  0.54367076595E+02  0.39999982713E+02 0.  0.
        -12    1    3    3    0    0  0.34319312258E+02 -0.17145152300E+01  0.13229725776E+02  0.36820923405E+02  0.00000000000E+00 0.  1.
         11    1    4    4    0    0 -0.78395695761E+01 -0.30152718603E+01 -0.14649116959E+02  0.16886306389E+02  0.51100000000E-03 0. -1.
        -11    1    4    4    0    0 -0.28958471955E+01  0.36030480505E+01 -0.10175729655E+02  0.11176464580E+02  0.51100000000E-03 0.  1.
        -12    1    4    4    0    0 -0.23583895486E+02  0.11267390398E+01  0.11595120838E+02  0.26304305625E+02  0.00000000000E+00 0.  1.
</event>
<event>
 8    1  0.2433390E-006  0.9118800E+02  0.7816164E-02  0.1184000E+00
        -11   -1    0    0    0    0  0.00000000000E+00  0.00000000000E+00  0.45593999997E+02  0.45594000000E+02  0.51100000000E-03 0.  1.
         11   -1    0    0    0    0 -0.00000000000E+00 -0.00000000000E+00 -0.45593999997E+02  0.45594000000E+02  0.51100000000E-03 0. -1.
         23    2    1    2    0    0  0.35527136788E-14 -0.35527136788E-14 -0.53290705182E-14  0.91188000000E+02  0.91188000000E+02 0.  0.
    9900012    2    3    3    0    0  0.27170442652E+02  0.24014984647E+02 -0.63896376744E+01  0.54367083239E+02  0.39999997859E+02 0.  0.
        -12    1    3    3    0    0 -0.27170442652E+02 -0.24014984647E+02  0.63896376744E+01  0.36820916761E+02  0.00000000000E+00 0.  1.
         11    1    4    4    0    0  0.28295371762E+01  0.35419288799E+01 -0.81588000945E+01  0.93336788066E+01  0.51100000000E-03 0. -1.
        -11    1    4    4    0    0  0.11881060983E+02 -0.15599955417E+01  0.12700910912E+02  0.17461567354E+02  0.51100000000E-03 0.  1.
        -12    1    4    4    0    0  0.12459844493E+02  0.22033051309E+02 -0.10931748492E+02  0.27571837078E+02  0.00000000000E+00 0.  1.
</event>
<event>
 8    1  0.2433390E-006  0.9118800E+02  0.7816164E-02  0.1184000E+00
        -11   -1    0    0    0    0  0.00000000000E+00  0.00000000000E+00  0.45593999997E+02  0.45594000000E+02  0.51100000000E-03 0.  1.
         11   -1    0    0    0    0 -0.00000000000E+00 -0.00000000000E+00 -0.45593999997E+02  0.45594000000E+02  0.51100000000E-03 0. -1.
         23    2    1    2    0    0 -0.71054273576E-14  0.71054273576E-14 -0.17763568394E-14  0.91188000000E+02  0.91188000000E+02 0.  0.
    9900012    2    3    3    0    0  0.23221624202E+02  0.25423641280E+02  0.13045058158E+02  0.54367096849E+02  0.40000028886E+02 0.  0.
         12    1    3    3    0    0 -0.23221624202E+02 -0.25423641280E+02 -0.13045058158E+02  0.36820903151E+02  0.00000000000E+00 0. -1.
         11    1    4    4    0    0 -0.22669103713E+01 -0.86754754156E+01  0.16631291815E+01  0.91196905240E+01  0.51100000000E-03 0. -1.
        -11    1    4    4    0    0  0.22854636389E+02  0.24295868332E+02  0.64994871099E+01  0.33983333495E+02  0.51100000000E-03 0.  1.
         12    1    4    4    0    0  0.26338981838E+01  0.98032483636E+01  0.48824418670E+01  0.11264072829E+02  0.00000000000E+00 0. -1.
</event>
<event>
 8    1  0.2433390E-006  0.9118800E+02  0.7816164E-02  0.1184000E+00
        -11   -1    0    0    0    0  0.00000000000E+00  0.00000000000E+00  0.45593999997E+02  0.45594000000E+02  0.51100000000E-03 0. -1.
         11   -1    0    0    0    0 -0.00000000000E+00 -0.00000000000E+00 -0.45593999997E+02  0.45594000000E+02  0.51100000000E-03 0.  1.
         23    2    1    2    0    0  0.00000000000E+00  0.00000000000E+00 -0.66613381478E-15  0.91188000000E+02  0.91188000000E+02 0.  0.
    9900012    2    3    3    0    0 -0.17770635280E+02  0.32223827313E+02  0.12678284908E+01  0.54367110358E+02  0.40000059683E+02 0.  0.
         12    1    3    3    0    0  0.17770635280E+02 -0.32223827313E+02 -0.12678284908E+01  0.36820889642E+02  0.00000000000E+00 0. -1.
         11    1    4    4    0    0 -0.14844035260E+02  0.10072078142E+02  0.47404733412E+01  0.18554358751E+02  0.51100000000E-03 0. -1.
        -11    1    4    4    0    0  0.68017318907E+01  0.24507643038E+02 -0.41931339794E+01  0.25777325245E+02  0.51100000000E-03 0.  1.
        -12    1    4    4    0    0 -0.97283319100E+01 -0.23558938668E+01  0.72048912899E+00  0.10035426361E+02  0.00000000000E+00 0.  1.
</event>
<event>
 8    1  0.2433390E-006  0.9118800E+02  0.7816164E-02  0.1184000E+00
        -11   -1    0    0    0    0  0.00000000000E+00  0.00000000000E+00  0.45593999997E+02  0.45594000000E+02  0.51100000000E-03 0.  1.
         11   -1    0    0    0    0 -0.00000000000E+00 -0.00000000000E+00 -0.45593999997E+02  0.45594000000E+02  0.51100000000E-03 0. -1.
         23    2    1    2    0    0  0.17763568394E-14  0.35527136788E-14  0.00000000000E+00  0.91188000000E+02  0.91188000000E+02 0.  0.
    9900012    2    3    3    0    0  0.13709392852E+02  0.22334420746E+02  0.25865148992E+02  0.54367085632E+02  0.40000003316E+02 0.  0.
         12    1    3    3    0    0 -0.13709392852E+02 -0.22334420746E+02 -0.25865148992E+02  0.36820914368E+02  0.00000000000E+00 0. -1.
         11    1    4    4    0    0  0.12224163079E+01 -0.65484488354E+01  0.37387949762E+01  0.76390491499E+01  0.51100000000E-03 0. -1.
        -11    1    4    4    0    0  0.18760500185E+02  0.18629466011E+02  0.68917987779E+01  0.27322339974E+02  0.51100000000E-03 0.  1.
         12    1    4    4    0    0 -0.62735236401E+01  0.10253403571E+02  0.15234555238E+02  0.19405696508E+02  0.00000000000E+00 0. -1.
</event>
<event>
 8    1  0.2433390E-006  0.9118800E+02  0.7816164E-02  0.1184000E+00
        -11   -1    0    0    0    0  0.00000000000E+00  0.00000000000E+00  0.45593999997E+02  0.45594000000E+02  0.51100000000E-03 0. -1.
         11   -1    0    0    0    0 -0.00000000000E+00 -0.00000000000E+00 -0.45593999997E+02  0.45594000000E+02  0.51100000000E-03 0.  1.
         23    2    1    2    0    0  0.00000000000E+00 -0.35527136788E-14  0.00000000000E+00  0.91188000000E+02  0.91188000000E+02 0.  0.
    9900012    2    3    3    0    0  0.24456878116E+02 -0.20133180251E+02 -0.18769535712E+02  0.54367091469E+02  0.40000016622E+02 0.  0.
         12    1    3    3    0    0 -0.24456878116E+02  0.20133180251E+02  0.18769535712E+02  0.36820908531E+02  0.00000000000E+00 0. -1.
         11    1    4    4    0    0  0.66503843820E+01 -0.11237069564E+02 -0.12898558731E+01  0.13121092685E+02  0.51100000000E-03 0. -1.
        -11    1    4    4    0    0  0.11139417693E+02 -0.16908972599E+02  0.73253662822E+00  0.20261702571E+02  0.51100000000E-03 0.  1.
         12    1    4    4    0    0  0.66670760406E+01  0.80128619113E+01 -0.18212216467E+02  0.20984296213E+02  0.00000000000E+00 0. -1.
</event>
<event>
 8    1  0.2433390E-006  0.9118800E+02  0.7816164E-02  0.1184000E+00
        -11   -1    0    0    0    0  0.00000000000E+00  0.00000000000E+00  0.45593999997E+02  0.45594000000E+02  0.51100000000E-03 0. -1.
         11   -1    0    0    0    0 -0.00000000000E+00 -0.00000000000E+00 -0.45593999997E+02  0.45594000000E+02  0.51100000000E-03 0.  1.
         23    2    1    2    0    0 -0.17763568394E-14  0.00000000000E+00  0.00000000000E+00  0.91188000000E+02  0.91188000000E+02 0.  0.
    9900012    2    3    3    0    0 -0.88963920968E+01  0.27016425959E+02 -0.23382574191E+02  0.54367111367E+02  0.40000061984E+02 0.  0.
         12    1    3    3    0    0  0.88963920968E+01 -0.27016425959E+02  0.23382574191E+02  0.36820888633E+02  0.00000000000E+00 0. -1.
         11    1    4    4    0    0  0.12430713085E+01  0.54485354957E+01 -0.17659874935E+02  0.18523038312E+02  0.51100000000E-03 0.  1.
        -11    1    4    4    0    0  0.88034371374E+01  0.63151856089E+01 -0.36626293047E+01  0.11436648477E+02  0.51100000000E-03 0. -1.
        -12    1    4    4    0    0 -0.18942900543E+02  0.15252704854E+02 -0.20600699516E+01  0.24407424578E+02  0.00000000000E+00 0.  1.
</event>
<event>
 8    1  0.2433390E-006  0.9118800E+02  0.7816164E-02  0.1184000E+00
        -11   -1    0    0    0    0  0.00000000000E+00  0.00000000000E+00  0.45593999997E+02  0.45594000000E+02  0.51100000000E-03 0. -1.
         11   -1    0    0    0    0 -0.00000000000E+00 -0.00000000000E+00 -0.45593999997E+02  0.45594000000E+02  0.51100000000E-03 0.  1.
         23    2    1    2    0    0  0.35527136788E-14  0.00000000000E+00  0.00000000000E+00  0.91188000000E+02  0.91188000000E+02 0.  0.
    9900012    2    3    3    0    0 -0.26717765582E+02  0.91309326479E+01  0.23634032402E+02  0.54367076379E+02  0.39999982222E+02 0.  0.
        -12    1    3    3    0    0  0.26717765582E+02 -0.91309326479E+01 -0.23634032402E+02  0.36820923621E+02  0.00000000000E+00 0.  1.
         11    1    4    4    0    0 -0.13293928201E+02  0.23347075478E+02  0.12819664097E+02  0.29768410240E+02  0.51100000000E-03 0. -1.
        -11    1    4    4    0    0  0.92281024484E+00  0.61697250346E+00  0.17209040422E+01  0.20478634724E+01  0.51100000000E-03 0.  1.
         12    1    4    4    0    0 -0.14346647626E+02 -0.14833115334E+02  0.90934642626E+01  0.22550802667E+02  0.00000000000E+00 0. -1.
</event>
<event>
 8    1  0.2433390E-006  0.9118800E+02  0.7816164E-02  0.1184000E+00
        -11   -1    0    0    0    0  0.00000000000E+00  0.00000000000E+00  0.45593999997E+02  0.45594000000E+02  0.51100000000E-03 0.  1.
         11   -1    0    0    0    0 -0.00000000000E+00 -0.00000000000E+00 -0.45593999997E+02  0.45594000000E+02  0.51100000000E-03 0. -1.
         23    2    1    2    0    0  0.00000000000E+00 -0.17763568394E-14  0.00000000000E+00  0.91188000000E+02  0.91188000000E+02 0.  0.
    9900012    2    3    3    0    0 -0.18385295911E+02 -0.10925840406E+02 -0.29973095180E+02  0.54367088428E+02  0.40000009690E+02 0.  0.
        -12    1    3    3    0    0  0.18385295911E+02  0.10925840406E+02  0.29973095180E+02  0.36820911572E+02  0.00000000000E+00 0.  1.
         11    1    4    4    0    0 -0.19184952556E+02 -0.33913280451E+01 -0.10249431499E+02  0.22013958227E+02  0.51100000000E-03 0. -1.
        -11    1    4    4    0    0 -0.60777389794E+00  0.84754223181E+01 -0.26400180418E+01  0.88978575007E+01  0.51100000000E-03 0.  1.
         12    1    4    4    0    0  0.14074305435E+01 -0.16009934679E+02 -0.17083645639E+02  0.23455272701E+02  0.00000000000E+00 0. -1.
</event>
<event>
 8    1  0.2433390E-006  0.9118800E+02  0.7816164E-02  0.1184000E+00
        -11   -1    0    0    0    0  0.00000000000E+00  0.00000000000E+00  0.45593999997E+02  0.45594000000E+02  0.51100000000E-03 0.  1.
         11   -1    0    0    0    0 -0.00000000000E+00 -0.00000000000E+00 -0.45593999997E+02  0.45594000000E+02  0.51100000000E-03 0. -1.
         23    2    1    2    0    0 -0.35527136788E-14 -0.71054273576E-14 -0.35527136788E-14  0.91188000000E+02  0.91188000000E+02 0.  0.
    9900012    2    3    3    0    0  0.23359588971E+02  0.21518080010E+02  0.18630042269E+02  0.54367127670E+02  0.40000099149E+02 0.  0.
         12    1    3    3    0    0 -0.23359588971E+02 -0.21518080010E+02 -0.18630042269E+02  0.36820872330E+02  0.00000000000E+00 0. -1.
         11    1    4    4    0    0  0.18123345607E+02  0.14461698081E+01  0.81253132796E+01  0.19914009623E+02  0.51100000000E-03 0. -1.
        -11    1    4    4    0    0  0.12903943156E+02  0.16100395102E+02  0.14213566469E+02  0.25055138065E+02  0.51100000000E-03 0.  1.
         12    1    4    4    0    0 -0.76676997922E+01  0.39715151006E+01 -0.37088374801E+01  0.93979799825E+01  0.00000000000E+00 0. -1.
</event>
<event>
 8    1  0.2433390E-006  0.9118800E+02  0.7816164E-02  0.1184000E+00
        -11   -1    0    0    0    0  0.00000000000E+00  0.00000000000E+00  0.45593999997E+02  0.45594000000E+02  0.51100000000E-03 0.  1.
         11   -1    0    0    0    0 -0.00000000000E+00 -0.00000000000E+00 -0.45593999997E+02  0.45594000000E+02  0.51100000000E-03 0. -1.
         23    2    1    2    0    0 -0.17763568394E-14 -0.35527136788E-14  0.35527136788E-14  0.91188000000E+02  0.91188000000E+02 0.  0.
    9900012    2    3    3    0    0 -0.14241527901E+02 -0.21393015307E+02 -0.26368507855E+02  0.54367076228E+02  0.39999981878E+02 0.  0.
        -12    1    3    3    0    0  0.14241527901E+02  0.21393015307E+02  0.26368507855E+02  0.36820923772E+02  0.00000000000E+00 0.  1.
         11    1    4    4    0    0 -0.21452395186E+02 -0.56416153157E+01 -0.16948807694E+02  0.27915858667E+02  0.51100000000E-03 0. -1.
        -11    1    4    4    0    0 -0.57242212742E+01 -0.28258957049E+01 -0.17304729477E+01  0.66141464010E+01  0.51100000000E-03 0.  1.
        -12    1    4    4    0    0  0.12935088559E+02 -0.12925504286E+02 -0.76892272135E+01  0.19837071161E+02  0.00000000000E+00 0.  1.
</event>
<event>
 8    1  0.2433390E-006  0.9118800E+02  0.7816164E-02  0.1184000E+00
        -11   -1    0    0    0    0  0.00000000000E+00  0.00000000000E+00  0.45593999997E+02  0.45594000000E+02  0.51100000000E-03 0. -1.
         11   -1    0    0    0    0 -0.00000000000E+00 -0.00000000000E+00 -0.45593999997E+02  0.45594000000E+02  0.51100000000E-03 0.  1.
         23    2    1    2    0    0 -0.71054273576E-14  0.00000000000E+00  0.44408920985E-15  0.91188000000E+02  0.91188000000E+02 0.  0.
    9900012    2    3    3    0    0  0.36345130056E+02  0.43961832573E+01 -0.39351309760E+01  0.54367079835E+02  0.39999990100E+02 0.  0.
         12    1    3    3    0    0 -0.36345130056E+02 -0.43961832573E+01  0.39351309760E+01  0.36820920165E+02  0.00000000000E+00 0. -1.
         11    1    4    4    0    0  0.22977532909E+02  0.76381157593E+00  0.61345560020E+00  0.22998407657E+02  0.51100000000E-03 0. -1.
        -11    1    4    4    0    0  0.19325240996E+02  0.91406399310E+01  0.12207753036E+01  0.21412765597E+02  0.51100000000E-03 0.  1.
         12    1    4    4    0    0 -0.59576438497E+01 -0.55082682496E+01 -0.57693618798E+01  0.99559065810E+01  0.00000000000E+00 0. -1.
</event>
<event>
 8    1  0.2433390E-006  0.9118800E+02  0.7816164E-02  0.1184000E+00
        -11   -1    0    0    0    0  0.00000000000E+00  0.00000000000E+00  0.45593999997E+02  0.45594000000E+02  0.51100000000E-03 0.  1.
         11   -1    0    0    0    0 -0.00000000000E+00 -0.00000000000E+00 -0.45593999997E+02  0.45594000000E+02  0.51100000000E-03 0. -1.
         23    2    1    2    0    0  0.00000000000E+00  0.35527136788E-14  0.00000000000E+00  0.91188000000E+02  0.91188000000E+02 0.  0.
    9900012    2    3    3    0    0 -0.75362018467E+01 -0.23118266288E+02 -0.27650209717E+02  0.54367045751E+02  0.39999912398E+02 0.  0.
        -12    1    3    3    0    0  0.75362018467E+01  0.23118266288E+02  0.27650209717E+02  0.36820954249E+02  0.00000000000E+00 0.  1.
         11    1    4    4    0    0  0.66644955242E+01  0.54197016326E+01 -0.17292522955E+02  0.19308547764E+02  0.51100000000E-03 0. -1.
        -11    1    4    4    0    0 -0.12637403647E+02 -0.14004830471E+02 -0.53535618328E+01  0.19608668287E+02  0.51100000000E-03 0.  1.
        -12    1    4    4    0    0 -0.15632937242E+01 -0.14533137450E+02 -0.50041249292E+01  0.15449829699E+02  0.00000000000E+00 0.  1.
</event>
<event>
 8    1  0.2433390E-006  0.9118800E+02  0.7816164E-02  0.1184000E+00
        -11   -1    0    0    0    0  0.00000000000E+00  0.00000000000E+00  0.45593999997E+02  0.45594000000E+02  0.51100000000E-03 0.  1.
         11   -1    0    0    0    0 -0.00000000000E+00 -0.00000000000E+00 -0.45593999997E+02  0.45594000000E+02  0.51100000000E-03 0. -1.
         23    2    1    2    0    0  0.35527136788E-14  0.00000000000E+00  0.00000000000E+00  0.91188000000E+02  0.91188000000E+02 0.  0.
    9900012    2    3    3    0    0  0.18458864594E+02 -0.23739120362E+02  0.21248606562E+02  0.54367098348E+02  0.40000032304E+02 0.  0.
        -12    1    3    3    0    0 -0.18458864594E+02  0.23739120362E+02 -0.21248606562E+02  0.36820901652E+02  0.00000000000E+00 0.  1.
         11    1    4    4    0    0 -0.39781523948E+01 -0.15946352126E+02 -0.64435677972E+00  0.16447706178E+02  0.51100000000E-03 0. -1.
        -11    1    4    4    0    0  0.12909198971E+02 -0.64047068764E+01  0.24064288162E+02  0.28049200582E+02  0.51100000000E-03 0.  1.
         12    1    4    4    0    0  0.95278180172E+01 -0.13880613596E+01 -0.21713248206E+01  0.98701915880E+01  0.00000000000E+00 0. -1.
</event>
<event>
 8    1  0.2433390E-006  0.9118800E+02  0.7816164E-02  0.1184000E+00
        -11   -1    0    0    0    0  0.00000000000E+00  0.00000000000E+00  0.45593999997E+02  0.45594000000E+02  0.51100000000E-03 0. -1.
         11   -1    0    0    0    0 -0.00000000000E+00 -0.00000000000E+00 -0.45593999997E+02  0.45594000000E+02  0.51100000000E-03 0.  1.
         23    2    1    2    0    0  0.17763568394E-14  0.00000000000E+00  0.35527136788E-14  0.91188000000E+02  0.91188000000E+02 0.  0.
    9900012    2    3    3    0    0 -0.10519244837E+02 -0.20933894368E+02  0.28405952927E+02  0.54367073789E+02  0.39999976316E+02 0.  0.
        -12    1    3    3    0    0  0.10519244837E+02  0.20933894368E+02 -0.28405952927E+02  0.36820926211E+02  0.00000000000E+00 0.  1.
         11    1    4    4    0    0 -0.17183799191E+02 -0.12179400060E+02  0.57746368763E+01  0.21839578104E+02  0.51100000000E-03 0. -1.
        -11    1    4    4    0    0  0.55965204246E+01 -0.15499679268E+02  0.14959340653E+02  0.22256301833E+02  0.51100000000E-03 0.  1.
         12    1    4    4    0    0  0.10680339292E+01  0.67451849601E+01  0.76719753984E+01  0.10271193851E+02  0.00000000000E+00 0. -1.
</event>
<event>
 8    1  0.2433390E-006  0.9118800E+02  0.7816164E-02  0.1184000E+00
        -11   -1    0    0    0    0  0.00000000000E+00  0.00000000000E+00  0.45593999997E+02  0.45594000000E+02  0.51100000000E-03 0.  1.
         11   -1    0    0    0    0 -0.00000000000E+00 -0.00000000000E+00 -0.45593999997E+02  0.45594000000E+02  0.51100000000E-03 0. -1.
         23    2    1    2    0    0  0.00000000000E+00 -0.17763568394E-14  0.00000000000E+00  0.91188000000E+02  0.91188000000E+02 0.  0.
    9900012    2    3    3    0    0 -0.14582203826E+02 -0.15507262507E+02  0.30044370835E+02  0.54367080976E+02  0.39999992702E+02 0.  0.
         12    1    3    3    0    0  0.14582203826E+02  0.15507262507E+02 -0.30044370835E+02  0.36820919024E+02  0.00000000000E+00 0. -1.
         11    1    4    4    0    0  0.17079601952E+00 -0.10568342708E+02 -0.25953197798E+01  0.10883690730E+02  0.51100000000E-03 0. -1.
        -11    1    4    4    0    0 -0.87968070961E+01 -0.11718550984E+02  0.68781747927E+01  0.16186955891E+02  0.51100000000E-03 0.  1.
        -12    1    4    4    0    0 -0.59561927499E+01  0.67796311862E+01  0.25761515822E+02  0.27296434356E+02  0.00000000000E+00 0.  1.
</event>
<event>
 8    1  0.2433390E-006  0.9118800E+02  0.7816164E-02  0.1184000E+00
        -11   -1    0    0    0    0  0.00000000000E+00  0.00000000000E+00  0.45593999997E+02  0.45594000000E+02  0.51100000000E-03 0.  1.
         11   -1    0    0    0    0 -0.00000000000E+00 -0.00000000000E+00 -0.45593999997E+02  0.45594000000E+02  0.51100000000E-03 0. -1.
         23    2    1    2    0    0  0.00000000000E+00  0.35527136788E-14  0.00000000000E+00  0.91188000000E+02  0.91188000000E+02 0.  0.
    9900012    2    3    3    0    0  0.18234990776E+02  0.30167284810E+02 -0.10639610256E+02  0.54367064816E+02  0.39999955862E+02 0.  0.
        -12    1    3    3    0    0 -0.18234990776E+02 -0.30167284810E+02  0.10639610256E+02  0.36820935184E+02  0.00000000000E+00 0.  1.
         11    1    4    4    0    0  0.16119877459E+02  0.25871467937E+01 -0.12005196805E+02  0.20264958140E+02  0.51100000000E-03 0. -1.
        -11    1    4    4    0    0  0.55136049200E+01 -0.55003670768E+00 -0.11392709245E+01  0.56568823653E+01  0.51100000000E-03 0.  1.
         12    1    4    4    0    0 -0.33984916033E+01  0.28130174724E+02  0.25048574731E+01  0.28445224312E+02  0.00000000000E+00 0. -1.
</event>
<event>
 8    1  0.2433390E-006  0.9118800E+02  0.7816164E-02  0.1184000E+00
        -11   -1    0    0    0    0  0.00000000000E+00  0.00000000000E+00  0.45593999997E+02  0.45594000000E+02  0.51100000000E-03 0. -1.
         11   -1    0    0    0    0 -0.00000000000E+00 -0.00000000000E+00 -0.45593999997E+02  0.45594000000E+02  0.51100000000E-03 0.  1.
         23    2    1    2    0    0  0.00000000000E+00  0.35527136788E-14  0.00000000000E+00  0.91188000000E+02  0.91188000000E+02 0.  0.
    9900012    2    3    3    0    0  0.26112695388E+02 -0.25425502317E+02 -0.52379692115E+01  0.54367280969E+02  0.40000448623E+02 0.  0.
         12    1    3    3    0    0 -0.26112695388E+02  0.25425502317E+02  0.52379692115E+01  0.36820719031E+02  0.00000000000E+00 0. -1.
         11    1    4    4    0    0  0.21274289441E+01 -0.13627752187E+01 -0.58695737300E+01  0.63902274015E+01  0.51100000000E-03 0. -1.
        -11    1    4    4    0    0  0.20602881744E+02 -0.32590269108E+02 -0.13961312463E+01  0.38581777557E+02  0.51100000000E-03 0.  1.
         12    1    4    4    0    0  0.33823846994E+01  0.85275420102E+01  0.20277357648E+01  0.93952760109E+01  0.00000000000E+00 0. -1.
</event>
<event>
 8    1  0.2433390E-006  0.9118800E+02  0.7816164E-02  0.1184000E+00
        -11   -1    0    0    0    0  0.00000000000E+00  0.00000000000E+00  0.45593999997E+02  0.45594000000E+02  0.51100000000E-03 0.  1.
         11   -1    0    0    0    0 -0.00000000000E+00 -0.00000000000E+00 -0.45593999997E+02  0.45594000000E+02  0.51100000000E-03 0. -1.
         23    2    1    2    0    0  0.00000000000E+00 -0.17763568394E-14  0.35527136788E-14  0.91188000000E+02  0.91188000000E+02 0.  0.
    9900012    2    3    3    0    0 -0.21078465162E+02  0.11561488566E+02  0.27889212609E+02  0.54367110665E+02  0.40000060383E+02 0.  0.
         12    1    3    3    0    0  0.21078465162E+02 -0.11561488566E+02 -0.27889212609E+02  0.36820889335E+02  0.00000000000E+00 0. -1.
         11    1    4    4    0    0 -0.19459826578E+02 -0.13426533950E+01  0.23617375585E+02  0.30631160578E+02  0.51100000000E-03 0.  1.
        -11    1    4    4    0    0  0.39197685186E+01  0.10162367881E+02  0.10380576622E+02  0.15046417429E+02  0.51100000000E-03 0. -1.
        -12    1    4    4    0    0 -0.55384071021E+01  0.27417740796E+01 -0.61087395977E+01  0.86895326574E+01  0.00000000000E+00 0.  1.
</event>
<event>
 8    1  0.2433390E-006  0.9118800E+02  0.7816164E-02  0.1184000E+00
        -11   -1    0    0    0    0  0.00000000000E+00  0.00000000000E+00  0.45593999997E+02  0.45594000000E+02  0.51100000000E-03 0.  1.
         11   -1    0    0    0    0 -0.00000000000E+00 -0.00000000000E+00 -0.45593999997E+02  0.45594000000E+02  0.51100000000E-03 0. -1.
         23    2    1    2    0    0  0.00000000000E+00  0.00000000000E+00  0.00000000000E+00  0.91188000000E+02  0.91188000000E+02 0.  0.
    9900012    2    3    3    0    0  0.22182530084E+01 -0.25051886813E+02  0.26893542677E+02  0.54367077728E+02  0.39999985296E+02 0.  0.
         12    1    3    3    0    0 -0.22182530084E+01  0.25051886813E+02 -0.26893542677E+02  0.36820922272E+02  0.00000000000E+00 0. -1.
         11    1    4    4    0    0  0.37307554534E+01  0.44037458625E+00 -0.53624477622E+01  0.65473897312E+01  0.51100000000E-03 0. -1.
        -11    1    4    4    0    0  0.30615878110E+01 -0.28913126417E+02  0.29698976943E+02  0.41561658182E+02  0.51100000000E-03 0.  1.
        -12    1    4    4    0    0 -0.45740902560E+01  0.34208650181E+01  0.25570134960E+01  0.62580298146E+01  0.00000000000E+00 0.  1.
</event>
<event>
 8    1  0.2433390E-006  0.9118800E+02  0.7816164E-02  0.1184000E+00
        -11   -1    0    0    0    0  0.00000000000E+00  0.00000000000E+00  0.45593999997E+02  0.45594000000E+02  0.51100000000E-03 0. -1.
         11   -1    0    0    0    0 -0.00000000000E+00 -0.00000000000E+00 -0.45593999997E+02  0.45594000000E+02  0.51100000000E-03 0.  1.
         23    2    1    2    0    0  0.00000000000E+00  0.55511151231E-16  0.00000000000E+00  0.91188000000E+02  0.91188000000E+02 0.  0.
    9900012    2    3    3    0    0  0.33472180626E+02  0.22752920278E+00  0.15340843758E+02  0.54367080231E+02  0.39999991003E+02 0.  0.
        -12    1    3    3    0    0 -0.33472180626E+02 -0.22752920278E+00 -0.15340843758E+02  0.36820919769E+02  0.00000000000E+00 0.  1.
         11    1    4    4    0    0 -0.15634892019E+01  0.17249651730E+01  0.22001140183E+01  0.32032023488E+01  0.51100000000E-03 0. -1.
        -11    1    4    4    0    0  0.43322256236E+00  0.44481512282E+01  0.15347581607E+02  0.15985055289E+02  0.51100000000E-03 0.  1.
         12    1    4    4    0    0  0.34602447266E+02 -0.59455871984E+01 -0.22068518677E+01  0.35178822594E+02  0.00000000000E+00 0. -1.
</event>
<event>
 8    1  0.2433390E-006  0.9118800E+02  0.7816164E-02  0.1184000E+00
        -11   -1    0    0    0    0  0.00000000000E+00  0.00000000000E+00  0.45593999997E+02  0.45594000000E+02  0.51100000000E-03 0. -1.
         11   -1    0    0    0    0 -0.00000000000E+00 -0.00000000000E+00 -0.45593999997E+02  0.45594000000E+02  0.51100000000E-03 0.  1.
         23    2    1    2    0    0  0.00000000000E+00  0.00000000000E+00 -0.35527136788E-14  0.91188000000E+02  0.91188000000E+02 0.  0.
    9900012    2    3    3    0    0 -0.16347343121E+02  0.13040814006E+02 -0.30306375746E+02  0.54367151722E+02  0.40000153980E+02 0.  0.
         12    1    3    3    0    0  0.16347343121E+02 -0.13040814006E+02  0.30306375746E+02  0.36820848278E+02  0.00000000000E+00 0. -1.
         11    1    4    4    0    0 -0.10909191008E+02 -0.38865711838E+01  0.55704807944E+01  0.12850919833E+02  0.51100000000E-03 0. -1.
        -11    1    4    4    0    0 -0.11041575242E+01  0.19021814711E+00 -0.11918387808E+02  0.11970936262E+02  0.51100000000E-03 0.  1.
         12    1    4    4    0    0 -0.43339945895E+01  0.16737167043E+02 -0.23958468732E+02  0.29545295627E+02  0.00000000000E+00 0. -1.
</event>
<event>
 8    1  0.2433390E-006  0.9118800E+02  0.7816164E-02  0.1184000E+00
        -11   -1    0    0    0    0  0.00000000000E+00  0.00000000000E+00  0.45593999997E+02  0.45594000000E+02  0.51100000000E-03 0.  1.
         11   -1    0    0    0    0 -0.00000000000E+00 -0.00000000000E+00 -0.45593999997E+02  0.45594000000E+02  0.51100000000E-03 0. -1.
         23    2    1    2    0    0 -0.44408920985E-15  0.44408920985E-15  0.00000000000E+00  0.91188000000E+02  0.91188000000E+02 0.  0.
    9900012    2    3    3    0    0  0.32183450694E+01  0.22505792455E+01  0.36610878940E+02  0.54367091419E+02  0.40000016509E+02 0.  0.
         12    1    3    3    0    0 -0.32183450694E+01 -0.22505792455E+01 -0.36610878940E+02  0.36820908581E+02  0.00000000000E+00 0. -1.
         11    1    4    4    0    0  0.81967980014E+01 -0.10888429433E+02 -0.81694983427E+00  0.13653307302E+02  0.51100000000E-03 0. -1.
        -11    1    4    4    0    0 -0.82611275322E+00  0.30207822708E+01  0.22000535807E+01  0.38272475524E+01  0.51100000000E-03 0.  1.
        -12    1    4    4    0    0 -0.41523401789E+01  0.10118226408E+02  0.35227775194E+02  0.36886536564E+02  0.00000000000E+00 0.  1.
</event>
<event>
 8    1  0.2433390E-006  0.9118800E+02  0.7816164E-02  0.1184000E+00
        -11   -1    0    0    0    0  0.00000000000E+00  0.00000000000E+00  0.45593999997E+02  0.45594000000E+02  0.51100000000E-03 0. -1.
         11   -1    0    0    0    0 -0.00000000000E+00 -0.00000000000E+00 -0.45593999997E+02  0.45594000000E+02  0.51100000000E-03 0.  1.
         23    2    1    2    0    0 -0.35527136788E-14 -0.35527136788E-14  0.35527136788E-14  0.91188000000E+02  0.91188000000E+02 0.  0.
    9900012    2    3    3    0    0 -0.24488687867E+02 -0.23712325506E+02  0.13921542274E+02  0.54367088094E+02  0.40000008927E+02 0.  0.
        -12    1    3    3    0    0  0.24488687867E+02  0.23712325506E+02 -0.13921542274E+02  0.36820911906E+02  0.00000000000E+00 0.  1.
         11    1    4    4    0    0 -0.21335171607E+02 -0.59102397619E+01 -0.54046457853E+01  0.22788827918E+02  0.51100000000E-03 0. -1.
        -11    1    4    4    0    0 -0.36288320515E+01 -0.84270260951E+01 -0.96024435638E+00  0.92252512351E+01  0.51100000000E-03 0.  1.
        -12    1    4    4    0    0  0.47531579230E+00 -0.93750596488E+01  0.20286432416E+02  0.22353008940E+02  0.00000000000E+00 0.  1.
</event>
<event>
 8    1  0.2433390E-006  0.9118800E+02  0.7816164E-02  0.1184000E+00
        -11   -1    0    0    0    0  0.00000000000E+00  0.00000000000E+00  0.45593999997E+02  0.45594000000E+02  0.51100000000E-03 0.  1.
         11   -1    0    0    0    0 -0.00000000000E+00 -0.00000000000E+00 -0.45593999997E+02  0.45594000000E+02  0.51100000000E-03 0. -1.
         23    2    1    2    0    0  0.00000000000E+00  0.00000000000E+00  0.88817841970E-15  0.91188000000E+02  0.91188000000E+02 0.  0.
    9900012    2    3    3    0    0 -0.15359477299E+02 -0.32854906839E+02 -0.63576523250E+01  0.54367106619E+02  0.40000051159E+02 0.  0.
         12    1    3    3    0    0  0.15359477299E+02  0.32854906839E+02  0.63576523250E+01  0.36820893381E+02  0.00000000000E+00 0. -1.
         11    1    4    4    0    0 -0.43540399780E+01  0.29698682551E+01 -0.32251670455E+01  0.61789549533E+01  0.51100000000E-03 0. -1.
        -11    1    4    4    0    0  0.93762190462E+01 -0.61459461850E+01 -0.46867836767E+01  0.12151217207E+02  0.51100000000E-03 0.  1.
        -12    1    4    4    0    0 -0.20381656367E+02 -0.29678828909E+02  0.15542983972E+01  0.36036934459E+02  0.00000000000E+00 0.  1.
</event>
<event>
 8    1  0.2433390E-006  0.9118800E+02  0.7816164E-02  0.1184000E+00
        -11   -1    0    0    0    0  0.00000000000E+00  0.00000000000E+00  0.45593999997E+02  0.45594000000E+02  0.51100000000E-03 0.  1.
         11   -1    0    0    0    0 -0.00000000000E+00 -0.00000000000E+00 -0.45593999997E+02  0.45594000000E+02  0.51100000000E-03 0. -1.
         23    2    1    2    0    0  0.71054273576E-14  0.17763568394E-14  0.17763568394E-14  0.91188000000E+02  0.91188000000E+02 0.  0.
    9900012    2    3    3    0    0 -0.30010327150E+02  0.15476832698E+02 -0.14684285779E+02  0.54367077485E+02  0.39999984743E+02 0.  0.
        -12    1    3    3    0    0  0.30010327150E+02 -0.15476832698E+02  0.14684285779E+02  0.36820922515E+02  0.00000000000E+00 0.  1.
         11    1    4    4    0    0  0.33836494177E+01 -0.36794703679E+01 -0.48925124303E+01  0.69945881732E+01  0.51100000000E-03 0. -1.
        -11    1    4    4    0    0 -0.40679705415E+01 -0.26359458687E+01 -0.96911711073E+01  0.10835838345E+02  0.51100000000E-03 0.  1.
        -12    1    4    4    0    0 -0.29326006026E+02  0.21792248934E+02 -0.10060224171E+00  0.36536650967E+02  0.00000000000E+00 0.  1.
</event>
<event>
 8    1  0.2433390E-006  0.9118800E+02  0.7816164E-02  0.1184000E+00
        -11   -1    0    0    0    0  0.00000000000E+00  0.00000000000E+00  0.45593999997E+02  0.45594000000E+02  0.51100000000E-03 0.  1.
         11   -1    0    0    0    0 -0.00000000000E+00 -0.00000000000E+00 -0.45593999997E+02  0.45594000000E+02  0.51100000000E-03 0. -1.
         23    2    1    2    0    0  0.00000000000E+00  0.00000000000E+00 -0.17763568394E-14  0.91188000000E+02  0.91188000000E+02 0.  0.
    9900012    2    3    3    0    0 -0.31448371884E+02  0.13382087435E+02 -0.13700906001E+02  0.54366875852E+02  0.39999525076E+02 0.  0.
        -12    1    3    3    0    0  0.31448371884E+02 -0.13382087435E+02  0.13700906001E+02  0.36821124148E+02  0.00000000000E+00 0.  1.
         11    1    4    4    0    0 -0.36475421881E+02  0.54264132829E+01 -0.85908591894E+01  0.37864300131E+02  0.51100000000E-03 0. -1.
        -11    1    4    4    0    0  0.62802009709E+00 -0.29398271030E+01  0.11139359035E+01  0.32059079987E+01  0.51100000000E-03 0.  1.
         12    1    4    4    0    0  0.43990298999E+01  0.10895501255E+02 -0.62239827155E+01  0.13296667722E+02  0.00000000000E+00 0. -1.
</event>
<event>
 8    1  0.2433390E-006  0.9118800E+02  0.7816164E-02  0.1184000E+00
        -11   -1    0    0    0    0  0.00000000000E+00  0.00000000000E+00  0.45593999997E+02  0.45594000000E+02  0.51100000000E-03 0.  1.
         11   -1    0    0    0    0 -0.00000000000E+00 -0.00000000000E+00 -0.45593999997E+02  0.45594000000E+02  0.51100000000E-03 0. -1.
         23    2    1    2    0    0  0.00000000000E+00  0.00000000000E+00 -0.17763568394E-14  0.91188000000E+02  0.91188000000E+02 0.  0.
    9900012    2    3    3    0    0  0.33992233991E+02  0.10644269643E+02  0.93277286354E+01  0.54367096027E+02  0.40000027012E+02 0.  0.
         12    1    3    3    0    0 -0.33992233991E+02 -0.10644269643E+02 -0.93277286354E+01  0.36820903973E+02  0.00000000000E+00 0. -1.
         11    1    4    4    0    0 -0.48092463640E+01 -0.16743955926E+00 -0.78965629018E+00  0.48765196517E+01  0.51100000000E-03 0. -1.
        -11    1    4    4    0    0 -0.20104694741E+01 -0.25442433236E+01 -0.31752983969E+01  0.45384668960E+01  0.51100000000E-03 0.  1.
        -12    1    4    4    0    0  0.40811949829E+02  0.13355952526E+02  0.13292683322E+02  0.44952109479E+02  0.00000000000E+00 0.  1.
</event>
<event>
 8    1  0.2433390E-006  0.9118800E+02  0.7816164E-02  0.1184000E+00
        -11   -1    0    0    0    0  0.00000000000E+00  0.00000000000E+00  0.45593999997E+02  0.45594000000E+02  0.51100000000E-03 0. -1.
         11   -1    0    0    0    0 -0.00000000000E+00 -0.00000000000E+00 -0.45593999997E+02  0.45594000000E+02  0.51100000000E-03 0.  1.
         23    2    1    2    0    0  0.44408920985E-15  0.35527136788E-14  0.35527136788E-14  0.91188000000E+02  0.91188000000E+02 0.  0.
    9900012    2    3    3    0    0  0.34757036516E+01 -0.19816832028E+02  0.30838177150E+02  0.54367075006E+02  0.39999979091E+02 0.  0.
        -12    1    3    3    0    0 -0.34757036516E+01  0.19816832028E+02 -0.30838177150E+02  0.36820924994E+02  0.00000000000E+00 0.  1.
         11    1    4    4    0    0 -0.21918455285E+01 -0.16856991092E+02  0.26161666671E+02  0.31199281061E+02  0.51100000000E-03 0. -1.
        -11    1    4    4    0    0  0.24606094027E+01  0.18882240226E+01  0.12804713800E+02  0.13175002253E+02  0.51100000000E-03 0.  1.
        -12    1    4    4    0    0  0.32069397773E+01 -0.48480649585E+01 -0.81282033207E+01  0.99927916920E+01  0.00000000000E+00 0.  1.
</event>
<event>
 8    1  0.2433390E-006  0.9118800E+02  0.7816164E-02  0.1184000E+00
        -11   -1    0    0    0    0  0.00000000000E+00  0.00000000000E+00  0.45593999997E+02  0.45594000000E+02  0.51100000000E-03 0.  1.
         11   -1    0    0    0    0 -0.00000000000E+00 -0.00000000000E+00 -0.45593999997E+02  0.45594000000E+02  0.51100000000E-03 0. -1.
         23    2    1    2    0    0 -0.35527136788E-14  0.35527136788E-14 -0.44408920985E-15  0.91188000000E+02  0.91188000000E+02 0.  0.
    9900012    2    3    3    0    0  0.29864418382E+02  0.21264083528E+02  0.34253994364E+01  0.54367107902E+02  0.40000054085E+02 0.  0.
        -12    1    3    3    0    0 -0.29864418382E+02 -0.21264083528E+02 -0.34253994364E+01  0.36820892098E+02  0.00000000000E+00 0.  1.
         11    1    4    4    0    0  0.40697100257E+01  0.32265111167E+01  0.41450129106E+01  0.66448510871E+01  0.51100000000E-03 0. -1.
        -11    1    4    4    0    0  0.82404770240E+01  0.22404246913E+02 -0.11675548443E+02  0.26573937853E+02  0.51100000000E-03 0.  1.
        -12    1    4    4    0    0  0.17554231332E+02 -0.43666745017E+01  0.10955934969E+02  0.21148318962E+02  0.00000000000E+00 0.  1.
</event>
<event>
 8    1  0.2433390E-006  0.9118800E+02  0.7816164E-02  0.1184000E+00
        -11   -1    0    0    0    0  0.00000000000E+00  0.00000000000E+00  0.45593999997E+02  0.45594000000E+02  0.51100000000E-03 0.  1.
         11   -1    0    0    0    0 -0.00000000000E+00 -0.00000000000E+00 -0.45593999997E+02  0.45594000000E+02  0.51100000000E-03 0. -1.
         23    2    1    2    0    0  0.88817841970E-15  0.00000000000E+00 -0.35527136788E-14  0.91188000000E+02  0.91188000000E+02 0.  0.
    9900012    2    3    3    0    0 -0.68739023261E+00 -0.33046125664E+02 -0.16225283302E+02  0.54367099075E+02  0.40000033960E+02 0.  0.
        -12    1    3    3    0    0  0.68739023261E+00  0.33046125664E+02  0.16225283302E+02  0.36820900925E+02  0.00000000000E+00 0.  1.
         11    1    4    4    0    0  0.82378680633E+00 -0.26184853245E+02 -0.15362306242E+02  0.30369814249E+02  0.51100000000E-03 0. -1.
        -11    1    4    4    0    0 -0.77379119080E+01  0.56799114063E+01 -0.24477749856E+01  0.99059717808E+01  0.51100000000E-03 0.  1.
        -12    1    4    4    0    0  0.62267348691E+01 -0.12541183825E+02  0.15847979255E+01  0.14091313045E+02  0.00000000000E+00 0.  1.
</event>
<event>
 8    1  0.2433390E-006  0.9118800E+02  0.7816164E-02  0.1184000E+00
        -11   -1    0    0    0    0  0.00000000000E+00  0.00000000000E+00  0.45593999997E+02  0.45594000000E+02  0.51100000000E-03 0. -1.
         11   -1    0    0    0    0 -0.00000000000E+00 -0.00000000000E+00 -0.45593999997E+02  0.45594000000E+02  0.51100000000E-03 0.  1.
         23    2    1    2    0    0  0.00000000000E+00  0.00000000000E+00 -0.88817841970E-15  0.91188000000E+02  0.91188000000E+02 0.  0.
    9900012    2    3    3    0    0 -0.27123031621E+02 -0.24367343798E+02  0.51336034040E+01  0.54367079697E+02  0.39999989784E+02 0.  0.
         12    1    3    3    0    0  0.27123031621E+02  0.24367343798E+02 -0.51336034040E+01  0.36820920303E+02  0.00000000000E+00 0. -1.
         11    1    4    4    0    0 -0.86820578705E+01 -0.95230223776E+01  0.11853014676E+02  0.17508856080E+02  0.51100000000E-03 0. -1.
        -11    1    4    4    0    0 -0.14780427391E+02 -0.20788158015E+02  0.21198309240E+01  0.25594964952E+02  0.51100000000E-03 0.  1.
         12    1    4    4    0    0 -0.36605463600E+01  0.59438365950E+01 -0.88392421962E+01  0.11263258664E+02  0.00000000000E+00 0. -1.
</event>
<event>
 8    1  0.2433390E-006  0.9118800E+02  0.7816164E-02  0.1184000E+00
        -11   -1    0    0    0    0  0.00000000000E+00  0.00000000000E+00  0.45593999997E+02  0.45594000000E+02  0.51100000000E-03 0.  1.
         11   -1    0    0    0    0 -0.00000000000E+00 -0.00000000000E+00 -0.45593999997E+02  0.45594000000E+02  0.51100000000E-03 0. -1.
         23    2    1    2    0    0  0.00000000000E+00  0.17763568394E-14  0.00000000000E+00  0.91188000000E+02  0.91188000000E+02 0.  0.
    9900012    2    3    3    0    0 -0.12999550937E+02 -0.12906565025E+02 -0.31940709401E+02  0.54367127354E+02  0.40000098430E+02 0.  0.
        -12    1    3    3    0    0  0.12999550937E+02  0.12906565025E+02  0.31940709401E+02  0.36820872646E+02  0.00000000000E+00 0.  1.
         11    1    4    4    0    0 -0.31102926856E+01 -0.23015775369E+00 -0.11040885308E+02  0.11472926471E+02  0.51100000000E-03 0. -1.
        -11    1    4    4    0    0 -0.31391456096E+01 -0.70597253113E+01 -0.29564726828E+02  0.30557601825E+02  0.51100000000E-03 0.  1.
         12    1    4    4    0    0 -0.67501126423E+01 -0.56166819605E+01  0.86649027341E+01  0.12336599058E+02  0.00000000000E+00 0. -1.
</event>
<event>
 8    1  0.2433390E-006  0.9118800E+02  0.7816164E-02  0.1184000E+00
        -11   -1    0    0    0    0  0.00000000000E+00  0.00000000000E+00  0.45593999997E+02  0.45594000000E+02  0.51100000000E-03 0.  1.
         11   -1    0    0    0    0 -0.00000000000E+00 -0.00000000000E+00 -0.45593999997E+02  0.45594000000E+02  0.51100000000E-03 0. -1.
         23    2    1    2    0    0 -0.88817841970E-15  0.19984014443E-14  0.00000000000E+00  0.91188000000E+02  0.91188000000E+02 0.  0.
    9900012    2    3    3    0    0 -0.58595980616E+01 -0.10854597492E+01  0.36335534381E+02  0.54367025393E+02  0.39999865987E+02 0.  0.
         12    1    3    3    0    0  0.58595980616E+01  0.10854597492E+01 -0.36335534381E+02  0.36820974607E+02  0.00000000000E+00 0. -1.
         11    1    4    4    0    0 -0.15642835308E+01 -0.12350012697E+02  0.89328805028E+00  0.12480695509E+02  0.51100000000E-03 0. -1.
        -11    1    4    4    0    0  0.40607798829E+01 -0.33190779070E+01  0.11432231886E+02  0.12577843120E+02  0.51100000000E-03 0.  1.
         12    1    4    4    0    0 -0.83560944137E+01  0.14583630855E+02  0.24010014445E+02  0.29308486764E+02  0.00000000000E+00 0. -1.
</event>
<event>
 8    1  0.2433390E-006  0.9118800E+02  0.7816164E-02  0.1184000E+00
        -11   -1    0    0    0    0  0.00000000000E+00  0.00000000000E+00  0.45593999997E+02  0.45594000000E+02  0.51100000000E-03 0. -1.
         11   -1    0    0    0    0 -0.00000000000E+00 -0.00000000000E+00 -0.45593999997E+02  0.45594000000E+02  0.51100000000E-03 0.  1.
         23    2    1    2    0    0  0.00000000000E+00  0.35527136788E-14  0.00000000000E+00  0.91188000000E+02  0.91188000000E+02 0.  0.
    9900012    2    3    3    0    0 -0.24770428874E+02  0.21821378249E+02 -0.16310588851E+02  0.54367054820E+02  0.39999933073E+02 0.  0.
         12    1    3    3    0    0  0.24770428874E+02 -0.21821378249E+02  0.16310588851E+02  0.36820945180E+02  0.00000000000E+00 0. -1.
         11    1    4    4    0    0 -0.98230157375E+01 -0.30385645274E+01  0.80720830082E+01  0.13072223870E+02  0.51100000000E-03 0. -1.
        -11    1    4    4    0    0 -0.17204109318E+02  0.20599279892E+02 -0.15000114924E+02  0.30745977908E+02  0.51100000000E-03 0.  1.
         12    1    4    4    0    0  0.22566961815E+01  0.42606628845E+01 -0.93825569347E+01  0.10548853042E+02  0.00000000000E+00 0. -1.
</event>
<event>
 8    1  0.2433390E-006  0.9118800E+02  0.7816164E-02  0.1184000E+00
        -11   -1    0    0    0    0  0.00000000000E+00  0.00000000000E+00  0.45593999997E+02  0.45594000000E+02  0.51100000000E-03 0.  1.
         11   -1    0    0    0    0 -0.00000000000E+00 -0.00000000000E+00 -0.45593999997E+02  0.45594000000E+02  0.51100000000E-03 0. -1.
         23    2    1    2    0    0  0.00000000000E+00  0.35527136788E-14  0.00000000000E+00  0.91188000000E+02  0.91188000000E+02 0.  0.
    9900012    2    3    3    0    0  0.27863663235E+02  0.14890974072E+02  0.18911765884E+02  0.54367085745E+02  0.40000003574E+02 0.  0.
         12    1    3    3    0    0 -0.27863663235E+02 -0.14890974072E+02 -0.18911765884E+02  0.36820914255E+02  0.00000000000E+00 0. -1.
         11    1    4    4    0    0 -0.32076189858E+01 -0.49374095563E+01 -0.32948460491E+01  0.67470618371E+01  0.51100000000E-03 0. -1.
        -11    1    4    4    0    0  0.10131728715E+01 -0.15202687980E+01 -0.26040685796E+01  0.31810234067E+01  0.51100000000E-03 0.  1.
        -12    1    4    4    0    0  0.30058109350E+02  0.21348652426E+02  0.24810680512E+02  0.44439000502E+02  0.00000000000E+00 0.  1.
</event>
<event>
 8    1  0.2433390E-006  0.9118800E+02  0.7816164E-02  0.1184000E+00
        -11   -1    0    0    0    0  0.00000000000E+00  0.00000000000E+00  0.45593999997E+02  0.45594000000E+02  0.51100000000E-03 0.  1.
         11   -1    0    0    0    0 -0.00000000000E+00 -0.00000000000E+00 -0.45593999997E+02  0.45594000000E+02  0.51100000000E-03 0. -1.
         23    2    1    2    0    0  0.44408920985E-15  0.00000000000E+00  0.71054273576E-14  0.91188000000E+02  0.91188000000E+02 0.  0.
    9900012    2    3    3    0    0 -0.85802423719E+00 -0.31888403075E+02 -0.18389411347E+02  0.54367124047E+02  0.40000090889E+02 0.  0.
        -12    1    3    3    0    0  0.85802423719E+00  0.31888403075E+02  0.18389411347E+02  0.36820875953E+02  0.00000000000E+00 0.  1.
         11    1    4    4    0    0  0.99762151265E+01 -0.23944345010E+02 -0.25030296147E+02  0.36046806401E+02  0.51100000000E-03 0. -1.
        -11    1    4    4    0    0  0.13201120373E+01 -0.37605450384E+01  0.32628242552E+00  0.39988567440E+01  0.51100000000E-03 0.  1.
        -12    1    4    4    0    0 -0.12154351401E+02 -0.41835130264E+01  0.63146023741E+01  0.14321460902E+02  0.00000000000E+00 0.  1.
</event>
<event>
 8    1  0.2433390E-006  0.9118800E+02  0.7816164E-02  0.1184000E+00
        -11   -1    0    0    0    0  0.00000000000E+00  0.00000000000E+00  0.45593999997E+02  0.45594000000E+02  0.51100000000E-03 0.  1.
         11   -1    0    0    0    0 -0.00000000000E+00 -0.00000000000E+00 -0.45593999997E+02  0.45594000000E+02  0.51100000000E-03 0. -1.
         23    2    1    2    0    0  0.44408920985E-15  0.00000000000E+00 -0.71054273576E-14  0.91188000000E+02  0.91188000000E+02 0.  0.
    9900012    2    3    3    0    0  0.63788804658E+00  0.17684433247E+02 -0.32289894450E+02  0.54367036351E+02  0.39999890970E+02 0.  0.
        -12    1    3    3    0    0 -0.63788804658E+00 -0.17684433247E+02  0.32289894450E+02  0.36820963649E+02  0.00000000000E+00 0.  1.
         11    1    4    4    0    0  0.50261141245E+01  0.22648395906E+01 -0.36449070294E+01  0.66088326562E+01  0.51100000000E-03 0. -1.
        -11    1    4    4    0    0  0.60444273140E+01 -0.72202226430E+01 -0.18666944747E+02  0.20907451853E+02  0.51100000000E-03 0.  1.
        -12    1    4    4    0    0 -0.10432653392E+02  0.22639816300E+02 -0.99780426736E+01  0.26850751842E+02  0.00000000000E+00 0.  1.
</event>
<event>
 8    1  0.2433390E-006  0.9118800E+02  0.7816164E-02  0.1184000E+00
        -11   -1    0    0    0    0  0.00000000000E+00  0.00000000000E+00  0.45593999997E+02  0.45594000000E+02  0.51100000000E-03 0.  1.
         11   -1    0    0    0    0 -0.00000000000E+00 -0.00000000000E+00 -0.45593999997E+02  0.45594000000E+02  0.51100000000E-03 0. -1.
         23    2    1    2    0    0 -0.35527136788E-14  0.71054273576E-14  0.53290705182E-14  0.91188000000E+02  0.91188000000E+02 0.  0.
    9900012    2    3    3    0    0  0.24040147037E+02 -0.25097638625E+02 -0.12163900732E+02  0.54367073679E+02  0.39999976066E+02 0.  0.
         12    1    3    3    0    0 -0.24040147037E+02  0.25097638625E+02  0.12163900732E+02  0.36820926321E+02  0.00000000000E+00 0. -1.
         11    1    4    4    0    0  0.30525875401E+01 -0.22916793178E+01  0.89609465755E+01  0.97400538282E+01  0.51100000000E-03 0. -1.
        -11    1    4    4    0    0  0.23104256438E+02 -0.10379041727E+02 -0.83240052211E+01  0.26661212199E+02  0.51100000000E-03 0.  1.
         12    1    4    4    0    0 -0.21166969412E+01 -0.12426917580E+02 -0.12800842086E+02  0.17965807652E+02  0.00000000000E+00 0. -1.
</event>
<event>
 8    1  0.2433390E-006  0.9118800E+02  0.7816164E-02  0.1184000E+00
        -11   -1    0    0    0    0  0.00000000000E+00  0.00000000000E+00  0.45593999997E+02  0.45594000000E+02  0.51100000000E-03 0.  1.
         11   -1    0    0    0    0 -0.00000000000E+00 -0.00000000000E+00 -0.45593999997E+02  0.45594000000E+02  0.51100000000E-03 0. -1.
         23    2    1    2    0    0  0.00000000000E+00 -0.22204460493E-15 -0.71054273576E-14  0.91188000000E+02  0.91188000000E+02 0.  0.
    9900012    2    3    3    0    0 -0.45816251881E+01 -0.13075894075E+01  0.36511348866E+02  0.54367086440E+02  0.40000005156E+02 0.  0.
         12    1    3    3    0    0  0.45816251881E+01  0.13075894075E+01 -0.36511348866E+02  0.36820913560E+02  0.00000000000E+00 0. -1.
         11    1    4    4    0    0  0.54578096576E+00  0.14742335572E+01 -0.87067250260E+00  0.17970287453E+01  0.51100000000E-03 0. -1.
        -11    1    4    4    0    0  0.13621307700E+02  0.62987377239E+01  0.94853991432E+01  0.17753504373E+02  0.51100000000E-03 0.  1.
         12    1    4    4    0    0 -0.18748713854E+02 -0.90805606886E+01  0.27896622225E+02  0.34816553321E+02  0.00000000000E+00 0. -1.
</event>
<event>
 8    1  0.2433390E-006  0.9118800E+02  0.7816164E-02  0.1184000E+00
        -11   -1    0    0    0    0  0.00000000000E+00  0.00000000000E+00  0.45593999997E+02  0.45594000000E+02  0.51100000000E-03 0.  1.
         11   -1    0    0    0    0 -0.00000000000E+00 -0.00000000000E+00 -0.45593999997E+02  0.45594000000E+02  0.51100000000E-03 0. -1.
         23    2    1    2    0    0  0.17763568394E-14  0.35527136788E-14  0.00000000000E+00  0.91188000000E+02  0.91188000000E+02 0.  0.
    9900012    2    3    3    0    0 -0.95844123728E+01 -0.19512928115E+02  0.29717930361E+02  0.54367208196E+02  0.40000282723E+02 0.  0.
         12    1    3    3    0    0  0.95844123728E+01  0.19512928115E+02 -0.29717930361E+02  0.36820791804E+02  0.00000000000E+00 0. -1.
         11    1    4    4    0    0 -0.12635073422E+02  0.39319590426E+01  0.64353716401E+01  0.14714597877E+02  0.51100000000E-03 0. -1.
        -11    1    4    4    0    0  0.53879845969E+01 -0.43004460830E+01  0.18556153944E+02  0.19795329348E+02  0.51100000000E-03 0.  1.
        -12    1    4    4    0    0 -0.23373235478E+01 -0.19144441074E+02  0.47264047768E+01  0.19857280970E+02  0.00000000000E+00 0.  1.
</event>
<event>
 8    1  0.2433390E-006  0.9118800E+02  0.7816164E-02  0.1184000E+00
        -11   -1    0    0    0    0  0.00000000000E+00  0.00000000000E+00  0.45593999997E+02  0.45594000000E+02  0.51100000000E-03 0. -1.
         11   -1    0    0    0    0 -0.00000000000E+00 -0.00000000000E+00 -0.45593999997E+02  0.45594000000E+02  0.51100000000E-03 0.  1.
         23    2    1    2    0    0 -0.88817841970E-15  0.00000000000E+00  0.00000000000E+00  0.91188000000E+02  0.91188000000E+02 0.  0.
    9900012    2    3    3    0    0 -0.43266164112E+01 -0.34869907926E+02  0.11006767384E+02  0.54367095386E+02  0.40000025551E+02 0.  0.
        -12    1    3    3    0    0  0.43266164112E+01  0.34869907926E+02 -0.11006767384E+02  0.36820904614E+02  0.00000000000E+00 0.  1.
         11    1    4    4    0    0  0.62875253375E+01 -0.81924142083E+01  0.16009544035E+02  0.19051354962E+02  0.51100000000E-03 0. -1.
        -11    1    4    4    0    0 -0.87174647258E+01 -0.18164047349E+01  0.25516917695E+01  0.92630798634E+01  0.51100000000E-03 0.  1.
        -12    1    4    4    0    0 -0.18966770228E+01 -0.24861088983E+02 -0.75544684203E+01  0.26052660560E+02  0.00000000000E+00 0.  1.
</event>
<event>
 8    1  0.2433390E-006  0.9118800E+02  0.7816164E-02  0.1184000E+00
        -11   -1    0    0    0    0  0.00000000000E+00  0.00000000000E+00  0.45593999997E+02  0.45594000000E+02  0.51100000000E-03 0. -1.
         11   -1    0    0    0    0 -0.00000000000E+00 -0.00000000000E+00 -0.45593999997E+02  0.45594000000E+02  0.51100000000E-03 0.  1.
         23    2    1    2    0    0  0.00000000000E+00  0.00000000000E+00  0.00000000000E+00  0.91188000000E+02  0.91188000000E+02 0.  0.
    9900012    2    3    3    0    0 -0.31856407283E+02  0.14970118944E+02  0.10809466587E+02  0.54367085914E+02  0.40000003959E+02 0.  0.
        -12    1    3    3    0    0  0.31856407283E+02 -0.14970118944E+02 -0.10809466587E+02  0.36820914086E+02  0.00000000000E+00 0.  1.
         11    1    4    4    0    0 -0.22405835595E+02 -0.17809823891E+01  0.14303238523E+02  0.26641621563E+02  0.51100000000E-03 0. -1.
        -11    1    4    4    0    0 -0.14563626372E+02  0.12048387989E+02 -0.67273472248E+01  0.20062902760E+02  0.51100000000E-03 0.  1.
         12    1    4    4    0    0  0.51130546834E+01  0.47027133444E+01  0.32335752887E+01  0.76625615914E+01  0.00000000000E+00 0. -1.
</event>
<event>
 8    1  0.2433390E-006  0.9118800E+02  0.7816164E-02  0.1184000E+00
        -11   -1    0    0    0    0  0.00000000000E+00  0.00000000000E+00  0.45593999997E+02  0.45594000000E+02  0.51100000000E-03 0. -1.
         11   -1    0    0    0    0 -0.00000000000E+00 -0.00000000000E+00 -0.45593999997E+02  0.45594000000E+02  0.51100000000E-03 0.  1.
         23    2    1    2    0    0  0.35527136788E-14  0.17763568394E-14  0.35527136788E-14  0.91188000000E+02  0.91188000000E+02 0.  0.
    9900012    2    3    3    0    0 -0.29214327116E+02 -0.15465927887E+02 -0.16220626052E+02  0.54367074648E+02  0.39999978276E+02 0.  0.
         12    1    3    3    0    0  0.29214327116E+02  0.15465927887E+02  0.16220626052E+02  0.36820925352E+02  0.00000000000E+00 0. -1.
         11    1    4    4    0    0 -0.43406104520E+01 -0.16746893216E+02 -0.80030895652E+01  0.19061709638E+02  0.51100000000E-03 0.  1.
        -11    1    4    4    0    0 -0.14962927953E+02  0.11271557858E+02 -0.98040299277E+01  0.21143704324E+02  0.51100000000E-03 0. -1.
         12    1    4    4    0    0 -0.99107887104E+01 -0.99905925293E+01  0.15864934414E+01  0.14161660686E+02  0.00000000000E+00 0. -1.
</event>
<event>
 8    1  0.2433390E-006  0.9118800E+02  0.7816164E-02  0.1184000E+00
        -11   -1    0    0    0    0  0.00000000000E+00  0.00000000000E+00  0.45593999997E+02  0.45594000000E+02  0.51100000000E-03 0.  1.
         11   -1    0    0    0    0 -0.00000000000E+00 -0.00000000000E+00 -0.45593999997E+02  0.45594000000E+02  0.51100000000E-03 0. -1.
         23    2    1    2    0    0  0.00000000000E+00  0.00000000000E+00  0.00000000000E+00  0.91188000000E+02  0.91188000000E+02 0.  0.
    9900012    2    3    3    0    0 -0.33184426543E+02  0.58548827058E+01  0.14842273983E+02  0.54367096787E+02  0.40000028745E+02 0.  0.
         12    1    3    3    0    0  0.33184426543E+02 -0.58548827058E+01 -0.14842273983E+02  0.36820903213E+02  0.00000000000E+00 0. -1.
         11    1    4    4    0    0  0.66605420619E+01  0.36972103506E+01  0.49296291938E+01  0.90737770077E+01  0.51100000000E-03 0. -1.
        -11    1    4    4    0    0 -0.11151616519E+02 -0.55791546955E+01  0.93230378302E+01  0.15569346574E+02  0.51100000000E-03 0.  1.
         12    1    4    4    0    0 -0.28693352085E+02  0.77368270507E+01  0.58960695897E+00  0.29723973205E+02  0.00000000000E+00 0. -1.
</event>
<event>
 8    1  0.2433390E-006  0.9118800E+02  0.7816164E-02  0.1184000E+00
        -11   -1    0    0    0    0  0.00000000000E+00  0.00000000000E+00  0.45593999997E+02  0.45594000000E+02  0.51100000000E-03 0. -1.
         11   -1    0    0    0    0 -0.00000000000E+00 -0.00000000000E+00 -0.45593999997E+02  0.45594000000E+02  0.51100000000E-03 0.  1.
         23    2    1    2    0    0  0.44408920985E-15  0.00000000000E+00  0.00000000000E+00  0.91188000000E+02  0.91188000000E+02 0.  0.
    9900012    2    3    3    0    0 -0.37571266800E+01  0.15401310715E+02  0.33233462326E+02  0.54367090305E+02  0.40000013967E+02 0.  0.
        -12    1    3    3    0    0  0.37571266800E+01 -0.15401310715E+02 -0.33233462326E+02  0.36820909695E+02  0.00000000000E+00 0.  1.
         11    1    4    4    0    0  0.73268107999E+01  0.31319242224E+01  0.26541806054E+02  0.27712065508E+02  0.51100000000E-03 0. -1.
        -11    1    4    4    0    0 -0.26675703160E+01  0.15822024665E+02  0.14209033672E+01  0.16108114804E+02  0.51100000000E-03 0.  1.
         12    1    4    4    0    0 -0.84163671638E+01 -0.35526381721E+01  0.52707529043E+01  0.10546909993E+02  0.00000000000E+00 0. -1.
</event>
<event>
 8    1  0.2433390E-006  0.9118800E+02  0.7816164E-02  0.1184000E+00
        -11   -1    0    0    0    0  0.00000000000E+00  0.00000000000E+00  0.45593999997E+02  0.45594000000E+02  0.51100000000E-03 0.  1.
         11   -1    0    0    0    0 -0.00000000000E+00 -0.00000000000E+00 -0.45593999997E+02  0.45594000000E+02  0.51100000000E-03 0. -1.
         23    2    1    2    0    0  0.00000000000E+00 -0.17763568394E-14  0.71054273576E-14  0.91188000000E+02  0.91188000000E+02 0.  0.
    9900012    2    3    3    0    0 -0.17244230982E+01  0.14226677164E+02 -0.33917725241E+02  0.54367026850E+02  0.39999869310E+02 0.  0.
        -12    1    3    3    0    0  0.17244230982E+01 -0.14226677164E+02  0.33917725241E+02  0.36820973150E+02  0.00000000000E+00 0.  1.
         11    1    4    4    0    0  0.54288821116E+01  0.37005168890E+00 -0.20982919100E+01  0.58320261003E+01  0.51100000000E-03 0. -1.
        -11    1    4    4    0    0 -0.49698986474E+01  0.20721640111E+02 -0.66016963672E+01  0.22308488443E+02  0.51100000000E-03 0.  1.
         12    1    4    4    0    0 -0.21834065624E+01 -0.68650146354E+01 -0.25217736964E+02  0.26226512306E+02  0.00000000000E+00 0. -1.
</event>
<event>
 8    1  0.2433390E-006  0.9118800E+02  0.7816164E-02  0.1184000E+00
        -11   -1    0    0    0    0  0.00000000000E+00  0.00000000000E+00  0.45593999997E+02  0.45594000000E+02  0.51100000000E-03 0. -1.
         11   -1    0    0    0    0 -0.00000000000E+00 -0.00000000000E+00 -0.45593999997E+02  0.45594000000E+02  0.51100000000E-03 0.  1.
         23    2    1    2    0    0  0.53290705182E-14  0.35527136788E-14  0.35527136788E-14  0.91188000000E+02  0.91188000000E+02 0.  0.
    9900012    2    3    3    0    0  0.15091866591E+02  0.25887724178E+02  0.21397258227E+02  0.54367063565E+02  0.39999953010E+02 0.  0.
        -12    1    3    3    0    0 -0.15091866591E+02 -0.25887724178E+02 -0.21397258227E+02  0.36820936435E+02  0.00000000000E+00 0.  1.
         11    1    4    4    0    0  0.40105172453E+01  0.97046673889E+01 -0.20945346727E+01  0.10707562442E+02  0.51100000000E-03 0. -1.
        -11    1    4    4    0    0 -0.59233796046E+01  0.88295134531E+01 -0.32581670489E+01  0.11120359101E+02  0.51100000000E-03 0.  1.
        -12    1    4    4    0    0  0.17004728951E+02  0.73535433358E+01  0.26749959948E+02  0.32539142022E+02  0.00000000000E+00 0.  1.
</event>
<event>
 8    1  0.2433390E-006  0.9118800E+02  0.7816164E-02  0.1184000E+00
        -11   -1    0    0    0    0  0.00000000000E+00  0.00000000000E+00  0.45593999997E+02  0.45594000000E+02  0.51100000000E-03 0.  1.
         11   -1    0    0    0    0 -0.00000000000E+00 -0.00000000000E+00 -0.45593999997E+02  0.45594000000E+02  0.51100000000E-03 0. -1.
         23    2    1    2    0    0 -0.17763568394E-14  0.00000000000E+00 -0.17763568394E-14  0.91188000000E+02  0.91188000000E+02 0.  0.
    9900012    2    3    3    0    0  0.11071486600E+02  0.31883342462E+02  0.14719217375E+02  0.54367072496E+02  0.39999973370E+02 0.  0.
         12    1    3    3    0    0 -0.11071486600E+02 -0.31883342462E+02 -0.14719217375E+02  0.36820927504E+02  0.00000000000E+00 0. -1.
         11    1    4    4    0    0 -0.68779242858E+01  0.17120337042E+02 -0.40957562278E+01  0.18899391584E+02  0.51100000000E-03 0. -1.
        -11    1    4    4    0    0  0.47894468529E+00  0.82683938529E+01  0.13919066737E+02  0.16196794251E+02  0.51100000000E-03 0.  1.
        -12    1    4    4    0    0  0.17470466201E+02  0.64946115672E+01  0.48959068662E+01  0.19270886662E+02  0.00000000000E+00 0.  1.
</event>
<event>
 8    1  0.2433390E-006  0.9118800E+02  0.7816164E-02  0.1184000E+00
        -11   -1    0    0    0    0  0.00000000000E+00  0.00000000000E+00  0.45593999997E+02  0.45594000000E+02  0.51100000000E-03 0. -1.
         11   -1    0    0    0    0 -0.00000000000E+00 -0.00000000000E+00 -0.45593999997E+02  0.45594000000E+02  0.51100000000E-03 0.  1.
         23    2    1    2    0    0 -0.17763568394E-14 -0.35527136788E-14  0.00000000000E+00  0.91188000000E+02  0.91188000000E+02 0.  0.
    9900012    2    3    3    0    0 -0.10228727193E+02  0.26331333454E+02  0.23618060649E+02  0.54367098731E+02  0.40000033177E+02 0.  0.
        -12    1    3    3    0    0  0.10228727193E+02 -0.26331333454E+02 -0.23618060649E+02  0.36820901269E+02  0.00000000000E+00 0.  1.
         11    1    4    4    0    0 -0.10257390387E+02 -0.48991155925E+01  0.14044884305E+02  0.18068596142E+02  0.51100000000E-03 0. -1.
        -11    1    4    4    0    0  0.58938432642E+00  0.16209066842E+02 -0.32476678433E+01  0.16541722052E+02  0.51100000000E-03 0.  1.
        -12    1    4    4    0    0 -0.56072113321E+00  0.15021382205E+02  0.12820844187E+02  0.19756780537E+02  0.00000000000E+00 0.  1.
</event>
<event>
 8    1  0.2433390E-006  0.9118800E+02  0.7816164E-02  0.1184000E+00
        -11   -1    0    0    0    0  0.00000000000E+00  0.00000000000E+00  0.45593999997E+02  0.45594000000E+02  0.51100000000E-03 0. -1.
         11   -1    0    0    0    0 -0.00000000000E+00 -0.00000000000E+00 -0.45593999997E+02  0.45594000000E+02  0.51100000000E-03 0.  1.
         23    2    1    2    0    0  0.00000000000E+00  0.88817841970E-15  0.00000000000E+00  0.91188000000E+02  0.91188000000E+02 0.  0.
    9900012    2    3    3    0    0  0.14794152953E+02  0.76214947157E+01 -0.32845482880E+02  0.54367083541E+02  0.39999998547E+02 0.  0.
         12    1    3    3    0    0 -0.14794152953E+02 -0.76214947157E+01  0.32845482880E+02  0.36820916459E+02  0.00000000000E+00 0. -1.
         11    1    4    4    0    0  0.50344808036E+01  0.15521490392E+01 -0.22258077120E+02  0.22873066278E+02  0.51100000000E-03 0. -1.
        -11    1    4    4    0    0  0.15908490630E+02  0.12783583993E+02 -0.87556338728E+01  0.22207233475E+02  0.51100000000E-03 0.  1.
         12    1    4    4    0    0 -0.61488184804E+01 -0.67142383165E+01 -0.18317718869E+01  0.92867837878E+01  0.00000000000E+00 0. -1.
</event>
<event>
 8    1  0.2433390E-006  0.9118800E+02  0.7816164E-02  0.1184000E+00
        -11   -1    0    0    0    0  0.00000000000E+00  0.00000000000E+00  0.45593999997E+02  0.45594000000E+02  0.51100000000E-03 0.  1.
         11   -1    0    0    0    0 -0.00000000000E+00 -0.00000000000E+00 -0.45593999997E+02  0.45594000000E+02  0.51100000000E-03 0. -1.
         23    2    1    2    0    0 -0.11102230246E-14  0.00000000000E+00 -0.35527136788E-14  0.91188000000E+02  0.91188000000E+02 0.  0.
    9900012    2    3    3    0    0  0.47481470448E+00  0.19284709623E+02  0.31363269374E+02  0.54367080130E+02  0.39999990772E+02 0.  0.
         12    1    3    3    0    0 -0.47481470448E+00 -0.19284709623E+02 -0.31363269374E+02  0.36820919870E+02  0.00000000000E+00 0. -1.
         11    1    4    4    0    0 -0.50588789571E+01  0.14799632082E+02  0.17374321134E+01  0.15736582751E+02  0.51100000000E-03 0. -1.
        -11    1    4    4    0    0  0.84786928875E+01  0.11683081634E+01  0.32324573417E+02  0.33438469222E+02  0.51100000000E-03 0.  1.
         12    1    4    4    0    0 -0.29449992259E+01  0.33167693775E+01 -0.26987361563E+01  0.51920281572E+01  0.00000000000E+00 0. -1.
</event>
<event>
 8    1  0.2433390E-006  0.9118800E+02  0.7816164E-02  0.1184000E+00
        -11   -1    0    0    0    0  0.00000000000E+00  0.00000000000E+00  0.45593999997E+02  0.45594000000E+02  0.51100000000E-03 0.  1.
         11   -1    0    0    0    0 -0.00000000000E+00 -0.00000000000E+00 -0.45593999997E+02  0.45594000000E+02  0.51100000000E-03 0. -1.
         23    2    1    2    0    0  0.00000000000E+00  0.35527136788E-14  0.00000000000E+00  0.91188000000E+02  0.91188000000E+02 0.  0.
    9900012    2    3    3    0    0  0.80843820654E+01  0.26181105294E+02 -0.24596190337E+02  0.54367080852E+02  0.39999992417E+02 0.  0.
        -12    1    3    3    0    0 -0.80843820654E+01 -0.26181105294E+02  0.24596190337E+02  0.36820919148E+02  0.00000000000E+00 0.  1.
         11    1    4    4    0    0  0.10122309519E+02  0.27614545151E+02 -0.40831088304E+01  0.29693366799E+02  0.51100000000E-03 0. -1.
        -11    1    4    4    0    0 -0.80236174586E+00 -0.49193511650E-01  0.19629768664E+01  0.21211984377E+01  0.51100000000E-03 0.  1.
        -12    1    4    4    0    0 -0.12355657080E+01 -0.13842463445E+01 -0.22476058373E+02  0.22552515615E+02  0.00000000000E+00 0.  1.
</event>
<event>
 8    1  0.2433390E-006  0.9118800E+02  0.7816164E-02  0.1184000E+00
        -11   -1    0    0    0    0  0.00000000000E+00  0.00000000000E+00  0.45593999997E+02  0.45594000000E+02  0.51100000000E-03 0.  1.
         11   -1    0    0    0    0 -0.00000000000E+00 -0.00000000000E+00 -0.45593999997E+02  0.45594000000E+02  0.51100000000E-03 0. -1.
         23    2    1    2    0    0  0.00000000000E+00  0.00000000000E+00 -0.35527136788E-14  0.91188000000E+02  0.91188000000E+02 0.  0.
    9900012    2    3    3    0    0  0.15226829031E+02 -0.15318357481E+02  0.29820867380E+02  0.54366911891E+02  0.39999607236E+02 0.  0.
         12    1    3    3    0    0 -0.15226829031E+02  0.15318357481E+02 -0.29820867380E+02  0.36821088109E+02  0.00000000000E+00 0. -1.
         11    1    4    4    0    0 -0.13313603649E+01 -0.99284465441E+01 -0.41844936676E+01  0.10856176063E+02  0.51100000000E-03 0. -1.
        -11    1    4    4    0    0 -0.48871823683E+00  0.19797358737E+01  0.20367856126E+02  0.20469679115E+02  0.51100000000E-03 0.  1.
        -12    1    4    4    0    0  0.17046907633E+02 -0.73696468104E+01  0.13637504921E+02  0.23041056713E+02  0.00000000000E+00 0.  1.
</event>
<event>
 8    1  0.2433390E-006  0.9118800E+02  0.7816164E-02  0.1184000E+00
        -11   -1    0    0    0    0  0.00000000000E+00  0.00000000000E+00  0.45593999997E+02  0.45594000000E+02  0.51100000000E-03 0.  1.
         11   -1    0    0    0    0 -0.00000000000E+00 -0.00000000000E+00 -0.45593999997E+02  0.45594000000E+02  0.51100000000E-03 0. -1.
         23    2    1    2    0    0  0.00000000000E+00  0.00000000000E+00  0.00000000000E+00  0.91188000000E+02  0.91188000000E+02 0.  0.
    9900012    2    3    3    0    0 -0.45873801857E+01 -0.35834202967E+02  0.71165489338E+01  0.54367089800E+02  0.40000012816E+02 0.  0.
        -12    1    3    3    0    0  0.45873801857E+01  0.35834202967E+02 -0.71165489338E+01  0.36820910200E+02  0.00000000000E+00 0.  1.
         11    1    4    4    0    0 -0.59492222480E+01  0.46336912784E+01  0.99401120310E+00  0.76060764361E+01  0.51100000000E-03 0. -1.
        -11    1    4    4    0    0 -0.72531147160E+01 -0.16434017780E+02  0.10574122725E+02  0.20844584072E+02  0.51100000000E-03 0.  1.
         12    1    4    4    0    0  0.86149567783E+01 -0.24033876466E+02 -0.44515849940E+01  0.25916429292E+02  0.00000000000E+00 0. -1.
</event>
<event>
 8    1  0.2433390E-006  0.9118800E+02  0.7816164E-02  0.1184000E+00
        -11   -1    0    0    0    0  0.00000000000E+00  0.00000000000E+00  0.45593999997E+02  0.45594000000E+02  0.51100000000E-03 0.  1.
         11   -1    0    0    0    0 -0.00000000000E+00 -0.00000000000E+00 -0.45593999997E+02  0.45594000000E+02  0.51100000000E-03 0. -1.
         23    2    1    2    0    0  0.17763568394E-14 -0.71054273576E-14  0.00000000000E+00  0.91188000000E+02  0.91188000000E+02 0.  0.
    9900012    2    3    3    0    0 -0.14921543717E+02  0.32979570947E+02 -0.67435672283E+01  0.54367078424E+02  0.39999986883E+02 0.  0.
        -12    1    3    3    0    0  0.14921543717E+02 -0.32979570947E+02  0.67435672283E+01  0.36820921576E+02  0.00000000000E+00 0.  1.
         11    1    4    4    0    0 -0.51428730141E+01  0.32221042641E+02 -0.16030680230E+02  0.36354194264E+02  0.51100000000E-03 0. -1.
        -11    1    4    4    0    0 -0.42826619208E+01  0.59071211717E+01  0.20749829231E+01  0.75855670887E+01  0.51100000000E-03 0.  1.
         12    1    4    4    0    0 -0.54960087817E+01 -0.51485928651E+01  0.72121300788E+01  0.10427317071E+02  0.00000000000E+00 0. -1.
</event>
<event>
 8    1  0.2433390E-006  0.9118800E+02  0.7816164E-02  0.1184000E+00
        -11   -1    0    0    0    0  0.00000000000E+00  0.00000000000E+00  0.45593999997E+02  0.45594000000E+02  0.51100000000E-03 0. -1.
         11   -1    0    0    0    0 -0.00000000000E+00 -0.00000000000E+00 -0.45593999997E+02  0.45594000000E+02  0.51100000000E-03 0.  1.
         23    2    1    2    0    0  0.00000000000E+00  0.35527136788E-14 -0.44408920985E-15  0.91188000000E+02  0.91188000000E+02 0.  0.
    9900012    2    3    3    0    0  0.25867692770E+02 -0.26123376389E+02  0.20523527884E+01  0.54367075580E+02  0.39999980399E+02 0.  0.
        -12    1    3    3    0    0 -0.25867692770E+02  0.26123376389E+02 -0.20523527884E+01  0.36820924420E+02  0.00000000000E+00 0.  1.
         11    1    4    4    0    0  0.93232067851E+00 -0.10548591458E+02  0.67959195662E+01  0.12582786918E+02  0.51100000000E-03 0. -1.
        -11    1    4    4    0    0  0.16667207079E+02 -0.53043669889E+01  0.11447348555E+02  0.20903920449E+02  0.51100000000E-03 0.  1.
        -12    1    4    4    0    0  0.82681650125E+01 -0.10270417942E+02 -0.16190915333E+02  0.20880368213E+02  0.00000000000E+00 0.  1.
</event>
<event>
 8    1  0.2433390E-006  0.9118800E+02  0.7816164E-02  0.1184000E+00
        -11   -1    0    0    0    0  0.00000000000E+00  0.00000000000E+00  0.45593999997E+02  0.45594000000E+02  0.51100000000E-03 0. -1.
         11   -1    0    0    0    0 -0.00000000000E+00 -0.00000000000E+00 -0.45593999997E+02  0.45594000000E+02  0.51100000000E-03 0.  1.
         23    2    1    2    0    0  0.00000000000E+00  0.00000000000E+00  0.00000000000E+00  0.91188000000E+02  0.91188000000E+02 0.  0.
    9900012    2    3    3    0    0  0.12367522968E+02 -0.10230159951E+02  0.33138612750E+02  0.54367089474E+02  0.40000012073E+02 0.  0.
        -12    1    3    3    0    0 -0.12367522968E+02  0.10230159951E+02 -0.33138612750E+02  0.36820910526E+02  0.00000000000E+00 0.  1.
         11    1    4    4    0    0 -0.20103659024E+01 -0.10403840028E+02  0.10921861948E+02  0.15217375827E+02  0.51100000000E-03 0. -1.
        -11    1    4    4    0    0  0.69627927709E+01 -0.12149460146E+02  0.17169960145E+01  0.14108080684E+02  0.51100000000E-03 0.  1.
         12    1    4    4    0    0  0.74150960996E+01  0.12323140223E+02  0.20499754787E+02  0.25041632963E+02  0.00000000000E+00 0. -1.
</event>
<event>
 8    1  0.2433390E-006  0.9118800E+02  0.7816164E-02  0.1184000E+00
        -11   -1    0    0    0    0  0.00000000000E+00  0.00000000000E+00  0.45593999997E+02  0.45594000000E+02  0.51100000000E-03 0. -1.
         11   -1    0    0    0    0 -0.00000000000E+00 -0.00000000000E+00 -0.45593999997E+02  0.45594000000E+02  0.51100000000E-03 0.  1.
         23    2    1    2    0    0  0.00000000000E+00  0.00000000000E+00 -0.35527136788E-14  0.91188000000E+02  0.91188000000E+02 0.  0.
    9900012    2    3    3    0    0  0.65629922289E+01 -0.29080420163E+02  0.21610998002E+02  0.54367096446E+02  0.40000027969E+02 0.  0.
        -12    1    3    3    0    0 -0.65629922289E+01  0.29080420163E+02 -0.21610998002E+02  0.36820903554E+02  0.00000000000E+00 0.  1.
         11    1    4    4    0    0  0.11501226041E+01 -0.25700733093E+01  0.26020143029E+02  0.26172044290E+02  0.51100000000E-03 0. -1.
        -11    1    4    4    0    0  0.95051740288E+00 -0.12449910531E-01 -0.37960321158E+00  0.10235903442E+01  0.51100000000E-03 0.  1.
         12    1    4    4    0    0  0.44623522220E+01 -0.26497896943E+02 -0.40295418148E+01  0.27171461812E+02  0.00000000000E+00 0. -1.
</event>
<event>
 8    1  0.2433390E-006  0.9118800E+02  0.7816164E-02  0.1184000E+00
        -11   -1    0    0    0    0  0.00000000000E+00  0.00000000000E+00  0.45593999997E+02  0.45594000000E+02  0.51100000000E-03 0. -1.
         11   -1    0    0    0    0 -0.00000000000E+00 -0.00000000000E+00 -0.45593999997E+02  0.45594000000E+02  0.51100000000E-03 0.  1.
         23    2    1    2    0    0  0.00000000000E+00  0.00000000000E+00  0.00000000000E+00  0.91188000000E+02  0.91188000000E+02 0.  0.
    9900012    2    3    3    0    0 -0.23809569712E+02  0.12313355545E+02  0.25244231162E+02  0.54367006781E+02  0.39999823559E+02 0.  0.
        -12    1    3    3    0    0  0.23809569712E+02 -0.12313355545E+02 -0.25244231162E+02  0.36820993219E+02  0.00000000000E+00 0.  1.
         11    1    4    4    0    0 -0.66011582945E+01 -0.37085891456E+01  0.27909797326E+02  0.28918604933E+02  0.51100000000E-03 0. -1.
        -11    1    4    4    0    0 -0.44323900732E+01  0.24595509246E+01 -0.44308415106E+01  0.67325945419E+01  0.51100000000E-03 0.  1.
        -12    1    4    4    0    0 -0.12776021345E+02  0.13562393766E+02  0.17652753469E+01  0.18715807306E+02  0.00000000000E+00 0.  1.
</event>
<event>
 8    1  0.2433390E-006  0.9118800E+02  0.7816164E-02  0.1184000E+00
        -11   -1    0    0    0    0  0.00000000000E+00  0.00000000000E+00  0.45593999997E+02  0.45594000000E+02  0.51100000000E-03 0.  1.
         11   -1    0    0    0    0 -0.00000000000E+00 -0.00000000000E+00 -0.45593999997E+02  0.45594000000E+02  0.51100000000E-03 0. -1.
         23    2    1    2    0    0  0.00000000000E+00 -0.88817841970E-15 -0.71054273576E-14  0.91188000000E+02  0.91188000000E+02 0.  0.
    9900012    2    3    3    0    0  0.51785534387E+01 -0.63686353857E+01 -0.35894325860E+02  0.54367087989E+02  0.40000008688E+02 0.  0.
        -12    1    3    3    0    0 -0.51785534387E+01  0.63686353857E+01  0.35894325860E+02  0.36820912011E+02  0.00000000000E+00 0.  1.
         11    1    4    4    0    0  0.95516307882E+01  0.11112833640E+02 -0.42021233979E+01  0.15244230500E+02  0.51100000000E-03 0. -1.
        -11    1    4    4    0    0 -0.21278488604E+01 -0.95516198018E+01 -0.46154239674E+01  0.10819580411E+02  0.51100000000E-03 0.  1.
         12    1    4    4    0    0 -0.22452284891E+01 -0.79298492242E+01 -0.27076778495E+02  0.28303277078E+02  0.00000000000E+00 0. -1.
</event>
<event>
 8    1  0.2433390E-006  0.9118800E+02  0.7816164E-02  0.1184000E+00
        -11   -1    0    0    0    0  0.00000000000E+00  0.00000000000E+00  0.45593999997E+02  0.45594000000E+02  0.51100000000E-03 0.  1.
         11   -1    0    0    0    0 -0.00000000000E+00 -0.00000000000E+00 -0.45593999997E+02  0.45594000000E+02  0.51100000000E-03 0. -1.
         23    2    1    2    0    0  0.00000000000E+00  0.35527136788E-14  0.00000000000E+00  0.91188000000E+02  0.91188000000E+02 0.  0.
    9900012    2    3    3    0    0 -0.20154908430E+01  0.15048706012E+02 -0.33544812811E+02  0.54367079011E+02  0.39999988221E+02 0.  0.
        -12    1    3    3    0    0  0.20154908430E+01 -0.15048706012E+02  0.33544812811E+02  0.36820920989E+02  0.00000000000E+00 0.  1.
         11    1    4    4    0    0 -0.22814824794E+01  0.16769009384E+02 -0.30603983161E+02  0.34971540195E+02  0.51100000000E-03 0. -1.
        -11    1    4    4    0    0 -0.35867414235E+01 -0.37953894376E+01 -0.98896098510E+01  0.11183652279E+02  0.51100000000E-03 0.  1.
        -12    1    4    4    0    0  0.38527330599E+01  0.20750860661E+01  0.69487802017E+01  0.82118865375E+01  0.00000000000E+00 0.  1.
</event>
<event>
 8    1  0.2433390E-006  0.9118800E+02  0.7816164E-02  0.1184000E+00
        -11   -1    0    0    0    0  0.00000000000E+00  0.00000000000E+00  0.45593999997E+02  0.45594000000E+02  0.51100000000E-03 0. -1.
         11   -1    0    0    0    0 -0.00000000000E+00 -0.00000000000E+00 -0.45593999997E+02  0.45594000000E+02  0.51100000000E-03 0.  1.
         23    2    1    2    0    0  0.00000000000E+00  0.88817841970E-15  0.35527136788E-14  0.91188000000E+02  0.91188000000E+02 0.  0.
    9900012    2    3    3    0    0 -0.26441913437E+02  0.47359226717E+01  0.25182845573E+02  0.54367089353E+02  0.40000011798E+02 0.  0.
        -12    1    3    3    0    0  0.26441913437E+02 -0.47359226717E+01 -0.25182845573E+02  0.36820910647E+02  0.00000000000E+00 0.  1.
         11    1    4    4    0    0 -0.18033036094E+02  0.48874818993E+01  0.24182609856E+01  0.18839476015E+02  0.51100000000E-03 0. -1.
        -11    1    4    4    0    0 -0.11182550020E+02  0.36889315346E+00 -0.13308269560E+01  0.11267502286E+02  0.51100000000E-03 0.  1.
        -12    1    4    4    0    0  0.27736726773E+01 -0.52045238105E+00  0.24095411543E+02  0.24260111052E+02  0.00000000000E+00 0.  1.
</event>
<event>
 8    1  0.2433390E-006  0.9118800E+02  0.7816164E-02  0.1184000E+00
        -11   -1    0    0    0    0  0.00000000000E+00  0.00000000000E+00  0.45593999997E+02  0.45594000000E+02  0.51100000000E-03 0. -1.
         11   -1    0    0    0    0 -0.00000000000E+00 -0.00000000000E+00 -0.45593999997E+02  0.45594000000E+02  0.51100000000E-03 0.  1.
         23    2    1    2    0    0  0.00000000000E+00  0.69388939039E-16  0.00000000000E+00  0.91188000000E+02  0.91188000000E+02 0.  0.
    9900012    2    3    3    0    0  0.32360613456E+02  0.78681984277E-01 -0.17565995524E+02  0.54367086203E+02  0.40000004616E+02 0.  0.
         12    1    3    3    0    0 -0.32360613456E+02 -0.78681984277E-01  0.17565995524E+02  0.36820913797E+02  0.00000000000E+00 0. -1.
         11    1    4    4    0    0 -0.16689982150E+01  0.37760187268E+01 -0.19823535918E+01  0.45796941482E+01  0.51100000000E-03 0. -1.
        -11    1    4    4    0    0 -0.45276296169E+01 -0.45131016335E+01  0.29013281873E+01  0.70203434257E+01  0.51100000000E-03 0.  1.
         12    1    4    4    0    0  0.38557241288E+02  0.81576489097E+00 -0.18484970119E+02  0.42767048629E+02  0.00000000000E+00 0. -1.
</event>
<event>
 8    1  0.2433390E-006  0.9118800E+02  0.7816164E-02  0.1184000E+00
        -11   -1    0    0    0    0  0.00000000000E+00  0.00000000000E+00  0.45593999997E+02  0.45594000000E+02  0.51100000000E-03 0.  1.
         11   -1    0    0    0    0 -0.00000000000E+00 -0.00000000000E+00 -0.45593999997E+02  0.45594000000E+02  0.51100000000E-03 0. -1.
         23    2    1    2    0    0 -0.71054273576E-14  0.00000000000E+00  0.00000000000E+00  0.91188000000E+02  0.91188000000E+02 0.  0.
    9900012    2    3    3    0    0 -0.26461073656E+02 -0.11206891784E+02 -0.23021651721E+02  0.54367091667E+02  0.40000017074E+02 0.  0.
        -12    1    3    3    0    0  0.26461073656E+02  0.11206891784E+02  0.23021651721E+02  0.36820908333E+02  0.00000000000E+00 0.  1.
         11    1    4    4    0    0  0.38404759625E+01  0.38756860963E+01  0.41543095938E+01  0.68577318989E+01  0.51100000000E-03 0. -1.
        -11    1    4    4    0    0 -0.26873135393E+02 -0.14363364100E+02 -0.13386101827E+02  0.33281516740E+02  0.51100000000E-03 0.  1.
         12    1    4    4    0    0 -0.34284142257E+01 -0.71921378047E+00 -0.13789859487E+02  0.14227843029E+02  0.00000000000E+00 0. -1.
</event>
<event>
 8    1  0.2433390E-006  0.9118800E+02  0.7816164E-02  0.1184000E+00
        -11   -1    0    0    0    0  0.00000000000E+00  0.00000000000E+00  0.45593999997E+02  0.45594000000E+02  0.51100000000E-03 0.  1.
         11   -1    0    0    0    0 -0.00000000000E+00 -0.00000000000E+00 -0.45593999997E+02  0.45594000000E+02  0.51100000000E-03 0. -1.
         23    2    1    2    0    0  0.00000000000E+00 -0.22204460493E-15 -0.26645352591E-14  0.91188000000E+02  0.91188000000E+02 0.  0.
    9900012    2    3    3    0    0 -0.36288706261E+02 -0.95335359578E+00  0.61643218915E+01  0.54367109875E+02  0.40000058583E+02 0.  0.
        -12    1    3    3    0    0  0.36288706261E+02  0.95335359578E+00 -0.61643218915E+01  0.36820890125E+02  0.00000000000E+00 0.  1.
         11    1    4    4    0    0 -0.14160777849E+02 -0.17619120812E+02 -0.45717478002E+01  0.23062131855E+02  0.51100000000E-03 0. -1.
        -11    1    4    4    0    0 -0.17763331815E+02  0.78420940625E+01  0.85745403438E+01  0.21226331261E+02  0.51100000000E-03 0.  1.
         12    1    4    4    0    0 -0.43645965971E+01  0.88236731537E+01  0.21615293479E+01  0.10078646759E+02  0.00000000000E+00 0. -1.
</event>
<event>
 8    1  0.2433390E-006  0.9118800E+02  0.7816164E-02  0.1184000E+00
        -11   -1    0    0    0    0  0.00000000000E+00  0.00000000000E+00  0.45593999997E+02  0.45594000000E+02  0.51100000000E-03 0.  1.
         11   -1    0    0    0    0 -0.00000000000E+00 -0.00000000000E+00 -0.45593999997E+02  0.45594000000E+02  0.51100000000E-03 0. -1.
         23    2    1    2    0    0  0.00000000000E+00 -0.44408920985E-15 -0.17763568394E-14  0.91188000000E+02  0.91188000000E+02 0.  0.
    9900012    2    3    3    0    0 -0.33882566575E+02 -0.26823654623E+01  0.14161787483E+02  0.54367087099E+02  0.40000006659E+02 0.  0.
         12    1    3    3    0    0  0.33882566575E+02  0.26823654623E+01 -0.14161787483E+02  0.36820912901E+02  0.00000000000E+00 0. -1.
         11    1    4    4    0    0 -0.94681901035E+01 -0.12791767165E+02 -0.50007014223E+01  0.16681814830E+02  0.51100000000E-03 0. -1.
        -11    1    4    4    0    0 -0.33905853308E+01 -0.49636569855E+01  0.10408189300E+01  0.61005953694E+01  0.51100000000E-03 0.  1.
         12    1    4    4    0    0 -0.21023791140E+02  0.15073058689E+02  0.18121669975E+02  0.31584676899E+02  0.00000000000E+00 0. -1.
</event>
<event>
 8    1  0.2433390E-006  0.9118800E+02  0.7816164E-02  0.1184000E+00
        -11   -1    0    0    0    0  0.00000000000E+00  0.00000000000E+00  0.45593999997E+02  0.45594000000E+02  0.51100000000E-03 0. -1.
         11   -1    0    0    0    0 -0.00000000000E+00 -0.00000000000E+00 -0.45593999997E+02  0.45594000000E+02  0.51100000000E-03 0.  1.
         23    2    1    2    0    0  0.35527136788E-14  0.00000000000E+00 -0.11102230246E-15  0.91188000000E+02  0.91188000000E+02 0.  0.
    9900012    2    3    3    0    0 -0.30663416518E+02  0.20372148613E+02 -0.71474130264E+00  0.54367076508E+02  0.39999982515E+02 0.  0.
        -12    1    3    3    0    0  0.30663416518E+02 -0.20372148613E+02  0.71474130264E+00  0.36820923492E+02  0.00000000000E+00 0.  1.
         11    1    4    4    0    0  0.89970630706E+00  0.19453857043E+02 -0.80012621906E+00  0.19491080717E+02  0.51100000000E-03 0. -1.
        -11    1    4    4    0    0 -0.21152026291E+02  0.50255789789E+01  0.55253106948E+01  0.22431979824E+02  0.51100000000E-03 0.  1.
        -12    1    4    4    0    0 -0.10411096535E+02 -0.41072874087E+01 -0.54399257784E+01  0.12444015967E+02  0.00000000000E+00 0.  1.
</event>
<event>
 8    1  0.2433390E-006  0.9118800E+02  0.7816164E-02  0.1184000E+00
        -11   -1    0    0    0    0  0.00000000000E+00  0.00000000000E+00  0.45593999997E+02  0.45594000000E+02  0.51100000000E-03 0.  1.
         11   -1    0    0    0    0 -0.00000000000E+00 -0.00000000000E+00 -0.45593999997E+02  0.45594000000E+02  0.51100000000E-03 0. -1.
         23    2    1    2    0    0  0.22204460493E-15  0.00000000000E+00  0.35527136788E-14  0.91188000000E+02  0.91188000000E+02 0.  0.
    9900012    2    3    3    0    0  0.83977025716E+00  0.35620595958E+02  0.92869997295E+01  0.54367076132E+02  0.39999981659E+02 0.  0.
         12    1    3    3    0    0 -0.83977025716E+00 -0.35620595958E+02 -0.92869997295E+01  0.36820923868E+02  0.00000000000E+00 0. -1.
         11    1    4    4    0    0  0.16044072071E+01  0.32723754022E+02 -0.57933996720E+01  0.33271334206E+02  0.51100000000E-03 0. -1.
        -11    1    4    4    0    0  0.52349030280E+01  0.54100384106E+01  0.47930743447E+01  0.89244768615E+01  0.51100000000E-03 0.  1.
         12    1    4    4    0    0 -0.59995399779E+01 -0.25131964750E+01  0.10287325057E+02  0.12171265065E+02  0.00000000000E+00 0. -1.
</event>
<event>
 8    1  0.2433390E-006  0.9118800E+02  0.7816164E-02  0.1184000E+00
        -11   -1    0    0    0    0  0.00000000000E+00  0.00000000000E+00  0.45593999997E+02  0.45594000000E+02  0.51100000000E-03 0.  1.
         11   -1    0    0    0    0 -0.00000000000E+00 -0.00000000000E+00 -0.45593999997E+02  0.45594000000E+02  0.51100000000E-03 0. -1.
         23    2    1    2    0    0  0.88817841970E-15  0.71054273576E-14  0.88817841970E-15  0.91188000000E+02  0.91188000000E+02 0.  0.
    9900012    2    3    3    0    0 -0.64498225278E+01  0.35439305792E+02 -0.76312802154E+01  0.54367067864E+02  0.39999962809E+02 0.  0.
        -12    1    3    3    0    0  0.64498225278E+01 -0.35439305792E+02  0.76312802154E+01  0.36820932136E+02  0.00000000000E+00 0.  1.
         11    1    4    4    0    0  0.45781915907E+01  0.20625129871E+02  0.97971304479E+01  0.23288185540E+02  0.51100000000E-03 0.  1.
        -11    1    4    4    0    0 -0.28008869314E+01  0.15630954818E+02 -0.16262109836E+02  0.22729450778E+02  0.51100000000E-03 0. -1.
         12    1    4    4    0    0 -0.82271271871E+01 -0.81677889724E+00 -0.11663008276E+01  0.83494315460E+01  0.00000000000E+00 0. -1.
</event>
<event>
 8    1  0.2433390E-006  0.9118800E+02  0.7816164E-02  0.1184000E+00
        -11   -1    0    0    0    0  0.00000000000E+00  0.00000000000E+00  0.45593999997E+02  0.45594000000E+02  0.51100000000E-03 0. -1.
         11   -1    0    0    0    0 -0.00000000000E+00 -0.00000000000E+00 -0.45593999997E+02  0.45594000000E+02  0.51100000000E-03 0.  1.
         23    2    1    2    0    0  0.00000000000E+00  0.00000000000E+00  0.17763568394E-14  0.91188000000E+02  0.91188000000E+02 0.  0.
    9900012    2    3    3    0    0 -0.37200656808E+01  0.35716381660E+02 -0.81412747809E+01  0.54367093403E+02  0.40000021031E+02 0.  0.
         12    1    3    3    0    0  0.37200656808E+01 -0.35716381660E+02  0.81412747809E+01  0.36820906597E+02  0.00000000000E+00 0. -1.
         11    1    4    4    0    0  0.90007860840E+00  0.36757599021E+01  0.28024130641E+01  0.47090202381E+01  0.51100000000E-03 0. -1.
        -11    1    4    4    0    0 -0.69137793258E+01  0.74169323667E+00 -0.16391951724E+02  0.17805800600E+02  0.51100000000E-03 0.  1.
        -12    1    4    4    0    0  0.22936350365E+01  0.31298928521E+02  0.54482638794E+01  0.31852272565E+02  0.00000000000E+00 0.  1.
</event>
<event>
 8    1  0.2433390E-006  0.9118800E+02  0.7816164E-02  0.1184000E+00
        -11   -1    0    0    0    0  0.00000000000E+00  0.00000000000E+00  0.45593999997E+02  0.45594000000E+02  0.51100000000E-03 0. -1.
         11   -1    0    0    0    0 -0.00000000000E+00 -0.00000000000E+00 -0.45593999997E+02  0.45594000000E+02  0.51100000000E-03 0.  1.
         23    2    1    2    0    0  0.88817841970E-15  0.17763568394E-14 -0.71054273576E-14  0.91188000000E+02  0.91188000000E+02 0.  0.
    9900012    2    3    3    0    0 -0.40939772749E+01  0.12132292497E+02 -0.34522844743E+02  0.54367082300E+02  0.39999995718E+02 0.  0.
         12    1    3    3    0    0  0.40939772749E+01 -0.12132292497E+02  0.34522844743E+02  0.36820917700E+02  0.00000000000E+00 0. -1.
         11    1    4    4    0    0 -0.11807642313E+02 -0.47951903847E+01  0.27774118134E-01  0.12744215923E+02  0.51100000000E-03 0. -1.
        -11    1    4    4    0    0  0.93834940554E+01  0.90592495831E+01 -0.12163165933E+02  0.17834308775E+02  0.51100000000E-03 0.  1.
         12    1    4    4    0    0 -0.16698290169E+01  0.78682332983E+01 -0.22387452928E+02  0.23788557602E+02  0.00000000000E+00 0. -1.
</event>
<event>
 8    1  0.2433390E-006  0.9118800E+02  0.7816164E-02  0.1184000E+00
        -11   -1    0    0    0    0  0.00000000000E+00  0.00000000000E+00  0.45593999997E+02  0.45594000000E+02  0.51100000000E-03 0. -1.
         11   -1    0    0    0    0 -0.00000000000E+00 -0.00000000000E+00 -0.45593999997E+02  0.45594000000E+02  0.51100000000E-03 0.  1.
         23    2    1    2    0    0  0.00000000000E+00  0.00000000000E+00  0.88817841970E-15  0.91188000000E+02  0.91188000000E+02 0.  0.
    9900012    2    3    3    0    0  0.61967435097E+01  0.35890471462E+02 -0.54086996470E+01  0.54367087413E+02  0.40000007375E+02 0.  0.
         12    1    3    3    0    0 -0.61967435097E+01 -0.35890471462E+02  0.54086996470E+01  0.36820912587E+02  0.00000000000E+00 0. -1.
         11    1    4    4    0    0  0.40631151393E+01  0.10063539829E+02 -0.15580158563E+02  0.18987497983E+02  0.51100000000E-03 0.  1.
        -11    1    4    4    0    0 -0.40757774450E+01  0.20449264592E+02 -0.17249792076E+01  0.20922713440E+02  0.51100000000E-03 0. -1.
         12    1    4    4    0    0  0.62094058154E+01  0.53776670406E+01  0.11896438124E+02  0.14456875991E+02  0.00000000000E+00 0. -1.
</event>
<event>
 8    1  0.2433390E-006  0.9118800E+02  0.7816164E-02  0.1184000E+00
        -11   -1    0    0    0    0  0.00000000000E+00  0.00000000000E+00  0.45593999997E+02  0.45594000000E+02  0.51100000000E-03 0.  1.
         11   -1    0    0    0    0 -0.00000000000E+00 -0.00000000000E+00 -0.45593999997E+02  0.45594000000E+02  0.51100000000E-03 0. -1.
         23    2    1    2    0    0  0.00000000000E+00 -0.35527136788E-14  0.00000000000E+00  0.91188000000E+02  0.91188000000E+02 0.  0.
    9900012    2    3    3    0    0 -0.10679335195E+01 -0.28721817424E+02 -0.23015123475E+02  0.54367093076E+02  0.40000020285E+02 0.  0.
        -12    1    3    3    0    0  0.10679335195E+01  0.28721817424E+02  0.23015123475E+02  0.36820906924E+02  0.00000000000E+00 0.  1.
         11    1    4    4    0    0 -0.64245260825E+01 -0.31122517070E+02 -0.27007281694E+02  0.41704662436E+02  0.51100000000E-03 0. -1.
        -11    1    4    4    0    0  0.88269561654E+00 -0.40555118368E+01  0.11195907895E+01  0.42988151399E+01  0.51100000000E-03 0.  1.
        -12    1    4    4    0    0  0.44738969464E+01  0.64562114820E+01  0.28725674298E+01  0.83636154997E+01  0.00000000000E+00 0.  1.
</event>
<event>
 8    1  0.2433390E-006  0.9118800E+02  0.7816164E-02  0.1184000E+00
        -11   -1    0    0    0    0  0.00000000000E+00  0.00000000000E+00  0.45593999997E+02  0.45594000000E+02  0.51100000000E-03 0.  1.
         11   -1    0    0    0    0 -0.00000000000E+00 -0.00000000000E+00 -0.45593999997E+02  0.45594000000E+02  0.51100000000E-03 0. -1.
         23    2    1    2    0    0  0.00000000000E+00  0.00000000000E+00  0.00000000000E+00  0.91188000000E+02  0.91188000000E+02 0.  0.
    9900012    2    3    3    0    0 -0.32959740476E+02  0.16180865512E+02 -0.27594737448E+01  0.54367087514E+02  0.40000007605E+02 0.  0.
         12    1    3    3    0    0  0.32959740476E+02 -0.16180865512E+02  0.27594737448E+01  0.36820912486E+02  0.00000000000E+00 0. -1.
         11    1    4    4    0    0 -0.81290083887E+01  0.61526644320E+01 -0.11786003986E+02  0.15583515240E+02  0.51100000000E-03 0. -1.
        -11    1    4    4    0    0 -0.20982056384E+02  0.14194380923E+02 -0.29778234039E+01  0.25506755427E+02  0.51100000000E-03 0.  1.
        -12    1    4    4    0    0 -0.38486757033E+01 -0.41661798436E+01  0.12004353646E+02  0.13276816848E+02  0.00000000000E+00 0.  1.
</event>
<event>
 8    1  0.2433390E-006  0.9118800E+02  0.7816164E-02  0.1184000E+00
        -11   -1    0    0    0    0  0.00000000000E+00  0.00000000000E+00  0.45593999997E+02  0.45594000000E+02  0.51100000000E-03 0. -1.
         11   -1    0    0    0    0 -0.00000000000E+00 -0.00000000000E+00 -0.45593999997E+02  0.45594000000E+02  0.51100000000E-03 0.  1.
         23    2    1    2    0    0  0.00000000000E+00  0.00000000000E+00 -0.16653345369E-15  0.91188000000E+02  0.91188000000E+02 0.  0.
    9900012    2    3    3    0    0 -0.80079821349E+01  0.35936855654E+02  0.44160593835E+00  0.54367076764E+02  0.39999983099E+02 0.  0.
        -12    1    3    3    0    0  0.80079821349E+01 -0.35936855654E+02 -0.44160593835E+00  0.36820923236E+02  0.00000000000E+00 0.  1.
         11    1    4    4    0    0 -0.24602797207E+01 -0.10833081885E+00  0.40576277365E+01  0.47464781659E+01  0.51100000000E-03 0. -1.
        -11    1    4    4    0    0  0.60851169844E+01  0.24485469731E+02 -0.15279552135E+02  0.29496297909E+02  0.51100000000E-03 0.  1.
        -12    1    4    4    0    0 -0.11632819399E+02  0.11559716742E+02  0.11663530337E+02  0.20124300689E+02  0.00000000000E+00 0.  1.
</event>
<event>
 8    1  0.2433390E-006  0.9118800E+02  0.7816164E-02  0.1184000E+00
        -11   -1    0    0    0    0  0.00000000000E+00  0.00000000000E+00  0.45593999997E+02  0.45594000000E+02  0.51100000000E-03 0.  1.
         11   -1    0    0    0    0 -0.00000000000E+00 -0.00000000000E+00 -0.45593999997E+02  0.45594000000E+02  0.51100000000E-03 0. -1.
         23    2    1    2    0    0  0.17763568394E-14  0.00000000000E+00  0.00000000000E+00  0.91188000000E+02  0.91188000000E+02 0.  0.
    9900012    2    3    3    0    0 -0.11132748622E+02 -0.23749559528E+01 -0.35017200084E+02  0.54367043883E+02  0.39999908139E+02 0.  0.
        -12    1    3    3    0    0  0.11132748622E+02  0.23749559528E+01  0.35017200084E+02  0.36820956117E+02  0.00000000000E+00 0.  1.
         11    1    4    4    0    0  0.50994365849E+01 -0.51913349470E+01 -0.17507963057E+02  0.18960036463E+02  0.51100000000E-03 0. -1.
        -11    1    4    4    0    0  0.58281597600E+01  0.45913287150E+01 -0.39465380592E+00  0.74299056148E+01  0.51100000000E-03 0.  1.
        -12    1    4    4    0    0 -0.22060344967E+02 -0.17749497208E+01 -0.17114583222E+02  0.27977101805E+02  0.00000000000E+00 0.  1.
</event>
<event>
 8    1  0.2433390E-006  0.9118800E+02  0.7816164E-02  0.1184000E+00
        -11   -1    0    0    0    0  0.00000000000E+00  0.00000000000E+00  0.45593999997E+02  0.45594000000E+02  0.51100000000E-03 0. -1.
         11   -1    0    0    0    0 -0.00000000000E+00 -0.00000000000E+00 -0.45593999997E+02  0.45594000000E+02  0.51100000000E-03 0.  1.
         23    2    1    2    0    0  0.00000000000E+00 -0.71054273576E-14  0.17763568394E-14  0.91188000000E+02  0.91188000000E+02 0.  0.
    9900012    2    3    3    0    0 -0.23808667484E+02  0.27974708617E+02 -0.25186019955E+01  0.54367077610E+02  0.39999985028E+02 0.  0.
         12    1    3    3    0    0  0.23808667484E+02 -0.27974708617E+02  0.25186019955E+01  0.36820922390E+02  0.00000000000E+00 0. -1.
         11    1    4    4    0    0 -0.96881292737E+01  0.24450642881E+01  0.10674135651E+02  0.14621058797E+02  0.51100000000E-03 0. -1.
        -11    1    4    4    0    0 -0.17130208928E+02  0.16762846597E+02 -0.42838809319E+00  0.23971245286E+02  0.51100000000E-03 0.  1.
         12    1    4    4    0    0  0.30096707171E+01  0.87667977324E+01 -0.12764349553E+02  0.15774773527E+02  0.00000000000E+00 0. -1.
</event>
<event>
 8    1  0.2433390E-006  0.9118800E+02  0.7816164E-02  0.1184000E+00
        -11   -1    0    0    0    0  0.00000000000E+00  0.00000000000E+00  0.45593999997E+02  0.45594000000E+02  0.51100000000E-03 0. -1.
         11   -1    0    0    0    0 -0.00000000000E+00 -0.00000000000E+00 -0.45593999997E+02  0.45594000000E+02  0.51100000000E-03 0.  1.
         23    2    1    2    0    0 -0.13322676296E-14 -0.35527136788E-14  0.35527136788E-14  0.91188000000E+02  0.91188000000E+02 0.  0.
    9900012    2    3    3    0    0  0.34031917396E+01  0.21855730538E+02 -0.29436798173E+02  0.54367085317E+02  0.40000002598E+02 0.  0.
         12    1    3    3    0    0 -0.34031917396E+01 -0.21855730538E+02  0.29436798173E+02  0.36820914683E+02  0.00000000000E+00 0. -1.
         11    1    4    4    0    0 -0.16700242961E+02  0.31366204301E+01 -0.16002546618E+02  0.23341336749E+02  0.51100000000E-03 0. -1.
        -11    1    4    4    0    0  0.41156502815E+01  0.70848226949E+01 -0.39175416244E+01  0.90818732923E+01  0.51100000000E-03 0.  1.
         12    1    4    4    0    0  0.15987784419E+02  0.11634287413E+02 -0.95167099309E+01  0.21943875276E+02  0.00000000000E+00 0. -1.
</event>
<event>
 8    1  0.2433390E-006  0.9118800E+02  0.7816164E-02  0.1184000E+00
        -11   -1    0    0    0    0  0.00000000000E+00  0.00000000000E+00  0.45593999997E+02  0.45594000000E+02  0.51100000000E-03 0.  1.
         11   -1    0    0    0    0 -0.00000000000E+00 -0.00000000000E+00 -0.45593999997E+02  0.45594000000E+02  0.51100000000E-03 0. -1.
         23    2    1    2    0    0  0.35527136788E-14  0.00000000000E+00  0.35527136788E-14  0.91188000000E+02  0.91188000000E+02 0.  0.
    9900012    2    3    3    0    0  0.31071737464E+02  0.19411077490E+02  0.36789258841E+01  0.54367118777E+02  0.40000078877E+02 0.  0.
        -12    1    3    3    0    0 -0.31071737464E+02 -0.19411077490E+02 -0.36789258841E+01  0.36820881223E+02  0.00000000000E+00 0.  1.
         11    1    4    4    0    0  0.55221128200E+01  0.99860880748E+01 -0.16243589336E+01  0.11526240811E+02  0.51100000000E-03 0. -1.
        -11    1    4    4    0    0  0.19975425178E+02  0.11288199058E+02 -0.11047806730E+02  0.25465566611E+02  0.51100000000E-03 0.  1.
        -12    1    4    4    0    0  0.55741994659E+01 -0.18632096427E+01  0.16351091548E+02  0.17375311355E+02  0.00000000000E+00 0.  1.
</event>
<event>
 8    1  0.2433390E-006  0.9118800E+02  0.7816164E-02  0.1184000E+00
        -11   -1    0    0    0    0  0.00000000000E+00  0.00000000000E+00  0.45593999997E+02  0.45594000000E+02  0.51100000000E-03 0.  1.
         11   -1    0    0    0    0 -0.00000000000E+00 -0.00000000000E+00 -0.45593999997E+02  0.45594000000E+02  0.51100000000E-03 0. -1.
         23    2    1    2    0    0  0.00000000000E+00  0.00000000000E+00  0.00000000000E+00  0.91188000000E+02  0.91188000000E+02 0.  0.
    9900012    2    3    3    0    0 -0.11662180809E+02 -0.27036701972E+02  0.22108632131E+02  0.54367063979E+02  0.39999953952E+02 0.  0.
         12    1    3    3    0    0  0.11662180809E+02  0.27036701972E+02 -0.22108632131E+02  0.36820936021E+02  0.00000000000E+00 0. -1.
         11    1    4    4    0    0  0.59236726076E+01 -0.77433541075E+01  0.24928603159E+01  0.10062990749E+02  0.51100000000E-03 0. -1.
        -11    1    4    4    0    0 -0.73046686664E+01  0.51951237532E+01  0.14813348755E+02  0.17314236822E+02  0.51100000000E-03 0.  1.
        -12    1    4    4    0    0 -0.10281184750E+02 -0.24488471618E+02  0.48024230604E+01  0.26989836408E+02  0.00000000000E+00 0.  1.
</event>
<event>
 8    1  0.2433390E-006  0.9118800E+02  0.7816164E-02  0.1184000E+00
        -11   -1    0    0    0    0  0.00000000000E+00  0.00000000000E+00  0.45593999997E+02  0.45594000000E+02  0.51100000000E-03 0. -1.
         11   -1    0    0    0    0 -0.00000000000E+00 -0.00000000000E+00 -0.45593999997E+02  0.45594000000E+02  0.51100000000E-03 0.  1.
         23    2    1    2    0    0  0.00000000000E+00  0.00000000000E+00 -0.35527136788E-14  0.91188000000E+02  0.91188000000E+02 0.  0.
    9900012    2    3    3    0    0 -0.24563745168E+01 -0.19650458246E+02  0.31042007618E+02  0.54367074944E+02  0.39999978949E+02 0.  0.
        -12    1    3    3    0    0  0.24563745168E+01  0.19650458246E+02 -0.31042007618E+02  0.36820925056E+02  0.00000000000E+00 0.  1.
         11    1    4    4    0    0 -0.64610486494E+01 -0.14149604858E+02  0.11786749045E+02  0.19516247606E+02  0.51100000000E-03 0. -1.
        -11    1    4    4    0    0 -0.20741832867E+01  0.73807407493E+01  0.19127078845E+02  0.20606375608E+02  0.51100000000E-03 0.  1.
         12    1    4    4    0    0  0.60788574192E+01 -0.12881594137E+02  0.12817972778E+00  0.14244451730E+02  0.00000000000E+00 0. -1.
</event>
<event>
 8    1  0.2433390E-006  0.9118800E+02  0.7816164E-02  0.1184000E+00
        -11   -1    0    0    0    0  0.00000000000E+00  0.00000000000E+00  0.45593999997E+02  0.45594000000E+02  0.51100000000E-03 0.  1.
         11   -1    0    0    0    0 -0.00000000000E+00 -0.00000000000E+00 -0.45593999997E+02  0.45594000000E+02  0.51100000000E-03 0. -1.
         23    2    1    2    0    0 -0.17763568394E-14  0.00000000000E+00  0.44408920985E-15  0.91188000000E+02  0.91188000000E+02 0.  0.
    9900012    2    3    3    0    0  0.14882335102E+02  0.33496753713E+02  0.35018782187E+01  0.54367088028E+02  0.40000008778E+02 0.  0.
         12    1    3    3    0    0 -0.14882335102E+02 -0.33496753713E+02 -0.35018782187E+01  0.36820911972E+02  0.00000000000E+00 0. -1.
         11    1    4    4    0    0  0.17862574779E+02  0.12205681911E+02 -0.10679842959E+01  0.21660813451E+02  0.51100000000E-03 0.  1.
        -11    1    4    4    0    0  0.78409314696E+01  0.19185354611E+02  0.60316963372E+01  0.21585629452E+02  0.51100000000E-03 0. -1.
         12    1    4    4    0    0 -0.10821171147E+02  0.21057171907E+01 -0.14618338226E+01  0.11120645125E+02  0.00000000000E+00 0. -1.
</event>
<event>
 8    1  0.2433390E-006  0.9118800E+02  0.7816164E-02  0.1184000E+00
        -11   -1    0    0    0    0  0.00000000000E+00  0.00000000000E+00  0.45593999997E+02  0.45594000000E+02  0.51100000000E-03 0.  1.
         11   -1    0    0    0    0 -0.00000000000E+00 -0.00000000000E+00 -0.45593999997E+02  0.45594000000E+02  0.51100000000E-03 0. -1.
         23    2    1    2    0    0  0.71054273576E-14  0.00000000000E+00  0.00000000000E+00  0.91188000000E+02  0.91188000000E+02 0.  0.
    9900012    2    3    3    0    0 -0.36017688141E+02 -0.62038417386E+01  0.44740593040E+01  0.54367099440E+02  0.40000034794E+02 0.  0.
        -12    1    3    3    0    0  0.36017688141E+02  0.62038417386E+01 -0.44740593040E+01  0.36820900560E+02  0.00000000000E+00 0.  1.
         11    1    4    4    0    0 -0.82970086057E-01 -0.19957291132E+01  0.31195184286E+00  0.20216658828E+01  0.51100000000E-03 0. -1.
        -11    1    4    4    0    0  0.43649782664E+01 -0.82063361198E+01 -0.53788979878E+01  0.10739158794E+02  0.51100000000E-03 0.  1.
         12    1    4    4    0    0 -0.40299696322E+02  0.39982234943E+01  0.95410054489E+01  0.41606274764E+02  0.00000000000E+00 0. -1.
</event>
<event>
 8    1  0.2433390E-006  0.9118800E+02  0.7816164E-02  0.1184000E+00
        -11   -1    0    0    0    0  0.00000000000E+00  0.00000000000E+00  0.45593999997E+02  0.45594000000E+02  0.51100000000E-03 0. -1.
         11   -1    0    0    0    0 -0.00000000000E+00 -0.00000000000E+00 -0.45593999997E+02  0.45594000000E+02  0.51100000000E-03 0.  1.
         23    2    1    2    0    0  0.00000000000E+00  0.00000000000E+00  0.00000000000E+00  0.91188000000E+02  0.91188000000E+02 0.  0.
    9900012    2    3    3    0    0  0.12133679474E+02 -0.28969902123E+02 -0.19217108477E+02  0.54367100163E+02  0.40000036442E+02 0.  0.
         12    1    3    3    0    0 -0.12133679474E+02  0.28969902123E+02  0.19217108477E+02  0.36820899837E+02  0.00000000000E+00 0. -1.
         11    1    4    4    0    0  0.26657225700E+01 -0.41308002246E+01 -0.16663203315E+02  0.17373310919E+02  0.51100000000E-03 0. -1.
        -11    1    4    4    0    0  0.15572421775E+02 -0.96960658838E+01 -0.76708838481E+01  0.19883572940E+02  0.51100000000E-03 0.  1.
        -12    1    4    4    0    0 -0.61044648718E+01 -0.15143036014E+02  0.51169786857E+01  0.17110216304E+02  0.00000000000E+00 0.  1.
</event>
<event>
 8    1  0.2433390E-006  0.9118800E+02  0.7816164E-02  0.1184000E+00
        -11   -1    0    0    0    0  0.00000000000E+00  0.00000000000E+00  0.45593999997E+02  0.45594000000E+02  0.51100000000E-03 0.  1.
         11   -1    0    0    0    0 -0.00000000000E+00 -0.00000000000E+00 -0.45593999997E+02  0.45594000000E+02  0.51100000000E-03 0. -1.
         23    2    1    2    0    0  0.00000000000E+00  0.00000000000E+00  0.66613381478E-15  0.91188000000E+02  0.91188000000E+02 0.  0.
    9900012    2    3    3    0    0  0.32171876153E+02  0.17884032556E+02 -0.95378830474E+00  0.54367109899E+02  0.40000058638E+02 0.  0.
        -12    1    3    3    0    0 -0.32171876153E+02 -0.17884032556E+02  0.95378830474E+00  0.36820890101E+02  0.00000000000E+00 0.  1.
         11    1    4    4    0    0  0.37058456287E+01 -0.32946195560E+01 -0.31786179270E+01  0.58899424470E+01  0.51100000000E-03 0. -1.
        -11    1    4    4    0    0  0.11097305000E+02 -0.71153041628E+01 -0.56724508155E+01  0.14351112504E+02  0.51100000000E-03 0.  1.
         12    1    4    4    0    0  0.17368725525E+02  0.28293956275E+02  0.78972804377E+01  0.34126054949E+02  0.00000000000E+00 0. -1.
</event>
<event>
 8    1  0.2433390E-006  0.9118800E+02  0.7816164E-02  0.1184000E+00
        -11   -1    0    0    0    0  0.00000000000E+00  0.00000000000E+00  0.45593999997E+02  0.45594000000E+02  0.51100000000E-03 0.  1.
         11   -1    0    0    0    0 -0.00000000000E+00 -0.00000000000E+00 -0.45593999997E+02  0.45594000000E+02  0.51100000000E-03 0. -1.
         23    2    1    2    0    0 -0.71054273576E-14  0.17763568394E-14  0.00000000000E+00  0.91188000000E+02  0.91188000000E+02 0.  0.
    9900012    2    3    3    0    0 -0.32884159856E+02  0.12753202328E+02 -0.10572022027E+02  0.54367084900E+02  0.40000001646E+02 0.  0.
        -12    1    3    3    0    0  0.32884159856E+02 -0.12753202328E+02  0.10572022027E+02  0.36820915100E+02  0.00000000000E+00 0.  1.
         11    1    4    4    0    0 -0.18428426738E+02  0.16577498217E+02 -0.67462010044E+01  0.25689133645E+02  0.51100000000E-03 0. -1.
        -11    1    4    4    0    0  0.67241379857E+01 -0.38446404371E+00  0.62419390406E+00  0.67639827426E+01  0.51100000000E-03 0.  1.
         12    1    4    4    0    0 -0.21179871104E+02 -0.34398318455E+01 -0.44500149269E+01  0.21913968512E+02  0.00000000000E+00 0. -1.
</event>
<event>
 8    1  0.2433390E-006  0.9118800E+02  0.7816164E-02  0.1184000E+00
        -11   -1    0    0    0    0  0.00000000000E+00  0.00000000000E+00  0.45593999997E+02  0.45594000000E+02  0.51100000000E-03 0. -1.
         11   -1    0    0    0    0 -0.00000000000E+00 -0.00000000000E+00 -0.45593999997E+02  0.45594000000E+02  0.51100000000E-03 0.  1.
         23    2    1    2    0    0  0.00000000000E+00  0.00000000000E+00  0.00000000000E+00  0.91188000000E+02  0.91188000000E+02 0.  0.
    9900012    2    3    3    0    0  0.15021703858E+02  0.22352181564E+02 -0.25109930551E+02  0.54367079048E+02  0.39999988305E+02 0.  0.
         12    1    3    3    0    0 -0.15021703858E+02 -0.22352181564E+02  0.25109930551E+02  0.36820920952E+02  0.00000000000E+00 0. -1.
         11    1    4    4    0    0  0.20394844263E+02  0.78488249298E+00 -0.12013700669E+02  0.23683215936E+02  0.51100000000E-03 0. -1.
        -11    1    4    4    0    0  0.25193559271E+00  0.18367453212E+01 -0.97150791381E+01  0.98903927040E+01  0.51100000000E-03 0.  1.
        -12    1    4    4    0    0 -0.56250759971E+01  0.19730553750E+02 -0.33811507433E+01  0.20793470408E+02  0.00000000000E+00 0.  1.
</event>
<event>
 8    1  0.2433390E-006  0.9118800E+02  0.7816164E-02  0.1184000E+00
        -11   -1    0    0    0    0  0.00000000000E+00  0.00000000000E+00  0.45593999997E+02  0.45594000000E+02  0.51100000000E-03 0.  1.
         11   -1    0    0    0    0 -0.00000000000E+00 -0.00000000000E+00 -0.45593999997E+02  0.45594000000E+02  0.51100000000E-03 0. -1.
         23    2    1    2    0    0  0.00000000000E+00  0.88817841970E-15  0.00000000000E+00  0.91188000000E+02  0.91188000000E+02 0.  0.
    9900012    2    3    3    0    0  0.34079275083E+02  0.30424938439E+01 -0.13606102389E+02  0.54367085004E+02  0.40000001883E+02 0.  0.
        -12    1    3    3    0    0 -0.34079275083E+02 -0.30424938439E+01  0.13606102389E+02  0.36820914996E+02  0.00000000000E+00 0.  1.
         11    1    4    4    0    0  0.23787334521E+02  0.14615571919E+02  0.12201957858E+01  0.27945323476E+02  0.51100000000E-03 0. -1.
        -11    1    4    4    0    0  0.86876822634E+01 -0.15011966715E+02 -0.91948041563E+01  0.19631082281E+02  0.51100000000E-03 0.  1.
         12    1    4    4    0    0  0.16042582980E+01  0.34388886403E+01 -0.56314940183E+01  0.67906792477E+01  0.00000000000E+00 0. -1.
</event>
<event>
 8    1  0.2433390E-006  0.9118800E+02  0.7816164E-02  0.1184000E+00
        -11   -1    0    0    0    0  0.00000000000E+00  0.00000000000E+00  0.45593999997E+02  0.45594000000E+02  0.51100000000E-03 0.  1.
         11   -1    0    0    0    0 -0.00000000000E+00 -0.00000000000E+00 -0.45593999997E+02  0.45594000000E+02  0.51100000000E-03 0. -1.
         23    2    1    2    0    0  0.00000000000E+00  0.00000000000E+00  0.17763568394E-14  0.91188000000E+02  0.91188000000E+02 0.  0.
    9900012    2    3    3    0    0 -0.30595947187E+02 -0.12932040788E+02  0.15888068309E+02  0.54367076902E+02  0.39999983414E+02 0.  0.
         12    1    3    3    0    0  0.30595947187E+02  0.12932040788E+02 -0.15888068309E+02  0.36820923098E+02  0.00000000000E+00 0. -1.
         11    1    4    4    0    0  0.48592408313E+01 -0.11135875468E+01  0.12380975271E+02  0.13346941507E+02  0.51100000000E-03 0.  1.
        -11    1    4    4    0    0 -0.32600607016E+02 -0.14449502841E+02 -0.18909694233E+00  0.35659829894E+02  0.51100000000E-03 0. -1.
        -12    1    4    4    0    0 -0.28545810017E+01  0.26310495993E+01  0.36961899806E+01  0.53603055008E+01  0.00000000000E+00 0.  1.
</event>
<event>
 8    1  0.2433390E-006  0.9118800E+02  0.7816164E-02  0.1184000E+00
        -11   -1    0    0    0    0  0.00000000000E+00  0.00000000000E+00  0.45593999997E+02  0.45594000000E+02  0.51100000000E-03 0.  1.
         11   -1    0    0    0    0 -0.00000000000E+00 -0.00000000000E+00 -0.45593999997E+02  0.45594000000E+02  0.51100000000E-03 0. -1.
         23    2    1    2    0    0  0.00000000000E+00  0.00000000000E+00  0.00000000000E+00  0.91188000000E+02  0.91188000000E+02 0.  0.
    9900012    2    3    3    0    0 -0.28740425297E+01  0.21217772677E+02 -0.29955385682E+02  0.54367093857E+02  0.40000022066E+02 0.  0.
        -12    1    3    3    0    0  0.28740425297E+01 -0.21217772677E+02  0.29955385682E+02  0.36820906143E+02  0.00000000000E+00 0.  1.
         11    1    4    4    0    0 -0.61893383968E+00 -0.17588692824E+00  0.19888609875E-01  0.64374772026E+00  0.51100000000E-03 0.  1.
        -11    1    4    4    0    0  0.12994249081E+02  0.14083787581E+02  0.16476649158E+00  0.19163265120E+02  0.51100000000E-03 0. -1.
         12    1    4    4    0    0 -0.15249357771E+02  0.73098720240E+01 -0.30140040783E+02  0.34560081016E+02  0.00000000000E+00 0. -1.
</event>
<event>
 8    1  0.2433390E-006  0.9118800E+02  0.7816164E-02  0.1184000E+00
        -11   -1    0    0    0    0  0.00000000000E+00  0.00000000000E+00  0.45593999997E+02  0.45594000000E+02  0.51100000000E-03 0.  1.
         11   -1    0    0    0    0 -0.00000000000E+00 -0.00000000000E+00 -0.45593999997E+02  0.45594000000E+02  0.51100000000E-03 0. -1.
         23    2    1    2    0    0  0.00000000000E+00  0.71054273576E-14  0.00000000000E+00  0.91188000000E+02  0.91188000000E+02 0.  0.
    9900012    2    3    3    0    0  0.18513622905E+02 -0.25681238933E+02 -0.18801586297E+02  0.54367083207E+02  0.39999997787E+02 0.  0.
        -12    1    3    3    0    0 -0.18513622905E+02  0.25681238933E+02  0.18801586297E+02  0.36820916793E+02  0.00000000000E+00 0.  1.
         11    1    4    4    0    0  0.10676807013E+02 -0.22113094984E+02 -0.19852263981E+02  0.31576820029E+02  0.51100000000E-03 0. -1.
        -11    1    4    4    0    0  0.59530660166E+01  0.81874608914E+01 -0.23826024939E+01  0.10399533920E+02  0.51100000000E-03 0.  1.
        -12    1    4    4    0    0  0.18837498752E+01 -0.11755604841E+02  0.34332801779E+01  0.12390729258E+02  0.00000000000E+00 0.  1.
</event>
<event>
 8    1  0.2433390E-006  0.9118800E+02  0.7816164E-02  0.1184000E+00
        -11   -1    0    0    0    0  0.00000000000E+00  0.00000000000E+00  0.45593999997E+02  0.45594000000E+02  0.51100000000E-03 0.  1.
         11   -1    0    0    0    0 -0.00000000000E+00 -0.00000000000E+00 -0.45593999997E+02  0.45594000000E+02  0.51100000000E-03 0. -1.
         23    2    1    2    0    0  0.00000000000E+00  0.00000000000E+00  0.35527136788E-14  0.91188000000E+02  0.91188000000E+02 0.  0.
    9900012    2    3    3    0    0  0.17021386369E+02  0.19377612505E+02 -0.26278537341E+02  0.54367068655E+02  0.39999964614E+02 0.  0.
        -12    1    3    3    0    0 -0.17021386369E+02 -0.19377612505E+02  0.26278537341E+02  0.36820931345E+02  0.00000000000E+00 0.  1.
         11    1    4    4    0    0 -0.18441377196E+01 -0.10678964706E+01 -0.11554718309E+02  0.11749585621E+02  0.51100000000E-03 0. -1.
        -11    1    4    4    0    0  0.64230439448E+01  0.70898299803E+01  0.86933342541E+01  0.12926532535E+02  0.51100000000E-03 0.  1.
        -12    1    4    4    0    0  0.12442480144E+02  0.13355678995E+02 -0.23417153286E+02  0.29690950499E+02  0.00000000000E+00 0.  1.
</event>
<event>
 8    1  0.2433390E-006  0.9118800E+02  0.7816164E-02  0.1184000E+00
        -11   -1    0    0    0    0  0.00000000000E+00  0.00000000000E+00  0.45593999997E+02  0.45594000000E+02  0.51100000000E-03 0.  1.
         11   -1    0    0    0    0 -0.00000000000E+00 -0.00000000000E+00 -0.45593999997E+02  0.45594000000E+02  0.51100000000E-03 0. -1.
         23    2    1    2    0    0 -0.35527136788E-14 -0.35527136788E-14 -0.17763568394E-14  0.91188000000E+02  0.91188000000E+02 0.  0.
    9900012    2    3    3    0    0  0.28606253475E+02  0.20257054368E+02  0.11274496508E+02  0.54367078488E+02  0.39999987028E+02 0.  0.
         12    1    3    3    0    0 -0.28606253475E+02 -0.20257054368E+02 -0.11274496508E+02  0.36820921512E+02  0.00000000000E+00 0. -1.
         11    1    4    4    0    0  0.14745304613E+02  0.72637712334E+01 -0.58298803764E+01  0.17440581588E+02  0.51100000000E-03 0. -1.
        -11    1    4    4    0    0  0.12257516252E+02 -0.49697244571E+01  0.19487386094E+01  0.13369459536E+02  0.51100000000E-03 0.  1.
        -12    1    4    4    0    0  0.16034326101E+01  0.17963007591E+02  0.15155638275E+02  0.23557037364E+02  0.00000000000E+00 0.  1.
</event>
<event>
 8    1  0.2433390E-006  0.9118800E+02  0.7816164E-02  0.1184000E+00
        -11   -1    0    0    0    0  0.00000000000E+00  0.00000000000E+00  0.45593999997E+02  0.45594000000E+02  0.51100000000E-03 0.  1.
         11   -1    0    0    0    0 -0.00000000000E+00 -0.00000000000E+00 -0.45593999997E+02  0.45594000000E+02  0.51100000000E-03 0. -1.
         23    2    1    2    0    0 -0.17763568394E-14  0.35527136788E-14  0.00000000000E+00  0.91188000000E+02  0.91188000000E+02 0.  0.
    9900012    2    3    3    0    0  0.95722822595E+01 -0.28878070461E+02 -0.20741477189E+02  0.54367076367E+02  0.39999982194E+02 0.  0.
         12    1    3    3    0    0 -0.95722822595E+01  0.28878070461E+02  0.20741477189E+02  0.36820923633E+02  0.00000000000E+00 0. -1.
         11    1    4    4    0    0  0.10326220525E+02 -0.27053641351E+01 -0.83654904689E+01  0.13562125810E+02  0.51100000000E-03 0. -1.
        -11    1    4    4    0    0  0.13530255424E+02 -0.80485357950E+01 -0.61653188158E+01  0.16907332630E+02  0.51100000000E-03 0.  1.
        -12    1    4    4    0    0 -0.14284193690E+02 -0.18124170531E+02 -0.62106679042E+01  0.23897617928E+02  0.00000000000E+00 0.  1.
</event>
<event>
 8    1  0.2433390E-006  0.9118800E+02  0.7816164E-02  0.1184000E+00
        -11   -1    0    0    0    0  0.00000000000E+00  0.00000000000E+00  0.45593999997E+02  0.45594000000E+02  0.51100000000E-03 0. -1.
         11   -1    0    0    0    0 -0.00000000000E+00 -0.00000000000E+00 -0.45593999997E+02  0.45594000000E+02  0.51100000000E-03 0.  1.
         23    2    1    2    0    0  0.88817841970E-15  0.00000000000E+00 -0.66613381478E-15  0.91188000000E+02  0.91188000000E+02 0.  0.
    9900012    2    3    3    0    0 -0.69863596503E+01  0.36130008346E+02 -0.12626374791E+01  0.54367068757E+02  0.39999964845E+02 0.  0.
         12    1    3    3    0    0  0.69863596503E+01 -0.36130008346E+02  0.12626374791E+01  0.36820931243E+02  0.00000000000E+00 0. -1.
         11    1    4    4    0    0  0.17163495022E+01 -0.28606988873E+01 -0.43793675313E+01  0.55052987178E+01  0.51100000000E-03 0. -1.
        -11    1    4    4    0    0 -0.84753393488E+00  0.35060591050E+02  0.11310731716E+02  0.36849640578E+02  0.51100000000E-03 0.  1.
        -12    1    4    4    0    0 -0.78551752177E+01  0.39301161829E+01 -0.81940016638E+01  0.12012129461E+02  0.00000000000E+00 0.  1.
</event>
<event>
 8    1  0.2433390E-006  0.9118800E+02  0.7816164E-02  0.1184000E+00
        -11   -1    0    0    0    0  0.00000000000E+00  0.00000000000E+00  0.45593999997E+02  0.45594000000E+02  0.51100000000E-03 0.  1.
         11   -1    0    0    0    0 -0.00000000000E+00 -0.00000000000E+00 -0.45593999997E+02  0.45594000000E+02  0.51100000000E-03 0. -1.
         23    2    1    2    0    0  0.35527136788E-14  0.00000000000E+00  0.35527136788E-14  0.91188000000E+02  0.91188000000E+02 0.  0.
    9900012    2    3    3    0    0  0.25741945329E+02  0.16617376157E+02  0.20420445034E+02  0.54367088617E+02  0.40000010121E+02 0.  0.
        -12    1    3    3    0    0 -0.25741945329E+02 -0.16617376157E+02 -0.20420445034E+02  0.36820911383E+02  0.00000000000E+00 0.  1.
         11    1    4    4    0    0  0.54631338663E+01  0.39344669534E+01 -0.79161667520E+01  0.10391898679E+02  0.51100000000E-03 0. -1.
        -11    1    4    4    0    0 -0.11773924065E+01  0.22776958425E+01  0.17664981164E+02  0.17850089944E+02  0.51100000000E-03 0.  1.
         12    1    4    4    0    0  0.21456203869E+02  0.10405213361E+02  0.10671630622E+02  0.26125099994E+02  0.00000000000E+00 0. -1.
</event>
<event>
 8    1  0.2433390E-006  0.9118800E+02  0.7816164E-02  0.1184000E+00
        -11   -1    0    0    0    0  0.00000000000E+00  0.00000000000E+00  0.45593999997E+02  0.45594000000E+02  0.51100000000E-03 0.  1.
         11   -1    0    0    0    0 -0.00000000000E+00 -0.00000000000E+00 -0.45593999997E+02  0.45594000000E+02  0.51100000000E-03 0. -1.
         23    2    1    2    0    0  0.00000000000E+00  0.00000000000E+00  0.00000000000E+00  0.91188000000E+02  0.91188000000E+02 0.  0.
    9900012    2    3    3    0    0  0.54375009187E+01 -0.34395242646E+02 -0.11965771446E+02  0.54367098067E+02  0.40000031662E+02 0.  0.
        -12    1    3    3    0    0 -0.54375009187E+01  0.34395242646E+02  0.11965771446E+02  0.36820901933E+02  0.00000000000E+00 0.  1.
         11    1    4    4    0    0  0.17343766046E+01 -0.19670056758E+02 -0.18974021280E+02  0.27384898737E+02  0.51100000000E-03 0. -1.
        -11    1    4    4    0    0  0.42503172349E+01  0.48639671927E+01  0.17433428843E+01  0.66904871364E+01  0.51100000000E-03 0.  1.
         12    1    4    4    0    0 -0.54719292086E+00 -0.19589153081E+02  0.52649069501E+01  0.20291712193E+02  0.00000000000E+00 0. -1.
</event>
<event>
 8    1  0.2433390E-006  0.9118800E+02  0.7816164E-02  0.1184000E+00
        -11   -1    0    0    0    0  0.00000000000E+00  0.00000000000E+00  0.45593999997E+02  0.45594000000E+02  0.51100000000E-03 0.  1.
         11   -1    0    0    0    0 -0.00000000000E+00 -0.00000000000E+00 -0.45593999997E+02  0.45594000000E+02  0.51100000000E-03 0. -1.
         23    2    1    2    0    0  0.00000000000E+00 -0.71054273576E-14  0.00000000000E+00  0.91188000000E+02  0.91188000000E+02 0.  0.
    9900012    2    3    3    0    0  0.64956914340E+01 -0.27696929361E+02 -0.23376591638E+02  0.54367096429E+02  0.40000027928E+02 0.  0.
        -12    1    3    3    0    0 -0.64956914340E+01  0.27696929361E+02  0.23376591638E+02  0.36820903571E+02  0.00000000000E+00 0.  1.
         11    1    4    4    0    0  0.10156593914E+02 -0.12623291791E+02 -0.87394912267E+01  0.18408764292E+02  0.51100000000E-03 0. -1.
        -11    1    4    4    0    0  0.10209934920E+01  0.84771492325E+01 -0.17831342066E+01  0.87226174214E+01  0.51100000000E-03 0.  1.
         12    1    4    4    0    0 -0.46818959718E+01 -0.23550786802E+02 -0.12853966204E+02  0.27235714716E+02  0.00000000000E+00 0. -1.
</event>
<event>
 8    1  0.2433390E-006  0.9118800E+02  0.7816164E-02  0.1184000E+00
        -11   -1    0    0    0    0  0.00000000000E+00  0.00000000000E+00  0.45593999997E+02  0.45594000000E+02  0.51100000000E-03 0. -1.
         11   -1    0    0    0    0 -0.00000000000E+00 -0.00000000000E+00 -0.45593999997E+02  0.45594000000E+02  0.51100000000E-03 0.  1.
         23    2    1    2    0    0 -0.33306690739E-15 -0.35527136788E-14  0.00000000000E+00  0.91188000000E+02  0.91188000000E+02 0.  0.
    9900012    2    3    3    0    0 -0.53694357007E+00  0.31065229490E+02 -0.19759627457E+02  0.54367086528E+02  0.40000005359E+02 0.  0.
         12    1    3    3    0    0  0.53694357007E+00 -0.31065229490E+02  0.19759627457E+02  0.36820913472E+02  0.00000000000E+00 0. -1.
         11    1    4    4    0    0  0.37550645512E+01 -0.37695404020E+01 -0.46995368766E+01  0.70989852614E+01  0.51100000000E-03 0. -1.
        -11    1    4    4    0    0  0.11581634157E+02  0.19483762691E+02 -0.64423433942E+01  0.23563850429E+02  0.51100000000E-03 0.  1.
        -12    1    4    4    0    0 -0.15873642278E+02  0.15351007201E+02 -0.86177471858E+01  0.23704250838E+02  0.00000000000E+00 0.  1.
</event>
<event>
 8    1  0.2433390E-006  0.9118800E+02  0.7816164E-02  0.1184000E+00
        -11   -1    0    0    0    0  0.00000000000E+00  0.00000000000E+00  0.45593999997E+02  0.45594000000E+02  0.51100000000E-03 0.  1.
         11   -1    0    0    0    0 -0.00000000000E+00 -0.00000000000E+00 -0.45593999997E+02  0.45594000000E+02  0.51100000000E-03 0. -1.
         23    2    1    2    0    0  0.35527136788E-14 -0.11102230246E-14  0.00000000000E+00  0.91188000000E+02  0.91188000000E+02 0.  0.
    9900012    2    3    3    0    0 -0.31453036987E+02 -0.66595227039E+00 -0.19132246883E+02  0.54367083405E+02  0.39999998239E+02 0.  0.
        -12    1    3    3    0    0  0.31453036987E+02  0.66595227039E+00  0.19132246883E+02  0.36820916595E+02  0.00000000000E+00 0.  1.
         11    1    4    4    0    0 -0.96803065088E+01 -0.75343925321E+01 -0.17093820858E+02  0.21039822165E+02  0.51100000000E-03 0. -1.
        -11    1    4    4    0    0 -0.11680598686E+02 -0.30294756519E+01  0.92765604075E+01  0.15220666268E+02  0.51100000000E-03 0.  1.
         12    1    4    4    0    0 -0.10092131792E+02  0.98979159136E+01 -0.11314986432E+02  0.18106594972E+02  0.00000000000E+00 0. -1.
</event>
<event>
 8    1  0.2433390E-006  0.9118800E+02  0.7816164E-02  0.1184000E+00
        -11   -1    0    0    0    0  0.00000000000E+00  0.00000000000E+00  0.45593999997E+02  0.45594000000E+02  0.51100000000E-03 0. -1.
         11   -1    0    0    0    0 -0.00000000000E+00 -0.00000000000E+00 -0.45593999997E+02  0.45594000000E+02  0.51100000000E-03 0.  1.
         23    2    1    2    0    0 -0.17763568394E-14 -0.17763568394E-14 -0.35527136788E-14  0.91188000000E+02  0.91188000000E+02 0.  0.
    9900012    2    3    3    0    0 -0.12563170906E+02  0.13416681806E+02 -0.31905134180E+02  0.54367106462E+02  0.40000050801E+02 0.  0.
         12    1    3    3    0    0  0.12563170906E+02 -0.13416681806E+02  0.31905134180E+02  0.36820893538E+02  0.00000000000E+00 0. -1.
         11    1    4    4    0    0  0.67536130797E+00 -0.11345229037E+02 -0.13338989509E+02  0.17524239675E+02  0.51100000000E-03 0. -1.
        -11    1    4    4    0    0 -0.78938200646E+01  0.12694015748E+02 -0.18316513836E+02  0.23642020015E+02  0.51100000000E-03 0.  1.
         12    1    4    4    0    0 -0.53447121490E+01  0.12067895094E+02 -0.24963083609E+00  0.13200846772E+02  0.00000000000E+00 0. -1.
</event>
<event>
 8    1  0.2433390E-006  0.9118800E+02  0.7816164E-02  0.1184000E+00
        -11   -1    0    0    0    0  0.00000000000E+00  0.00000000000E+00  0.45593999997E+02  0.45594000000E+02  0.51100000000E-03 0. -1.
         11   -1    0    0    0    0 -0.00000000000E+00 -0.00000000000E+00 -0.45593999997E+02  0.45594000000E+02  0.51100000000E-03 0.  1.
         23    2    1    2    0    0  0.00000000000E+00 -0.17763568394E-14 -0.71054273576E-14  0.91188000000E+02  0.91188000000E+02 0.  0.
    9900012    2    3    3    0    0  0.43583604460E+01  0.11151014281E+02  0.34820111481E+02  0.54367074036E+02  0.39999976880E+02 0.  0.
        -12    1    3    3    0    0 -0.43583604460E+01 -0.11151014281E+02 -0.34820111481E+02  0.36820925964E+02  0.00000000000E+00 0.  1.
         11    1    4    4    0    0  0.13649662912E+02  0.11914947794E+02  0.34148906952E+02  0.38657821004E+02  0.51100000000E-03 0. -1.
        -11    1    4    4    0    0  0.31097972988E+01 -0.50241853912E+00 -0.70875768045E+00  0.32288699787E+01  0.51100000000E-03 0.  1.
         12    1    4    4    0    0 -0.12401099765E+02 -0.26151497400E+00  0.13799622100E+01  0.12480383053E+02  0.00000000000E+00 0. -1.
</event>
<event>
 8    1  0.2433390E-006  0.9118800E+02  0.7816164E-02  0.1184000E+00
        -11   -1    0    0    0    0  0.00000000000E+00  0.00000000000E+00  0.45593999997E+02  0.45594000000E+02  0.51100000000E-03 0. -1.
         11   -1    0    0    0    0 -0.00000000000E+00 -0.00000000000E+00 -0.45593999997E+02  0.45594000000E+02  0.51100000000E-03 0.  1.
         23    2    1    2    0    0 -0.17763568394E-14  0.00000000000E+00  0.00000000000E+00  0.91188000000E+02  0.91188000000E+02 0.  0.
    9900012    2    3    3    0    0  0.14760859480E+02 -0.32677466216E+02 -0.83713676998E+01  0.54367087898E+02  0.40000008481E+02 0.  0.
         12    1    3    3    0    0 -0.14760859480E+02  0.32677466216E+02  0.83713676998E+01  0.36820912102E+02  0.00000000000E+00 0. -1.
         11    1    4    4    0    0 -0.31250197484E+01  0.13592039806E+01  0.15134304991E+01  0.37287606555E+01  0.51100000000E-03 0. -1.
        -11    1    4    4    0    0  0.21871604352E+02 -0.23876597925E+02  0.43827077436E+01  0.32675176095E+02  0.51100000000E-03 0.  1.
        -12    1    4    4    0    0 -0.39857251238E+01 -0.10160072272E+02 -0.14267505943E+02  0.17963151147E+02  0.00000000000E+00 0.  1.
</event>
<event>
 8    1  0.2433390E-006  0.9118800E+02  0.7816164E-02  0.1184000E+00
        -11   -1    0    0    0    0  0.00000000000E+00  0.00000000000E+00  0.45593999997E+02  0.45594000000E+02  0.51100000000E-03 0.  1.
         11   -1    0    0    0    0 -0.00000000000E+00 -0.00000000000E+00 -0.45593999997E+02  0.45594000000E+02  0.51100000000E-03 0. -1.
         23    2    1    2    0    0  0.00000000000E+00  0.35527136788E-14 -0.35527136788E-14  0.91188000000E+02  0.91188000000E+02 0.  0.
    9900012    2    3    3    0    0 -0.88004096047E+01 -0.28975545659E+02 -0.20946474707E+02  0.54367024211E+02  0.39999863292E+02 0.  0.
         12    1    3    3    0    0  0.88004096047E+01  0.28975545659E+02  0.20946474707E+02  0.36820975789E+02  0.00000000000E+00 0. -1.
         11    1    4    4    0    0 -0.11057458265E+02 -0.77255354373E+00 -0.15939872855E+02  0.19415039767E+02  0.51100000000E-03 0. -1.
        -11    1    4    4    0    0  0.24260190731E+01 -0.29210445131E+02 -0.91330699000E+01  0.30700955024E+02  0.51100000000E-03 0.  1.
         12    1    4    4    0    0 -0.16897041292E+00  0.10074530166E+01  0.41264680475E+01  0.42510294198E+01  0.00000000000E+00 0. -1.
</event>
<event>
 8    1  0.2433390E-006  0.9118800E+02  0.7816164E-02  0.1184000E+00
        -11   -1    0    0    0    0  0.00000000000E+00  0.00000000000E+00  0.45593999997E+02  0.45594000000E+02  0.51100000000E-03 0. -1.
         11   -1    0    0    0    0 -0.00000000000E+00 -0.00000000000E+00 -0.45593999997E+02  0.45594000000E+02  0.51100000000E-03 0.  1.
         23    2    1    2    0    0  0.00000000000E+00  0.00000000000E+00  0.00000000000E+00  0.91188000000E+02  0.91188000000E+02 0.  0.
    9900012    2    3    3    0    0 -0.35924145070E+02 -0.69252158339E+01 -0.41565900341E+01  0.54367081298E+02  0.39999993436E+02 0.  0.
         12    1    3    3    0    0  0.35924145070E+02  0.69252158339E+01  0.41565900341E+01  0.36820918702E+02  0.00000000000E+00 0. -1.
         11    1    4    4    0    0 -0.87057930212E+01 -0.81157042677E+01  0.54647533180E+01  0.13096526905E+02  0.51100000000E-03 0. -1.
        -11    1    4    4    0    0 -0.27259877514E+02 -0.12897496693E+01 -0.17894183457E+02  0.32633819546E+02  0.51100000000E-03 0.  1.
        -12    1    4    4    0    0  0.41525465720E-01  0.24802381031E+01  0.82728401053E+01  0.86367348472E+01  0.00000000000E+00 0.  1.
</event>
<event>
 8    1  0.2433390E-006  0.9118800E+02  0.7816164E-02  0.1184000E+00
        -11   -1    0    0    0    0  0.00000000000E+00  0.00000000000E+00  0.45593999997E+02  0.45594000000E+02  0.51100000000E-03 0.  1.
         11   -1    0    0    0    0 -0.00000000000E+00 -0.00000000000E+00 -0.45593999997E+02  0.45594000000E+02  0.51100000000E-03 0. -1.
         23    2    1    2    0    0  0.00000000000E+00 -0.10658141036E-13  0.00000000000E+00  0.91188000000E+02  0.91188000000E+02 0.  0.
    9900012    2    3    3    0    0  0.22286011396E+02  0.27309953240E+02  0.10643272795E+02  0.54367094176E+02  0.40000022793E+02 0.  0.
         12    1    3    3    0    0 -0.22286011396E+02 -0.27309953240E+02 -0.10643272795E+02  0.36820905824E+02  0.00000000000E+00 0. -1.
         11    1    4    4    0    0 -0.19231894216E+01  0.10491547475E+02 -0.11150713028E+02  0.15430801252E+02  0.51100000000E-03 0. -1.
        -11    1    4    4    0    0  0.10425200220E+02  0.10694799244E+02  0.37125161927E+01  0.15389811800E+02  0.51100000000E-03 0.  1.
         12    1    4    4    0    0  0.13784000598E+02  0.61236065208E+01  0.18081469631E+02  0.23546481124E+02  0.00000000000E+00 0. -1.
</event>
<event>
 8    1  0.2433390E-006  0.9118800E+02  0.7816164E-02  0.1184000E+00
        -11   -1    0    0    0    0  0.00000000000E+00  0.00000000000E+00  0.45593999997E+02  0.45594000000E+02  0.51100000000E-03 0.  1.
         11   -1    0    0    0    0 -0.00000000000E+00 -0.00000000000E+00 -0.45593999997E+02  0.45594000000E+02  0.51100000000E-03 0. -1.
         23    2    1    2    0    0 -0.17763568394E-14 -0.35527136788E-14  0.00000000000E+00  0.91188000000E+02  0.91188000000E+02 0.  0.
    9900012    2    3    3    0    0  0.92744294709E+01  0.22089759424E+02 -0.27960796974E+02  0.54367099945E+02  0.40000035945E+02 0.  0.
         12    1    3    3    0    0 -0.92744294709E+01 -0.22089759424E+02  0.27960796974E+02  0.36820900055E+02  0.00000000000E+00 0. -1.
         11    1    4    4    0    0  0.36746639826E+01 -0.37670863440E+01 -0.20783304253E+02  0.21439212458E+02  0.51100000000E-03 0. -1.
        -11    1    4    4    0    0  0.14027513003E+00  0.40405621954E+01  0.57187670206E+01  0.70035788326E+01  0.51100000000E-03 0.  1.
        -12    1    4    4    0    0  0.54594903583E+01  0.21816283573E+02 -0.12896259742E+02  0.25924308655E+02  0.00000000000E+00 0.  1.
</event>
<event>
 8    1  0.2433390E-006  0.9118800E+02  0.7816164E-02  0.1184000E+00
        -11   -1    0    0    0    0  0.00000000000E+00  0.00000000000E+00  0.45593999997E+02  0.45594000000E+02  0.51100000000E-03 0.  1.
         11   -1    0    0    0    0 -0.00000000000E+00 -0.00000000000E+00 -0.45593999997E+02  0.45594000000E+02  0.51100000000E-03 0. -1.
         23    2    1    2    0    0  0.00000000000E+00 -0.17763568394E-14 -0.71054273576E-14  0.91188000000E+02  0.91188000000E+02 0.  0.
    9900012    2    3    3    0    0 -0.40627522746E+01 -0.10781190262E+02  0.34971971772E+02  0.54367097931E+02  0.40000031354E+02 0.  0.
         12    1    3    3    0    0  0.40627522746E+01  0.10781190262E+02 -0.34971971772E+02  0.36820902069E+02  0.00000000000E+00 0. -1.
         11    1    4    4    0    0 -0.62914315803E+01  0.36363321237E+01 -0.44798698982E+00  0.72805024035E+01  0.51100000000E-03 0. -1.
        -11    1    4    4    0    0  0.41067130142E+01  0.30867480381E-01  0.31812789624E+02  0.32076777091E+02  0.51100000000E-03 0.  1.
         12    1    4    4    0    0 -0.18780337085E+01 -0.14448389866E+02  0.36071691380E+01  0.15009818437E+02  0.00000000000E+00 0. -1.
</event>
<event>
 8    1  0.2433390E-006  0.9118800E+02  0.7816164E-02  0.1184000E+00
        -11   -1    0    0    0    0  0.00000000000E+00  0.00000000000E+00  0.45593999997E+02  0.45594000000E+02  0.51100000000E-03 0.  1.
         11   -1    0    0    0    0 -0.00000000000E+00 -0.00000000000E+00 -0.45593999997E+02  0.45594000000E+02  0.51100000000E-03 0. -1.
         23    2    1    2    0    0  0.00000000000E+00  0.35527136788E-14  0.00000000000E+00  0.91188000000E+02  0.91188000000E+02 0.  0.
    9900012    2    3    3    0    0  0.30673012396E+02 -0.13223260885E+02  0.15494877872E+02  0.54367088032E+02  0.40000008788E+02 0.  0.
         12    1    3    3    0    0 -0.30673012396E+02  0.13223260885E+02 -0.15494877872E+02  0.36820911968E+02  0.00000000000E+00 0. -1.
         11    1    4    4    0    0 -0.38366896144E+01 -0.50275940885E+01 -0.32955962476E+01  0.71314686008E+01  0.51100000000E-03 0. -1.
        -11    1    4    4    0    0 -0.27913387945E+01  0.81519682290E+00  0.62014696859E+01  0.68494046933E+01  0.51100000000E-03 0.  1.
        -12    1    4    4    0    0  0.37301040804E+02 -0.90108636193E+01  0.12589004434E+02  0.40386214738E+02  0.00000000000E+00 0.  1.
</event>
<event>
 8    1  0.2433390E-006  0.9118800E+02  0.7816164E-02  0.1184000E+00
        -11   -1    0    0    0    0  0.00000000000E+00  0.00000000000E+00  0.45593999997E+02  0.45594000000E+02  0.51100000000E-03 0.  1.
         11   -1    0    0    0    0 -0.00000000000E+00 -0.00000000000E+00 -0.45593999997E+02  0.45594000000E+02  0.51100000000E-03 0. -1.
         23    2    1    2    0    0  0.00000000000E+00  0.00000000000E+00 -0.17763568394E-14  0.91188000000E+02  0.91188000000E+02 0.  0.
    9900012    2    3    3    0    0 -0.11360411322E+02  0.33359468954E+02 -0.10670895628E+02  0.54367066717E+02  0.39999960195E+02 0.  0.
         12    1    3    3    0    0  0.11360411322E+02 -0.33359468954E+02  0.10670895628E+02  0.36820933283E+02  0.00000000000E+00 0. -1.
         11    1    4    4    0    0 -0.12207824300E+02  0.91405557558E+01 -0.19252516616E+01  0.15371640377E+02  0.51100000000E-03 0. -1.
        -11    1    4    4    0    0  0.14109194156E+01  0.27598815595E+02  0.20093102448E+01  0.27707808354E+02  0.51100000000E-03 0.  1.
         12    1    4    4    0    0 -0.56350643692E+00 -0.33799023964E+01 -0.10754954211E+02  0.11287617986E+02  0.00000000000E+00 0. -1.
</event>
<event>
 8    1  0.2433390E-006  0.9118800E+02  0.7816164E-02  0.1184000E+00
        -11   -1    0    0    0    0  0.00000000000E+00  0.00000000000E+00  0.45593999997E+02  0.45594000000E+02  0.51100000000E-03 0.  1.
         11   -1    0    0    0    0 -0.00000000000E+00 -0.00000000000E+00 -0.45593999997E+02  0.45594000000E+02  0.51100000000E-03 0. -1.
         23    2    1    2    0    0  0.00000000000E+00  0.17763568394E-14  0.00000000000E+00  0.91188000000E+02  0.91188000000E+02 0.  0.
    9900012    2    3    3    0    0  0.87385716556E+01 -0.13089324512E+02  0.33287831659E+02  0.54367179975E+02  0.40000218387E+02 0.  0.
         12    1    3    3    0    0 -0.87385716556E+01  0.13089324512E+02 -0.33287831659E+02  0.36820820025E+02  0.00000000000E+00 0. -1.
         11    1    4    4    0    0  0.39933487026E+00 -0.16006829455E+02  0.12067968141E+02  0.20050284608E+02  0.51100000000E-03 0.  1.
        -11    1    4    4    0    0  0.12675552080E+02  0.54209802331E+01  0.24653020542E+02  0.28245850480E+02  0.51100000000E-03 0. -1.
         12    1    4    4    0    0 -0.43363152950E+01 -0.25034752901E+01 -0.34331570237E+01  0.60710448866E+01  0.00000000000E+00 0. -1.
</event>
<event>
 8    1  0.2433390E-006  0.9118800E+02  0.7816164E-02  0.1184000E+00
        -11   -1    0    0    0    0  0.00000000000E+00  0.00000000000E+00  0.45593999997E+02  0.45594000000E+02  0.51100000000E-03 0.  1.
         11   -1    0    0    0    0 -0.00000000000E+00 -0.00000000000E+00 -0.45593999997E+02  0.45594000000E+02  0.51100000000E-03 0. -1.
         23    2    1    2    0    0  0.00000000000E+00  0.00000000000E+00  0.00000000000E+00  0.91188000000E+02  0.91188000000E+02 0.  0.
    9900012    2    3    3    0    0 -0.14360264540E+02 -0.25402916250E+02 -0.22455618238E+02  0.54367080102E+02  0.39999990709E+02 0.  0.
        -12    1    3    3    0    0  0.14360264540E+02  0.25402916250E+02  0.22455618238E+02  0.36820919898E+02  0.00000000000E+00 0.  1.
         11    1    4    4    0    0 -0.87370568841E+01 -0.13127651391E+02 -0.23550591792E+02  0.28342578712E+02  0.51100000000E-03 0. -1.
        -11    1    4    4    0    0 -0.11868537597E+02  0.39366472826E+00  0.64986713306E+00  0.11892833311E+02  0.51100000000E-03 0.  1.
         12    1    4    4    0    0  0.62453299415E+01 -0.12668929587E+02  0.44510642120E+00  0.14131668079E+02  0.00000000000E+00 0. -1.
</event>
<event>
 8    1  0.2433390E-006  0.9118800E+02  0.7816164E-02  0.1184000E+00
        -11   -1    0    0    0    0  0.00000000000E+00  0.00000000000E+00  0.45593999997E+02  0.45594000000E+02  0.51100000000E-03 0.  1.
         11   -1    0    0    0    0 -0.00000000000E+00 -0.00000000000E+00 -0.45593999997E+02  0.45594000000E+02  0.51100000000E-03 0. -1.
         23    2    1    2    0    0  0.00000000000E+00  0.00000000000E+00  0.00000000000E+00  0.91188000000E+02  0.91188000000E+02 0.  0.
    9900012    2    3    3    0    0  0.16993607793E+02  0.26878917610E+02  0.18561279901E+02  0.54367081634E+02  0.39999994201E+02 0.  0.
         12    1    3    3    0    0 -0.16993607793E+02 -0.26878917610E+02 -0.18561279901E+02  0.36820918366E+02  0.00000000000E+00 0. -1.
         11    1    4    4    0    0  0.10510265523E+02  0.15975573440E+02 -0.29113270408E+01  0.19343227588E+02  0.51100000000E-03 0. -1.
        -11    1    4    4    0    0  0.57535052413E+01  0.55088432619E+01  0.26464872686E+02  0.27637649379E+02  0.51100000000E-03 0.  1.
         12    1    4    4    0    0  0.72983702861E+00  0.53945009082E+01 -0.49922657433E+01  0.73862046674E+01  0.00000000000E+00 0. -1.
</event>
<event>
 8    1  0.2433390E-006  0.9118800E+02  0.7816164E-02  0.1184000E+00
        -11   -1    0    0    0    0  0.00000000000E+00  0.00000000000E+00  0.45593999997E+02  0.45594000000E+02  0.51100000000E-03 0.  1.
         11   -1    0    0    0    0 -0.00000000000E+00 -0.00000000000E+00 -0.45593999997E+02  0.45594000000E+02  0.51100000000E-03 0. -1.
         23    2    1    2    0    0 -0.35527136788E-14  0.00000000000E+00  0.11102230246E-15  0.91188000000E+02  0.91188000000E+02 0.  0.
    9900012    2    3    3    0    0 -0.31753841385E+02  0.18627641274E+02 -0.69523207412E+00  0.54367098194E+02  0.40000031953E+02 0.  0.
         12    1    3    3    0    0  0.31753841385E+02 -0.18627641274E+02  0.69523207412E+00  0.36820901806E+02  0.00000000000E+00 0. -1.
         11    1    4    4    0    0 -0.16255731638E+02  0.16743027542E+01 -0.10867666610E+02  0.19625449768E+02  0.51100000000E-03 0. -1.
        -11    1    4    4    0    0 -0.11040646713E+02 -0.20594342898E+01  0.10261705889E+02  0.15213144233E+02  0.51100000000E-03 0.  1.
         12    1    4    4    0    0 -0.44574630345E+01  0.19012772810E+02 -0.89271352593E-01  0.19528504193E+02  0.00000000000E+00 0. -1.
</event>
<event>
 8    1  0.2433390E-006  0.9118800E+02  0.7816164E-02  0.1184000E+00
        -11   -1    0    0    0    0  0.00000000000E+00  0.00000000000E+00  0.45593999997E+02  0.45594000000E+02  0.51100000000E-03 0.  1.
         11   -1    0    0    0    0 -0.00000000000E+00 -0.00000000000E+00 -0.45593999997E+02  0.45594000000E+02  0.51100000000E-03 0. -1.
         23    2    1    2    0    0 -0.35527136788E-14 -0.35527136788E-14  0.35527136788E-14  0.91188000000E+02  0.91188000000E+02 0.  0.
    9900012    2    3    3    0    0 -0.19701267936E+02 -0.25995843385E+02  0.17083783039E+02  0.54367089168E+02  0.40000011377E+02 0.  0.
         12    1    3    3    0    0  0.19701267936E+02  0.25995843385E+02 -0.17083783039E+02  0.36820910832E+02  0.00000000000E+00 0. -1.
         11    1    4    4    0    0  0.67839670084E+01 -0.74381042130E+01 -0.31482203047E+00  0.10072076044E+02  0.51100000000E-03 0. -1.
        -11    1    4    4    0    0 -0.22374788576E+02 -0.51598283530E+01  0.19499052147E+02  0.30124209987E+02  0.51100000000E-03 0.  1.
        -12    1    4    4    0    0 -0.41104463676E+01 -0.13397910819E+02 -0.21004470768E+01  0.14170803138E+02  0.00000000000E+00 0.  1.
</event>
<event>
 8    1  0.2433390E-006  0.9118800E+02  0.7816164E-02  0.1184000E+00
        -11   -1    0    0    0    0  0.00000000000E+00  0.00000000000E+00  0.45593999997E+02  0.45594000000E+02  0.51100000000E-03 0.  1.
         11   -1    0    0    0    0 -0.00000000000E+00 -0.00000000000E+00 -0.45593999997E+02  0.45594000000E+02  0.51100000000E-03 0. -1.
         23    2    1    2    0    0  0.00000000000E+00  0.15543122345E-14  0.00000000000E+00  0.91188000000E+02  0.91188000000E+02 0.  0.
    9900012    2    3    3    0    0 -0.25573638628E+02  0.78663545668E+00 -0.26479224062E+02  0.54367094322E+02  0.40000023126E+02 0.  0.
        -12    1    3    3    0    0  0.25573638628E+02 -0.78663545668E+00  0.26479224062E+02  0.36820905678E+02  0.00000000000E+00 0.  1.
         11    1    4    4    0    0  0.16450254380E+01 -0.72905727568E+01  0.19444371219E+01  0.77226547116E+01  0.51100000000E-03 0.  1.
        -11    1    4    4    0    0  0.24841056865E+00  0.88412986578E+01 -0.10972390597E+02  0.14093389423E+02  0.51100000000E-03 0. -1.
         12    1    4    4    0    0 -0.27467074634E+02 -0.76409044438E+00 -0.17451270587E+02  0.32551050187E+02  0.00000000000E+00 0. -1.
</event>
<event>
 8    1  0.2433390E-006  0.9118800E+02  0.7816164E-02  0.1184000E+00
        -11   -1    0    0    0    0  0.00000000000E+00  0.00000000000E+00  0.45593999997E+02  0.45594000000E+02  0.51100000000E-03 0.  1.
         11   -1    0    0    0    0 -0.00000000000E+00 -0.00000000000E+00 -0.45593999997E+02  0.45594000000E+02  0.51100000000E-03 0. -1.
         23    2    1    2    0    0  0.00000000000E+00 -0.35527136788E-14 -0.88817841970E-15  0.91188000000E+02  0.91188000000E+02 0.  0.
    9900012    2    3    3    0    0  0.18305554409E+02 -0.31862179254E+02  0.23425595191E+01  0.54367090531E+02  0.40000014483E+02 0.  0.
         12    1    3    3    0    0 -0.18305554409E+02  0.31862179254E+02 -0.23425595191E+01  0.36820909469E+02  0.00000000000E+00 0. -1.
         11    1    4    4    0    0 -0.40289608945E+01 -0.13119632383E+01  0.37616636849E+01  0.56660292417E+01  0.51100000000E-03 0. -1.
        -11    1    4    4    0    0  0.63479326746E+01 -0.28766236061E+02 -0.91599839411E+01  0.30849601172E+02  0.51100000000E-03 0.  1.
        -12    1    4    4    0    0  0.15986582629E+02 -0.17839799543E+01  0.77408797753E+01  0.17851460118E+02  0.00000000000E+00 0.  1.
</event>
<event>
 8    1  0.2433390E-006  0.9118800E+02  0.7816164E-02  0.1184000E+00
        -11   -1    0    0    0    0  0.00000000000E+00  0.00000000000E+00  0.45593999997E+02  0.45594000000E+02  0.51100000000E-03 0.  1.
         11   -1    0    0    0    0 -0.00000000000E+00 -0.00000000000E+00 -0.45593999997E+02  0.45594000000E+02  0.51100000000E-03 0. -1.
         23    2    1    2    0    0  0.17763568394E-14  0.00000000000E+00  0.00000000000E+00  0.91188000000E+02  0.91188000000E+02 0.  0.
    9900012    2    3    3    0    0  0.62560582022E+01  0.33242130137E+02  0.14546549843E+02  0.54367087564E+02  0.40000007720E+02 0.  0.
        -12    1    3    3    0    0 -0.62560582022E+01 -0.33242130137E+02 -0.14546549843E+02  0.36820912436E+02  0.00000000000E+00 0.  1.
         11    1    4    4    0    0  0.10743202014E+02  0.19032379924E+02 -0.54532091720E+01  0.22525216217E+02  0.51100000000E-03 0. -1.
        -11    1    4    4    0    0 -0.84536401891E+01  0.17456162930E+02  0.13832439990E+02  0.23822637407E+02  0.51100000000E-03 0.  1.
        -12    1    4    4    0    0  0.39664963769E+01 -0.32464127168E+01  0.61673190246E+01  0.80192339402E+01  0.00000000000E+00 0.  1.
</event>
<event>
 8    1  0.2433390E-006  0.9118800E+02  0.7816164E-02  0.1184000E+00
        -11   -1    0    0    0    0  0.00000000000E+00  0.00000000000E+00  0.45593999997E+02  0.45594000000E+02  0.51100000000E-03 0.  1.
         11   -1    0    0    0    0 -0.00000000000E+00 -0.00000000000E+00 -0.45593999997E+02  0.45594000000E+02  0.51100000000E-03 0. -1.
         23    2    1    2    0    0 -0.35527136788E-14 -0.17763568394E-14  0.00000000000E+00  0.91188000000E+02  0.91188000000E+02 0.  0.
    9900012    2    3    3    0    0 -0.31310893971E+02 -0.93655179657E+01 -0.16961563477E+02  0.54367086871E+02  0.40000006140E+02 0.  0.
        -12    1    3    3    0    0  0.31310893971E+02  0.93655179657E+01  0.16961563477E+02  0.36820913129E+02  0.00000000000E+00 0.  1.
         11    1    4    4    0    0 -0.24248999796E+01 -0.40846701595E+00  0.11260809603E+01  0.27046337654E+01  0.51100000000E-03 0. -1.
        -11    1    4    4    0    0  0.90244416967E+01 -0.94540368954E+00 -0.43820190969E+00  0.90844018652E+01  0.51100000000E-03 0.  1.
         12    1    4    4    0    0 -0.37910435688E+02 -0.80116472602E+01 -0.17649442528E+02  0.42578051241E+02  0.00000000000E+00 0. -1.
</event>
<event>
 8    1  0.2433390E-006  0.9118800E+02  0.7816164E-02  0.1184000E+00
        -11   -1    0    0    0    0  0.00000000000E+00  0.00000000000E+00  0.45593999997E+02  0.45594000000E+02  0.51100000000E-03 0. -1.
         11   -1    0    0    0    0 -0.00000000000E+00 -0.00000000000E+00 -0.45593999997E+02  0.45594000000E+02  0.51100000000E-03 0.  1.
         23    2    1    2    0    0  0.00000000000E+00 -0.17763568394E-14  0.00000000000E+00  0.91188000000E+02  0.91188000000E+02 0.  0.
    9900012    2    3    3    0    0  0.96468330436E+01  0.86228390964E+01 -0.34472676288E+02  0.54367079964E+02  0.39999990394E+02 0.  0.
         12    1    3    3    0    0 -0.96468330436E+01 -0.86228390964E+01  0.34472676288E+02  0.36820920036E+02  0.00000000000E+00 0. -1.
         11    1    4    4    0    0 -0.61645243807E+01  0.42583337568E+01 -0.38196950085E+01  0.84098060289E+01  0.51100000000E-03 0. -1.
        -11    1    4    4    0    0  0.21613183179E+02  0.47902077220E+01 -0.32955598743E+02  0.39700721227E+02  0.51100000000E-03 0.  1.
        -12    1    4    4    0    0 -0.58018257550E+01 -0.42570238234E+00  0.23026174634E+01  0.62565527083E+01  0.00000000000E+00 0.  1.
</event>
<event>
 8    1  0.2433390E-006  0.9118800E+02  0.7816164E-02  0.1184000E+00
        -11   -1    0    0    0    0  0.00000000000E+00  0.00000000000E+00  0.45593999997E+02  0.45594000000E+02  0.51100000000E-03 0.  1.
         11   -1    0    0    0    0 -0.00000000000E+00 -0.00000000000E+00 -0.45593999997E+02  0.45594000000E+02  0.51100000000E-03 0. -1.
         23    2    1    2    0    0  0.00000000000E+00  0.00000000000E+00  0.00000000000E+00  0.91188000000E+02  0.91188000000E+02 0.  0.
    9900012    2    3    3    0    0 -0.11822824946E+02  0.24711489394E+02 -0.24603678064E+02  0.54367110928E+02  0.40000060983E+02 0.  0.
        -12    1    3    3    0    0  0.11822824946E+02 -0.24711489394E+02  0.24603678064E+02  0.36820889072E+02  0.00000000000E+00 0.  1.
         11    1    4    4    0    0 -0.17606495368E+01  0.11600933255E+02 -0.61578987862E+01  0.13251462444E+02  0.51100000000E-03 0. -1.
        -11    1    4    4    0    0 -0.60320276954E+01  0.23622674140E+02 -0.17094921831E+02  0.29776709763E+02  0.51100000000E-03 0.  1.
        -12    1    4    4    0    0 -0.40301477141E+01 -0.10512118001E+02 -0.13508574466E+01  0.11338938721E+02  0.00000000000E+00 0.  1.
</event>
<event>
 8    1  0.2433390E-006  0.9118800E+02  0.7816164E-02  0.1184000E+00
        -11   -1    0    0    0    0  0.00000000000E+00  0.00000000000E+00  0.45593999997E+02  0.45594000000E+02  0.51100000000E-03 0.  1.
         11   -1    0    0    0    0 -0.00000000000E+00 -0.00000000000E+00 -0.45593999997E+02  0.45594000000E+02  0.51100000000E-03 0. -1.
         23    2    1    2    0    0  0.00000000000E+00  0.00000000000E+00  0.00000000000E+00  0.91188000000E+02  0.91188000000E+02 0.  0.
    9900012    2    3    3    0    0  0.26586730163E+02  0.22860998523E+02  0.11238506909E+02  0.54367034345E+02  0.39999886397E+02 0.  0.
         12    1    3    3    0    0 -0.26586730163E+02 -0.22860998523E+02 -0.11238506909E+02  0.36820965655E+02  0.00000000000E+00 0. -1.
         11    1    4    4    0    0  0.93683499397E+01  0.23809137246E+01 -0.15450624089E+01  0.97888686203E+01  0.51100000000E-03 0. -1.
        -11    1    4    4    0    0  0.44129499000E+01  0.26465649717E+02  0.22024852531E+01  0.26921286807E+02  0.51100000000E-03 0.  1.
        -12    1    4    4    0    0  0.12805430323E+02 -0.59855649188E+01  0.10581084065E+02  0.17656878918E+02  0.00000000000E+00 0.  1.
</event>
<event>
 8    1  0.2433390E-006  0.9118800E+02  0.7816164E-02  0.1184000E+00
        -11   -1    0    0    0    0  0.00000000000E+00  0.00000000000E+00  0.45593999997E+02  0.45594000000E+02  0.51100000000E-03 0.  1.
         11   -1    0    0    0    0 -0.00000000000E+00 -0.00000000000E+00 -0.45593999997E+02  0.45594000000E+02  0.51100000000E-03 0. -1.
         23    2    1    2    0    0  0.17763568394E-14  0.00000000000E+00  0.35527136788E-14  0.91188000000E+02  0.91188000000E+02 0.  0.
    9900012    2    3    3    0    0 -0.53893371211E+01  0.22757217060E+02  0.28440201861E+02  0.54367068931E+02  0.39999965241E+02 0.  0.
        -12    1    3    3    0    0  0.53893371211E+01 -0.22757217060E+02 -0.28440201861E+02  0.36820931069E+02  0.00000000000E+00 0.  1.
         11    1    4    4    0    0  0.13982362159E+02  0.15443252471E+02  0.17496931377E+02  0.27205571237E+02  0.51100000000E-03 0. -1.
        -11    1    4    4    0    0 -0.52720940385E+01  0.27785152986E+01  0.10816813845E+02  0.12349841490E+02  0.51100000000E-03 0.  1.
         12    1    4    4    0    0 -0.14099605241E+02  0.45354492900E+01  0.12645663924E+00  0.14811656204E+02  0.00000000000E+00 0. -1.
</event>
<event>
 8    1  0.2433390E-006  0.9118800E+02  0.7816164E-02  0.1184000E+00
        -11   -1    0    0    0    0  0.00000000000E+00  0.00000000000E+00  0.45593999997E+02  0.45594000000E+02  0.51100000000E-03 0.  1.
         11   -1    0    0    0    0 -0.00000000000E+00 -0.00000000000E+00 -0.45593999997E+02  0.45594000000E+02  0.51100000000E-03 0. -1.
         23    2    1    2    0    0  0.17763568394E-14 -0.88817841970E-15 -0.71054273576E-14  0.91188000000E+02  0.91188000000E+02 0.  0.
    9900012    2    3    3    0    0  0.11575230309E+02  0.45321414179E+01  0.34659142260E+02  0.54367049377E+02  0.39999920665E+02 0.  0.
         12    1    3    3    0    0 -0.11575230309E+02 -0.45321414179E+01 -0.34659142260E+02  0.36820950623E+02  0.00000000000E+00 0. -1.
         11    1    4    4    0    0 -0.81405391853E+01  0.26684422315E+01  0.53676825614E+01  0.10109449961E+02  0.51100000000E-03 0. -1.
        -11    1    4    4    0    0 -0.27946838244E+01  0.96957130146E+00 -0.34309394988E+01  0.45300852412E+01  0.51100000000E-03 0.  1.
        -12    1    4    4    0    0  0.22510453319E+02  0.89412788494E+00  0.32722399198E+02  0.39727514175E+02  0.00000000000E+00 0.  1.
</event>
<event>
 8    1  0.2433390E-006  0.9118800E+02  0.7816164E-02  0.1184000E+00
        -11   -1    0    0    0    0  0.00000000000E+00  0.00000000000E+00  0.45593999997E+02  0.45594000000E+02  0.51100000000E-03 0. -1.
         11   -1    0    0    0    0 -0.00000000000E+00 -0.00000000000E+00 -0.45593999997E+02  0.45594000000E+02  0.51100000000E-03 0.  1.
         23    2    1    2    0    0  0.35527136788E-14  0.17763568394E-14 -0.17763568394E-14  0.91188000000E+02  0.91188000000E+02 0.  0.
    9900012    2    3    3    0    0 -0.30323274368E+02 -0.15129741033E+02  0.14400325779E+02  0.54367089981E+02  0.40000013230E+02 0.  0.
        -12    1    3    3    0    0  0.30323274368E+02  0.15129741033E+02 -0.14400325779E+02  0.36820910019E+02  0.00000000000E+00 0.  1.
         11    1    4    4    0    0  0.11334518651E+01 -0.15380571353E+02  0.64538597372E+01  0.16718223412E+02  0.51100000000E-03 0. -1.
        -11    1    4    4    0    0 -0.11105081686E+02 -0.58348091289E+01  0.10360831838E+02  0.16270054501E+02  0.51100000000E-03 0.  1.
        -12    1    4    4    0    0 -0.20351644547E+02  0.60856394493E+01 -0.24143657965E+01  0.21378812069E+02  0.00000000000E+00 0.  1.
</event>
<event>
 8    1  0.2433390E-006  0.9118800E+02  0.7816164E-02  0.1184000E+00
        -11   -1    0    0    0    0  0.00000000000E+00  0.00000000000E+00  0.45593999997E+02  0.45594000000E+02  0.51100000000E-03 0.  1.
         11   -1    0    0    0    0 -0.00000000000E+00 -0.00000000000E+00 -0.45593999997E+02  0.45594000000E+02  0.51100000000E-03 0. -1.
         23    2    1    2    0    0 -0.88817841970E-15  0.35527136788E-14  0.00000000000E+00  0.91188000000E+02  0.91188000000E+02 0.  0.
    9900012    2    3    3    0    0  0.63334100240E+01 -0.31536456573E+02  0.17919825456E+02  0.54367077685E+02  0.39999985199E+02 0.  0.
         12    1    3    3    0    0 -0.63334100240E+01  0.31536456573E+02 -0.17919825456E+02  0.36820922315E+02  0.00000000000E+00 0. -1.
         11    1    4    4    0    0  0.10014128578E+02 -0.99154589381E+01  0.64065905836E+01  0.15480423131E+02  0.51100000000E-03 0.  1.
        -11    1    4    4    0    0  0.12462869196E+01 -0.27065947393E+02  0.24255865432E+01  0.27202981633E+02  0.51100000000E-03 0. -1.
        -12    1    4    4    0    0 -0.49270054738E+01  0.54449497575E+01  0.90876483290E+01  0.11683672922E+02  0.00000000000E+00 0.  1.
</event>
<event>
 8    1  0.2433390E-006  0.9118800E+02  0.7816164E-02  0.1184000E+00
        -11   -1    0    0    0    0  0.00000000000E+00  0.00000000000E+00  0.45593999997E+02  0.45594000000E+02  0.51100000000E-03 0.  1.
         11   -1    0    0    0    0 -0.00000000000E+00 -0.00000000000E+00 -0.45593999997E+02  0.45594000000E+02  0.51100000000E-03 0. -1.
         23    2    1    2    0    0  0.71054273576E-14  0.88817841970E-15 -0.35527136788E-14  0.91188000000E+02  0.91188000000E+02 0.  0.
    9900012    2    3    3    0    0  0.34360769972E+02  0.57053698078E+01 -0.11940150824E+02  0.54367069004E+02  0.39999965409E+02 0.  0.
        -12    1    3    3    0    0 -0.34360769972E+02 -0.57053698078E+01  0.11940150824E+02  0.36820930996E+02  0.00000000000E+00 0.  1.
         11    1    4    4    0    0  0.38215156472E+02 -0.10418965885E+00 -0.90261005687E+01  0.39266773886E+02  0.51100000000E-03 0. -1.
        -11    1    4    4    0    0  0.38191032377E+01 -0.10894078596E+01  0.94696344871E+00  0.40827807998E+01  0.51100000000E-03 0.  1.
        -12    1    4    4    0    0 -0.76734897383E+01  0.68989673263E+01 -0.38610137040E+01  0.11017514318E+02  0.00000000000E+00 0.  1.
</event>
<event>
 8    1  0.2433390E-006  0.9118800E+02  0.7816164E-02  0.1184000E+00
        -11   -1    0    0    0    0  0.00000000000E+00  0.00000000000E+00  0.45593999997E+02  0.45594000000E+02  0.51100000000E-03 0.  1.
         11   -1    0    0    0    0 -0.00000000000E+00 -0.00000000000E+00 -0.45593999997E+02  0.45594000000E+02  0.51100000000E-03 0. -1.
         23    2    1    2    0    0  0.00000000000E+00  0.00000000000E+00  0.00000000000E+00  0.91188000000E+02  0.91188000000E+02 0.  0.
    9900012    2    3    3    0    0  0.30763180055E+02  0.81273939896E+01  0.18529760230E+02  0.54367084824E+02  0.40000001474E+02 0.  0.
         12    1    3    3    0    0 -0.30763180055E+02 -0.81273939896E+01 -0.18529760230E+02  0.36820915176E+02  0.00000000000E+00 0. -1.
         11    1    4    4    0    0  0.82453438447E+01 -0.11433189261E+02  0.12734747018E+02  0.18996770612E+02  0.51100000000E-03 0. -1.
        -11    1    4    4    0    0  0.14787598263E+02  0.21642139854E+02  0.14268680345E+01  0.26250547280E+02  0.51100000000E-03 0.  1.
        -12    1    4    4    0    0  0.77302379469E+01 -0.20815566036E+01  0.43681451774E+01  0.91197669324E+01  0.00000000000E+00 0.  1.
</event>
<event>
 8    1  0.2433390E-006  0.9118800E+02  0.7816164E-02  0.1184000E+00
        -11   -1    0    0    0    0  0.00000000000E+00  0.00000000000E+00  0.45593999997E+02  0.45594000000E+02  0.51100000000E-03 0.  1.
         11   -1    0    0    0    0 -0.00000000000E+00 -0.00000000000E+00 -0.45593999997E+02  0.45594000000E+02  0.51100000000E-03 0. -1.
         23    2    1    2    0    0 -0.35527136788E-14  0.00000000000E+00  0.00000000000E+00  0.91188000000E+02  0.91188000000E+02 0.  0.
    9900012    2    3    3    0    0 -0.22360212945E+02 -0.17943966932E+02 -0.23104427754E+02  0.54367086730E+02  0.40000005818E+02 0.  0.
        -12    1    3    3    0    0  0.22360212945E+02  0.17943966932E+02  0.23104427754E+02  0.36820913270E+02  0.00000000000E+00 0.  1.
         11    1    4    4    0    0  0.22111511466E+01 -0.13364742927E+01 -0.43629646128E+01  0.50705831422E+01  0.51100000000E-03 0. -1.
        -11    1    4    4    0    0  0.60465342325E+01 -0.20691181391E+01 -0.13583851931E+02  0.15012090448E+02  0.51100000000E-03 0.  1.
        -12    1    4    4    0    0 -0.30617898324E+02 -0.14538374501E+02 -0.51576112103E+01  0.34284413139E+02  0.00000000000E+00 0.  1.
</event>
<event>
 8    1  0.2433390E-006  0.9118800E+02  0.7816164E-02  0.1184000E+00
        -11   -1    0    0    0    0  0.00000000000E+00  0.00000000000E+00  0.45593999997E+02  0.45594000000E+02  0.51100000000E-03 0.  1.
         11   -1    0    0    0    0 -0.00000000000E+00 -0.00000000000E+00 -0.45593999997E+02  0.45594000000E+02  0.51100000000E-03 0. -1.
         23    2    1    2    0    0  0.00000000000E+00 -0.35527136788E-14  0.22204460493E-15  0.91188000000E+02  0.91188000000E+02 0.  0.
    9900012    2    3    3    0    0  0.18849301880E+02  0.31589180667E+02  0.16206786378E+01  0.54366822455E+02  0.39999403346E+02 0.  0.
         12    1    3    3    0    0 -0.18849301880E+02 -0.31589180667E+02 -0.16206786378E+01  0.36821177545E+02  0.00000000000E+00 0. -1.
         11    1    4    4    0    0 -0.49641689752E+01 -0.41173316614E+01  0.56564122733E+01  0.85784843469E+01  0.51100000000E-03 0. -1.
        -11    1    4    4    0    0 -0.16587516103E+00  0.58007892847E+01  0.34225552258E+01  0.67372513259E+01  0.51100000000E-03 0.  1.
        -12    1    4    4    0    0  0.23979346016E+02  0.29905723044E+02 -0.74582888613E+01  0.39051086782E+02  0.00000000000E+00 0.  1.
</event>
<event>
 8    1  0.2433390E-006  0.9118800E+02  0.7816164E-02  0.1184000E+00
        -11   -1    0    0    0    0  0.00000000000E+00  0.00000000000E+00  0.45593999997E+02  0.45594000000E+02  0.51100000000E-03 0. -1.
         11   -1    0    0    0    0 -0.00000000000E+00 -0.00000000000E+00 -0.45593999997E+02  0.45594000000E+02  0.51100000000E-03 0.  1.
         23    2    1    2    0    0  0.00000000000E+00  0.00000000000E+00 -0.88817841970E-15  0.91188000000E+02  0.91188000000E+02 0.  0.
    9900012    2    3    3    0    0 -0.17171273559E+02  0.32068150358E+02 -0.57063669929E+01  0.54367061293E+02  0.39999947829E+02 0.  0.
         12    1    3    3    0    0  0.17171273559E+02 -0.32068150358E+02  0.57063669929E+01  0.36820938707E+02  0.00000000000E+00 0. -1.
         11    1    4    4    0    0 -0.50987947488E+01  0.46787229643E+01 -0.20986642250E+01  0.72313586730E+01  0.51100000000E-03 0. -1.
        -11    1    4    4    0    0  0.50951646751E+01  0.26884340517E+02  0.51708709933E+01  0.27847196900E+02  0.51100000000E-03 0.  1.
         12    1    4    4    0    0 -0.17167643485E+02  0.50508687657E+00 -0.87785737613E+01  0.19288505719E+02  0.00000000000E+00 0. -1.
</event>
<event>
 8    1  0.2433390E-006  0.9118800E+02  0.7816164E-02  0.1184000E+00
        -11   -1    0    0    0    0  0.00000000000E+00  0.00000000000E+00  0.45593999997E+02  0.45594000000E+02  0.51100000000E-03 0. -1.
         11   -1    0    0    0    0 -0.00000000000E+00 -0.00000000000E+00 -0.45593999997E+02  0.45594000000E+02  0.51100000000E-03 0.  1.
         23    2    1    2    0    0  0.71054273576E-14  0.00000000000E+00  0.17763568394E-14  0.91188000000E+02  0.91188000000E+02 0.  0.
    9900012    2    3    3    0    0  0.32826773361E+02  0.13358338181E+02  0.99868308355E+01  0.54367095090E+02  0.40000024877E+02 0.  0.
        -12    1    3    3    0    0 -0.32826773361E+02 -0.13358338181E+02 -0.99868308355E+01  0.36820904910E+02  0.00000000000E+00 0.  1.
         11    1    4    4    0    0  0.85481037143E+01  0.18547244758E+02 -0.45924616224E+01  0.20932297275E+02  0.51100000000E-03 0. -1.
        -11    1    4    4    0    0  0.15294098997E+01 -0.36303043433E+01 -0.27417875866E+01  0.47995420300E+01  0.51100000000E-03 0.  1.
         12    1    4    4    0    0  0.22749259747E+02 -0.15586022330E+01  0.17321080044E+02  0.28635255785E+02  0.00000000000E+00 0. -1.
</event>
<event>
 8    1  0.2433390E-006  0.9118800E+02  0.7816164E-02  0.1184000E+00
        -11   -1    0    0    0    0  0.00000000000E+00  0.00000000000E+00  0.45593999997E+02  0.45594000000E+02  0.51100000000E-03 0.  1.
         11   -1    0    0    0    0 -0.00000000000E+00 -0.00000000000E+00 -0.45593999997E+02  0.45594000000E+02  0.51100000000E-03 0. -1.
         23    2    1    2    0    0  0.35527136788E-14  0.35527136788E-14  0.00000000000E+00  0.91188000000E+02  0.91188000000E+02 0.  0.
    9900012    2    3    3    0    0  0.29013792366E+02 -0.16786351204E+02  0.15238052096E+02  0.54367082496E+02  0.39999996166E+02 0.  0.
         12    1    3    3    0    0 -0.29013792366E+02  0.16786351204E+02 -0.15238052096E+02  0.36820917504E+02  0.00000000000E+00 0. -1.
         11    1    4    4    0    0  0.18984365918E+02 -0.45833707115E+01  0.10369492216E+02  0.22111983300E+02  0.51100000000E-03 0.  1.
        -11    1    4    4    0    0  0.30808608643E+01 -0.17422073128E+02 -0.56856307922E+01  0.18583507030E+02  0.51100000000E-03 0. -1.
         12    1    4    4    0    0  0.69485655832E+01  0.52190926359E+01  0.10554190672E+02  0.13671592166E+02  0.00000000000E+00 0. -1.
</event>
<event>
 8    1  0.2433390E-006  0.9118800E+02  0.7816164E-02  0.1184000E+00
        -11   -1    0    0    0    0  0.00000000000E+00  0.00000000000E+00  0.45593999997E+02  0.45594000000E+02  0.51100000000E-03 0. -1.
         11   -1    0    0    0    0 -0.00000000000E+00 -0.00000000000E+00 -0.45593999997E+02  0.45594000000E+02  0.51100000000E-03 0.  1.
         23    2    1    2    0    0 -0.35527136788E-14  0.35527136788E-14  0.00000000000E+00  0.91188000000E+02  0.91188000000E+02 0.  0.
    9900012    2    3    3    0    0  0.21909959246E+02 -0.22098240450E+02  0.19682316183E+02  0.54367189098E+02  0.40000239187E+02 0.  0.
        -12    1    3    3    0    0 -0.21909959246E+02  0.22098240450E+02 -0.19682316183E+02  0.36820810902E+02  0.00000000000E+00 0.  1.
         11    1    4    4    0    0  0.51097363218E+01 -0.41100254018E+01  0.16517088065E+02  0.17771210215E+02  0.51100000000E-03 0. -1.
        -11    1    4    4    0    0  0.18500627266E+02 -0.14934618954E+02 -0.78506377517E+01  0.25038940990E+02  0.51100000000E-03 0.  1.
         12    1    4    4    0    0 -0.17004043415E+01 -0.30535960936E+01  0.11015865869E+02  0.11557037893E+02  0.00000000000E+00 0. -1.
</event>
<event>
 8    1  0.2433390E-006  0.9118800E+02  0.7816164E-02  0.1184000E+00
        -11   -1    0    0    0    0  0.00000000000E+00  0.00000000000E+00  0.45593999997E+02  0.45594000000E+02  0.51100000000E-03 0. -1.
         11   -1    0    0    0    0 -0.00000000000E+00 -0.00000000000E+00 -0.45593999997E+02  0.45594000000E+02  0.51100000000E-03 0.  1.
         23    2    1    2    0    0  0.71054273576E-14  0.22204460493E-14  0.00000000000E+00  0.91188000000E+02  0.91188000000E+02 0.  0.
    9900012    2    3    3    0    0 -0.32208790841E+02 -0.30813976894E+01 -0.17574937279E+02  0.54367086927E+02  0.40000006268E+02 0.  0.
         12    1    3    3    0    0  0.32208790841E+02  0.30813976894E+01  0.17574937279E+02  0.36820913073E+02  0.00000000000E+00 0. -1.
         11    1    4    4    0    0 -0.40306753007E+01  0.12198475725E+02 -0.10484170141E+01  0.12889853835E+02  0.51100000000E-03 0. -1.
        -11    1    4    4    0    0 -0.65863141057E+01 -0.13933586465E+02 -0.11600417721E+02  0.19289739677E+02  0.51100000000E-03 0.  1.
         12    1    4    4    0    0 -0.21591801435E+02 -0.13462869495E+01 -0.49261025442E+01  0.22187493415E+02  0.00000000000E+00 0. -1.
</event>
<event>
 8    1  0.2433390E-006  0.9118800E+02  0.7816164E-02  0.1184000E+00
        -11   -1    0    0    0    0  0.00000000000E+00  0.00000000000E+00  0.45593999997E+02  0.45594000000E+02  0.51100000000E-03 0. -1.
         11   -1    0    0    0    0 -0.00000000000E+00 -0.00000000000E+00 -0.45593999997E+02  0.45594000000E+02  0.51100000000E-03 0.  1.
         23    2    1    2    0    0 -0.35527136788E-14  0.00000000000E+00  0.44408920985E-15  0.91188000000E+02  0.91188000000E+02 0.  0.
    9900012    2    3    3    0    0  0.13834029100E+02  0.34056734176E+02 -0.21303008216E+01  0.54367086303E+02  0.40000004845E+02 0.  0.
        -12    1    3    3    0    0 -0.13834029100E+02 -0.34056734176E+02  0.21303008216E+01  0.36820913697E+02  0.00000000000E+00 0.  1.
         11    1    4    4    0    0  0.21200552784E+02  0.15561963058E+02 -0.94871052200E+00  0.26316120240E+02  0.51100000000E-03 0. -1.
        -11    1    4    4    0    0 -0.69534959506E+01 -0.14961173013E+01  0.28342435881E+01  0.76565272737E+01  0.51100000000E-03 0.  1.
        -12    1    4    4    0    0 -0.41302773383E+00  0.19990888419E+02 -0.40158338877E+01  0.20394438789E+02  0.00000000000E+00 0.  1.
</event>
<event>
 8    1  0.2433390E-006  0.9118800E+02  0.7816164E-02  0.1184000E+00
        -11   -1    0    0    0    0  0.00000000000E+00  0.00000000000E+00  0.45593999997E+02  0.45594000000E+02  0.51100000000E-03 0.  1.
         11   -1    0    0    0    0 -0.00000000000E+00 -0.00000000000E+00 -0.45593999997E+02  0.45594000000E+02  0.51100000000E-03 0. -1.
         23    2    1    2    0    0  0.71054273576E-14 -0.88817841970E-15 -0.35527136788E-14  0.91188000000E+02  0.91188000000E+02 0.  0.
    9900012    2    3    3    0    0 -0.28677780005E+02  0.43974009216E+01 -0.22672154171E+02  0.54367098658E+02  0.40000033010E+02 0.  0.
        -12    1    3    3    0    0  0.28677780005E+02 -0.43974009216E+01  0.22672154171E+02  0.36820901342E+02  0.00000000000E+00 0.  1.
         11    1    4    4    0    0 -0.13842699279E+02 -0.30239761585E+01  0.47426874360E+01  0.14941815135E+02  0.51100000000E-03 0. -1.
        -11    1    4    4    0    0 -0.91240679276E+01 -0.60762765634E+01 -0.37429691767E+01  0.11583590589E+02  0.51100000000E-03 0.  1.
        -12    1    4    4    0    0 -0.57110127985E+01  0.13497653644E+02 -0.23671872430E+02  0.27841692934E+02  0.00000000000E+00 0.  1.
</event>
<event>
 8    1  0.2433390E-006  0.9118800E+02  0.7816164E-02  0.1184000E+00
        -11   -1    0    0    0    0  0.00000000000E+00  0.00000000000E+00  0.45593999997E+02  0.45594000000E+02  0.51100000000E-03 0.  1.
         11   -1    0    0    0    0 -0.00000000000E+00 -0.00000000000E+00 -0.45593999997E+02  0.45594000000E+02  0.51100000000E-03 0. -1.
         23    2    1    2    0    0  0.00000000000E+00 -0.44408920985E-15  0.00000000000E+00  0.91188000000E+02  0.91188000000E+02 0.  0.
    9900012    2    3    3    0    0  0.23725242395E+02  0.24481670201E+01 -0.28051797696E+02  0.54367027682E+02  0.39999871207E+02 0.  0.
        -12    1    3    3    0    0 -0.23725242395E+02 -0.24481670201E+01  0.28051797696E+02  0.36820972318E+02  0.00000000000E+00 0.  1.
         11    1    4    4    0    0  0.17694292714E+02 -0.52776051915E+01 -0.25318440511E+02  0.31336313462E+02  0.51100000000E-03 0. -1.
        -11    1    4    4    0    0  0.90892993924E+01  0.13457564348E+02 -0.82890733476E+00  0.16260642338E+02  0.51100000000E-03 0.  1.
        -12    1    4    4    0    0 -0.30583497117E+01 -0.57317921364E+01 -0.19044498505E+01  0.67700718820E+01  0.00000000000E+00 0.  1.
</event>
<event>
 8    1  0.2433390E-006  0.9118800E+02  0.7816164E-02  0.1184000E+00
        -11   -1    0    0    0    0  0.00000000000E+00  0.00000000000E+00  0.45593999997E+02  0.45594000000E+02  0.51100000000E-03 0.  1.
         11   -1    0    0    0    0 -0.00000000000E+00 -0.00000000000E+00 -0.45593999997E+02  0.45594000000E+02  0.51100000000E-03 0. -1.
         23    2    1    2    0    0  0.71054273576E-14  0.17763568394E-14  0.35527136788E-14  0.91188000000E+02  0.91188000000E+02 0.  0.
    9900012    2    3    3    0    0  0.27763544384E+02  0.12925395145E+02 -0.20442567156E+02  0.54367098485E+02  0.40000032617E+02 0.  0.
        -12    1    3    3    0    0 -0.27763544384E+02 -0.12925395145E+02  0.20442567156E+02  0.36820901515E+02  0.00000000000E+00 0.  1.
         11    1    4    4    0    0  0.15620105964E+02  0.21286503274E+02 -0.16122658557E+02  0.30936112412E+02  0.51100000000E-03 0. -1.
        -11    1    4    4    0    0 -0.16575247187E+01  0.41043080479E+01 -0.62355241072E+00  0.44700727752E+01  0.51100000000E-03 0.  1.
        -12    1    4    4    0    0  0.13800963139E+02 -0.12465416177E+02 -0.36963561883E+01  0.18960913298E+02  0.00000000000E+00 0.  1.
</event>
<event>
 8    1  0.2433390E-006  0.9118800E+02  0.7816164E-02  0.1184000E+00
        -11   -1    0    0    0    0  0.00000000000E+00  0.00000000000E+00  0.45593999997E+02  0.45594000000E+02  0.51100000000E-03 0. -1.
         11   -1    0    0    0    0 -0.00000000000E+00 -0.00000000000E+00 -0.45593999997E+02  0.45594000000E+02  0.51100000000E-03 0.  1.
         23    2    1    2    0    0  0.00000000000E+00  0.00000000000E+00  0.00000000000E+00  0.91188000000E+02  0.91188000000E+02 0.  0.
    9900012    2    3    3    0    0  0.25723444723E+02 -0.89503999827E+01 -0.24778531524E+02  0.54367069909E+02  0.39999967472E+02 0.  0.
        -12    1    3    3    0    0 -0.25723444723E+02  0.89503999827E+01  0.24778531524E+02  0.36820930091E+02  0.00000000000E+00 0.  1.
         11    1    4    4    0    0  0.20142526323E+02  0.11216500868E+01 -0.22194746086E+02  0.29993102868E+02  0.51100000000E-03 0.  1.
        -11    1    4    4    0    0  0.75276854520E+01 -0.12736407413E+02  0.53887697642E+01  0.15745506085E+02  0.51100000000E-03 0. -1.
         12    1    4    4    0    0 -0.19467670519E+01  0.26643573431E+01 -0.79725552028E+01  0.86284609559E+01  0.00000000000E+00 0. -1.
</event>
<event>
 8    1  0.2433390E-006  0.9118800E+02  0.7816164E-02  0.1184000E+00
        -11   -1    0    0    0    0  0.00000000000E+00  0.00000000000E+00  0.45593999997E+02  0.45594000000E+02  0.51100000000E-03 0.  1.
         11   -1    0    0    0    0 -0.00000000000E+00 -0.00000000000E+00 -0.45593999997E+02  0.45594000000E+02  0.51100000000E-03 0. -1.
         23    2    1    2    0    0  0.35527136788E-14  0.17763568394E-14  0.00000000000E+00  0.91188000000E+02  0.91188000000E+02 0.  0.
    9900012    2    3    3    0    0 -0.26817668804E+02 -0.14855122932E+02  0.20394099969E+02  0.54367063687E+02  0.39999953288E+02 0.  0.
         12    1    3    3    0    0  0.26817668804E+02  0.14855122932E+02 -0.20394099969E+02  0.36820936313E+02  0.00000000000E+00 0. -1.
         11    1    4    4    0    0  0.77790746262E+01  0.44024742133E+01  0.71862366413E+01  0.11468992047E+02  0.51100000000E-03 0. -1.
        -11    1    4    4    0    0 -0.64283492586E+01 -0.51072908164E+01  0.69570735436E+01  0.10761457440E+02  0.51100000000E-03 0.  1.
         12    1    4    4    0    0 -0.28168394171E+02 -0.14150306329E+02  0.62507897843E+01  0.32136614201E+02  0.00000000000E+00 0. -1.
</event>
<event>
 8    1  0.2433390E-006  0.9118800E+02  0.7816164E-02  0.1184000E+00
        -11   -1    0    0    0    0  0.00000000000E+00  0.00000000000E+00  0.45593999997E+02  0.45594000000E+02  0.51100000000E-03 0.  1.
         11   -1    0    0    0    0 -0.00000000000E+00 -0.00000000000E+00 -0.45593999997E+02  0.45594000000E+02  0.51100000000E-03 0. -1.
         23    2    1    2    0    0  0.00000000000E+00  0.35527136788E-14 -0.17763568394E-14  0.91188000000E+02  0.91188000000E+02 0.  0.
    9900012    2    3    3    0    0 -0.28811938945E+02 -0.18202172052E+02 -0.13940310970E+02  0.54367093397E+02  0.40000021016E+02 0.  0.
        -12    1    3    3    0    0  0.28811938945E+02  0.18202172052E+02  0.13940310970E+02  0.36820906603E+02  0.00000000000E+00 0.  1.
         11    1    4    4    0    0 -0.62829811416E+01  0.22223259767E+01 -0.77151704645E+01  0.10195020369E+02  0.51100000000E-03 0. -1.
        -11    1    4    4    0    0  0.50103647469E+01  0.38548778293E+01  0.18376345051E+01  0.65833683485E+01  0.51100000000E-03 0.  1.
        -12    1    4    4    0    0 -0.27539322550E+02 -0.24279375858E+02 -0.80627750108E+01  0.37588704679E+02  0.00000000000E+00 0.  1.
</event>
<event>
 8    1  0.2433390E-006  0.9118800E+02  0.7816164E-02  0.1184000E+00
        -11   -1    0    0    0    0  0.00000000000E+00  0.00000000000E+00  0.45593999997E+02  0.45594000000E+02  0.51100000000E-03 0. -1.
         11   -1    0    0    0    0 -0.00000000000E+00 -0.00000000000E+00 -0.45593999997E+02  0.45594000000E+02  0.51100000000E-03 0.  1.
         23    2    1    2    0    0  0.17763568394E-14  0.71054273576E-14  0.00000000000E+00  0.91188000000E+02  0.91188000000E+02 0.  0.
    9900012    2    3    3    0    0 -0.11678375221E+02  0.33627796468E+02 -0.94108771599E+01  0.54367112558E+02  0.40000064699E+02 0.  0.
        -12    1    3    3    0    0  0.11678375221E+02 -0.33627796468E+02  0.94108771599E+01  0.36820887442E+02  0.00000000000E+00 0.  1.
         11    1    4    4    0    0 -0.63836128079E+01 -0.51313502287E+00 -0.22416544598E+01  0.67851923341E+01  0.51100000000E-03 0. -1.
        -11    1    4    4    0    0  0.13160262588E+02  0.94058302930E+01 -0.22817539953E+01  0.16336112036E+02  0.51100000000E-03 0.  1.
        -12    1    4    4    0    0 -0.18455025001E+02  0.24735101198E+02 -0.48874687049E+01  0.31245808189E+02  0.00000000000E+00 0.  1.
</event>
<event>
 8    1  0.2433390E-006  0.9118800E+02  0.7816164E-02  0.1184000E+00
        -11   -1    0    0    0    0  0.00000000000E+00  0.00000000000E+00  0.45593999997E+02  0.45594000000E+02  0.51100000000E-03 0.  1.
         11   -1    0    0    0    0 -0.00000000000E+00 -0.00000000000E+00 -0.45593999997E+02  0.45594000000E+02  0.51100000000E-03 0. -1.
         23    2    1    2    0    0  0.00000000000E+00  0.44408920985E-15  0.00000000000E+00  0.91188000000E+02  0.91188000000E+02 0.  0.
    9900012    2    3    3    0    0  0.31245467481E+02 -0.32371274457E+01  0.19209917399E+02  0.54367093456E+02  0.40000021153E+02 0.  0.
         12    1    3    3    0    0 -0.31245467481E+02  0.32371274457E+01 -0.19209917399E+02  0.36820906544E+02  0.00000000000E+00 0. -1.
         11    1    4    4    0    0 -0.58675870783E+00  0.62828464933E+00  0.66810036374E+01  0.67360847119E+01  0.51100000000E-03 0. -1.
        -11    1    4    4    0    0  0.54848953495E+01 -0.11738916207E+02  0.15234739758E+02  0.19999588157E+02  0.51100000000E-03 0.  1.
        -12    1    4    4    0    0  0.26347330839E+02  0.78735041119E+01 -0.27058259961E+01  0.27631420588E+02  0.00000000000E+00 0.  1.
</event>
<event>
 8    1  0.2433390E-006  0.9118800E+02  0.7816164E-02  0.1184000E+00
        -11   -1    0    0    0    0  0.00000000000E+00  0.00000000000E+00  0.45593999997E+02  0.45594000000E+02  0.51100000000E-03 0. -1.
         11   -1    0    0    0    0 -0.00000000000E+00 -0.00000000000E+00 -0.45593999997E+02  0.45594000000E+02  0.51100000000E-03 0.  1.
         23    2    1    2    0    0 -0.35527136788E-14  0.00000000000E+00  0.00000000000E+00  0.91188000000E+02  0.91188000000E+02 0.  0.
    9900012    2    3    3    0    0  0.24051217339E+02 -0.21264473498E+02  0.18031774703E+02  0.54367030600E+02  0.39999877858E+02 0.  0.
        -12    1    3    3    0    0 -0.24051217339E+02  0.21264473498E+02 -0.18031774703E+02  0.36820969400E+02  0.00000000000E+00 0.  1.
         11    1    4    4    0    0  0.92339661822E+00  0.49509067400E+01  0.13245750246E+02  0.14170887012E+02  0.51100000000E-03 0. -1.
        -11    1    4    4    0    0  0.15749535756E+02 -0.72687773926E+01 -0.43839679180E+01  0.17891399506E+02  0.51100000000E-03 0.  1.
         12    1    4    4    0    0  0.73782849642E+01 -0.18946602845E+02  0.91699923757E+01  0.22304744082E+02  0.00000000000E+00 0. -1.
</event>
<event>
 8    1  0.2433390E-006  0.9118800E+02  0.7816164E-02  0.1184000E+00
        -11   -1    0    0    0    0  0.00000000000E+00  0.00000000000E+00  0.45593999997E+02  0.45594000000E+02  0.51100000000E-03 0.  1.
         11   -1    0    0    0    0 -0.00000000000E+00 -0.00000000000E+00 -0.45593999997E+02  0.45594000000E+02  0.51100000000E-03 0. -1.
         23    2    1    2    0    0 -0.35527136788E-14 -0.88817841970E-15  0.35527136788E-14  0.91188000000E+02  0.91188000000E+02 0.  0.
    9900012    2    3    3    0    0 -0.22274338346E+02 -0.46692201626E+01  0.28945407046E+02  0.54367022898E+02  0.39999860300E+02 0.  0.
         12    1    3    3    0    0  0.22274338346E+02  0.46692201626E+01 -0.28945407046E+02  0.36820977102E+02  0.00000000000E+00 0. -1.
         11    1    4    4    0    0 -0.52495368510E+01 -0.55287159582E+01  0.10890713396E+02  0.13294057915E+02  0.51100000000E-03 0. -1.
        -11    1    4    4    0    0 -0.25574877188E+02 -0.25256457314E+01  0.68863178957E+01  0.26605912951E+02  0.51100000000E-03 0.  1.
         12    1    4    4    0    0  0.85500756926E+01  0.33851415270E+01  0.11168375754E+02  0.14467052032E+02  0.00000000000E+00 0. -1.
</event>
<event>
 8    1  0.2433390E-006  0.9118800E+02  0.7816164E-02  0.1184000E+00
        -11   -1    0    0    0    0  0.00000000000E+00  0.00000000000E+00  0.45593999997E+02  0.45594000000E+02  0.51100000000E-03 0. -1.
         11   -1    0    0    0    0 -0.00000000000E+00 -0.00000000000E+00 -0.45593999997E+02  0.45594000000E+02  0.51100000000E-03 0.  1.
         23    2    1    2    0    0  0.20816681712E-15 -0.71054273576E-14  0.00000000000E+00  0.91188000000E+02  0.91188000000E+02 0.  0.
    9900012    2    3    3    0    0  0.78820792642E-01  0.30065345275E+02 -0.21256762091E+02  0.54367066636E+02  0.39999960009E+02 0.  0.
         12    1    3    3    0    0 -0.78820792642E-01 -0.30065345275E+02  0.21256762091E+02  0.36820933364E+02  0.00000000000E+00 0. -1.
         11    1    4    4    0    0 -0.14533694516E+02  0.11114062329E+02 -0.17865368029E+02  0.25571899280E+02  0.51100000000E-03 0. -1.
        -11    1    4    4    0    0 -0.89922220679E+00 -0.21539339913E+01 -0.83208230686E+00  0.24779817276E+01  0.51100000000E-03 0.  1.
        -12    1    4    4    0    0  0.15511737515E+02  0.21105216938E+02 -0.25593117554E+01  0.26317185628E+02  0.00000000000E+00 0.  1.
</event>
<event>
 8    1  0.2433390E-006  0.9118800E+02  0.7816164E-02  0.1184000E+00
        -11   -1    0    0    0    0  0.00000000000E+00  0.00000000000E+00  0.45593999997E+02  0.45594000000E+02  0.51100000000E-03 0.  1.
         11   -1    0    0    0    0 -0.00000000000E+00 -0.00000000000E+00 -0.45593999997E+02  0.45594000000E+02  0.51100000000E-03 0. -1.
         23    2    1    2    0    0  0.00000000000E+00  0.35527136788E-14 -0.35527136788E-14  0.91188000000E+02  0.91188000000E+02 0.  0.
    9900012    2    3    3    0    0  0.17172141804E+02  0.24790404601E+02  0.21126590560E+02  0.54367089594E+02  0.40000012348E+02 0.  0.
         12    1    3    3    0    0 -0.17172141804E+02 -0.24790404601E+02 -0.21126590560E+02  0.36820910406E+02  0.00000000000E+00 0. -1.
         11    1    4    4    0    0  0.42031108728E+01  0.25598593174E+02  0.17527823239E+01  0.26000506911E+02  0.51100000000E-03 0. -1.
        -11    1    4    4    0    0 -0.21465425591E+01 -0.40471521254E+01  0.17008857100E+01  0.48867266901E+01  0.51100000000E-03 0.  1.
        -12    1    4    4    0    0  0.15115573491E+02  0.32389635524E+01  0.17672922526E+02  0.23479855993E+02  0.00000000000E+00 0.  1.
</event>
<event>
 8    1  0.2433390E-006  0.9118800E+02  0.7816164E-02  0.1184000E+00
        -11   -1    0    0    0    0  0.00000000000E+00  0.00000000000E+00  0.45593999997E+02  0.45594000000E+02  0.51100000000E-03 0.  1.
         11   -1    0    0    0    0 -0.00000000000E+00 -0.00000000000E+00 -0.45593999997E+02  0.45594000000E+02  0.51100000000E-03 0. -1.
         23    2    1    2    0    0 -0.44408920985E-15  0.00000000000E+00  0.00000000000E+00  0.91188000000E+02  0.91188000000E+02 0.  0.
    9900012    2    3    3    0    0 -0.28736775191E+01 -0.92806221487E+01 -0.35516014406E+02  0.54367146544E+02  0.40000142177E+02 0.  0.
        -12    1    3    3    0    0  0.28736775191E+01  0.92806221487E+01  0.35516014406E+02  0.36820853456E+02  0.00000000000E+00 0.  1.
         11    1    4    4    0    0 -0.67493729735E+01 -0.12637528958E+02 -0.38442749181E+02  0.41025676576E+02  0.51100000000E-03 0. -1.
        -11    1    4    4    0    0  0.39201858337E+01  0.19084991093E+01 -0.42089367590E+01  0.60601464276E+01  0.51100000000E-03 0.  1.
         12    1    4    4    0    0 -0.44490379331E-01  0.14484077001E+01  0.71356715342E+01  0.72813235406E+01  0.00000000000E+00 0. -1.
</event>
<event>
 8    1  0.2433390E-006  0.9118800E+02  0.7816164E-02  0.1184000E+00
        -11   -1    0    0    0    0  0.00000000000E+00  0.00000000000E+00  0.45593999997E+02  0.45594000000E+02  0.51100000000E-03 0. -1.
         11   -1    0    0    0    0 -0.00000000000E+00 -0.00000000000E+00 -0.45593999997E+02  0.45594000000E+02  0.51100000000E-03 0.  1.
         23    2    1    2    0    0  0.00000000000E+00  0.35527136788E-14 -0.35527136788E-14  0.91188000000E+02  0.91188000000E+02 0.  0.
    9900012    2    3    3    0    0 -0.97119304221E+01  0.30137540584E+02  0.18793276715E+02  0.54367079389E+02  0.39999989083E+02 0.  0.
         12    1    3    3    0    0  0.97119304221E+01 -0.30137540584E+02 -0.18793276715E+02  0.36820920611E+02  0.00000000000E+00 0. -1.
         11    1    4    4    0    0  0.34064416574E+01 -0.27605817780E+01 -0.59530256666E+01  0.73934546300E+01  0.51100000000E-03 0. -1.
        -11    1    4    4    0    0  0.36294736123E+01  0.24403302285E+01  0.61685326942E+01  0.75616854065E+01  0.51100000000E-03 0.  1.
        -12    1    4    4    0    0 -0.16747845692E+02  0.30457792133E+02  0.18577769687E+02  0.39411939352E+02  0.00000000000E+00 0.  1.
</event>
<event>
 8    1  0.2433390E-006  0.9118800E+02  0.7816164E-02  0.1184000E+00
        -11   -1    0    0    0    0  0.00000000000E+00  0.00000000000E+00  0.45593999997E+02  0.45594000000E+02  0.51100000000E-03 0.  1.
         11   -1    0    0    0    0 -0.00000000000E+00 -0.00000000000E+00 -0.45593999997E+02  0.45594000000E+02  0.51100000000E-03 0. -1.
         23    2    1    2    0    0  0.00000000000E+00 -0.35527136788E-14 -0.22204460493E-14  0.91188000000E+02  0.91188000000E+02 0.  0.
    9900012    2    3    3    0    0  0.32917893672E+02  0.16375108600E+02 -0.20119035252E+01  0.54367086632E+02  0.40000005594E+02 0.  0.
         12    1    3    3    0    0 -0.32917893672E+02 -0.16375108600E+02  0.20119035252E+01  0.36820913368E+02  0.00000000000E+00 0. -1.
         11    1    4    4    0    0  0.10714222628E+02 -0.42612232548E+01 -0.15130766403E+02  0.19023477136E+02  0.51100000000E-03 0. -1.
        -11    1    4    4    0    0  0.15010925218E+02  0.57703995843E+01  0.85265672269E+01  0.18202410176E+02  0.51100000000E-03 0.  1.
         12    1    4    4    0    0  0.71927458257E+01  0.14865932270E+02  0.45922956505E+01  0.17141199320E+02  0.00000000000E+00 0. -1.
</event>
<event>
 8    1  0.2433390E-006  0.9118800E+02  0.7816164E-02  0.1184000E+00
        -11   -1    0    0    0    0  0.00000000000E+00  0.00000000000E+00  0.45593999997E+02  0.45594000000E+02  0.51100000000E-03 0.  1.
         11   -1    0    0    0    0 -0.00000000000E+00 -0.00000000000E+00 -0.45593999997E+02  0.45594000000E+02  0.51100000000E-03 0. -1.
         23    2    1    2    0    0  0.00000000000E+00  0.00000000000E+00  0.00000000000E+00  0.91188000000E+02  0.91188000000E+02 0.  0.
    9900012    2    3    3    0    0 -0.31244865746E+02  0.17245408393E+02 -0.90627312030E+01  0.54367097744E+02  0.40000030927E+02 0.  0.
        -12    1    3    3    0    0  0.31244865746E+02 -0.17245408393E+02  0.90627312030E+01  0.36820902256E+02  0.00000000000E+00 0.  1.
         11    1    4    4    0    0  0.56602950548E+01  0.40402889131E+01 -0.54741281573E+01  0.88503646226E+01  0.51100000000E-03 0. -1.
        -11    1    4    4    0    0 -0.17724531864E+02  0.17948970167E+02 -0.49682066416E+01  0.25710068793E+02  0.51100000000E-03 0.  1.
        -12    1    4    4    0    0 -0.19180628937E+02 -0.47438506868E+01  0.13796035958E+01  0.19806664329E+02  0.00000000000E+00 0.  1.
</event>
<event>
 8    1  0.2433390E-006  0.9118800E+02  0.7816164E-02  0.1184000E+00
        -11   -1    0    0    0    0  0.00000000000E+00  0.00000000000E+00  0.45593999997E+02  0.45594000000E+02  0.51100000000E-03 0. -1.
         11   -1    0    0    0    0 -0.00000000000E+00 -0.00000000000E+00 -0.45593999997E+02  0.45594000000E+02  0.51100000000E-03 0.  1.
         23    2    1    2    0    0  0.00000000000E+00 -0.35527136788E-14  0.35527136788E-14  0.91188000000E+02  0.91188000000E+02 0.  0.
    9900012    2    3    3    0    0 -0.10768776746E+02 -0.28943406968E+02  0.20052227860E+02  0.54367092873E+02  0.40000019823E+02 0.  0.
        -12    1    3    3    0    0  0.10768776746E+02  0.28943406968E+02 -0.20052227860E+02  0.36820907127E+02  0.00000000000E+00 0.  1.
         11    1    4    4    0    0 -0.80825930176E+01 -0.39629721544E+01  0.39886028156E+01  0.98459337225E+01  0.51100000000E-03 0. -1.
        -11    1    4    4    0    0 -0.21040980738E+01 -0.28909942641E+02  0.22679370903E+02  0.36804427411E+02  0.51100000000E-03 0.  1.
        -12    1    4    4    0    0 -0.58208565461E+00  0.39295078273E+01 -0.66157458592E+01  0.77167317400E+01  0.00000000000E+00 0.  1.
</event>
<event>
 8    1  0.2433390E-006  0.9118800E+02  0.7816164E-02  0.1184000E+00
        -11   -1    0    0    0    0  0.00000000000E+00  0.00000000000E+00  0.45593999997E+02  0.45594000000E+02  0.51100000000E-03 0.  1.
         11   -1    0    0    0    0 -0.00000000000E+00 -0.00000000000E+00 -0.45593999997E+02  0.45594000000E+02  0.51100000000E-03 0. -1.
         23    2    1    2    0    0  0.00000000000E+00 -0.88817841970E-15  0.17763568394E-14  0.91188000000E+02  0.91188000000E+02 0.  0.
    9900012    2    3    3    0    0 -0.32573117006E+02 -0.65647113715E+01  0.15864302620E+02  0.54367089032E+02  0.40000011067E+02 0.  0.
         12    1    3    3    0    0  0.32573117006E+02  0.65647113715E+01 -0.15864302620E+02  0.36820910968E+02  0.00000000000E+00 0. -1.
         11    1    4    4    0    0 -0.17596519508E+02  0.18651257385E+01 -0.10154413657E+02  0.20401674191E+02  0.51100000000E-03 0. -1.
        -11    1    4    4    0    0 -0.92996422560E+00  0.11328974917E+01  0.11563629089E+02  0.11656148942E+02  0.51100000000E-03 0.  1.
        -12    1    4    4    0    0 -0.14046633272E+02 -0.95627346017E+01  0.14455087188E+02  0.22309265899E+02  0.00000000000E+00 0.  1.
</event>
<event>
 8    1  0.2433390E-006  0.9118800E+02  0.7816164E-02  0.1184000E+00
        -11   -1    0    0    0    0  0.00000000000E+00  0.00000000000E+00  0.45593999997E+02  0.45594000000E+02  0.51100000000E-03 0.  1.
         11   -1    0    0    0    0 -0.00000000000E+00 -0.00000000000E+00 -0.45593999997E+02  0.45594000000E+02  0.51100000000E-03 0. -1.
         23    2    1    2    0    0  0.22204460493E-15  0.35527136788E-14  0.00000000000E+00  0.91188000000E+02  0.91188000000E+02 0.  0.
    9900012    2    3    3    0    0 -0.16354201251E+01 -0.22459453858E+02  0.29132069500E+02  0.54367093711E+02  0.40000021733E+02 0.  0.
         12    1    3    3    0    0  0.16354201251E+01  0.22459453858E+02 -0.29132069500E+02  0.36820906289E+02  0.00000000000E+00 0. -1.
         11    1    4    4    0    0 -0.16915868506E+02 -0.27899340597E+01  0.10525425954E+02  0.20117527959E+02  0.51100000000E-03 0. -1.
        -11    1    4    4    0    0  0.62830398592E+01 -0.27498926604E+01  0.12286415072E+02  0.14071051670E+02  0.51100000000E-03 0.  1.
         12    1    4    4    0    0  0.89974085221E+01 -0.16919627138E+02  0.63202284737E+01  0.20178514082E+02  0.00000000000E+00 0. -1.
</event>
<event>
 8    1  0.2433390E-006  0.9118800E+02  0.7816164E-02  0.1184000E+00
        -11   -1    0    0    0    0  0.00000000000E+00  0.00000000000E+00  0.45593999997E+02  0.45594000000E+02  0.51100000000E-03 0. -1.
         11   -1    0    0    0    0 -0.00000000000E+00 -0.00000000000E+00 -0.45593999997E+02  0.45594000000E+02  0.51100000000E-03 0.  1.
         23    2    1    2    0    0  0.00000000000E+00 -0.88817841970E-15  0.00000000000E+00  0.91188000000E+02  0.91188000000E+02 0.  0.
    9900012    2    3    3    0    0  0.17292890452E+02  0.66546050055E+01 -0.31819051843E+02  0.54367083551E+02  0.39999998571E+02 0.  0.
         12    1    3    3    0    0 -0.17292890452E+02 -0.66546050055E+01  0.31819051843E+02  0.36820916449E+02  0.00000000000E+00 0. -1.
         11    1    4    4    0    0  0.13906955387E+01 -0.54592267134E+01 -0.62763705328E+01  0.84338613763E+01  0.51100000000E-03 0. -1.
        -11    1    4    4    0    0  0.21822504261E+02  0.19063810649E+02 -0.20585064287E+02  0.35544274372E+02  0.51100000000E-03 0.  1.
        -12    1    4    4    0    0 -0.59203093478E+01 -0.69499789298E+01 -0.49576170236E+01  0.10388947803E+02  0.00000000000E+00 0.  1.
</event>
<event>
 8    1  0.2433390E-006  0.9118800E+02  0.7816164E-02  0.1184000E+00
        -11   -1    0    0    0    0  0.00000000000E+00  0.00000000000E+00  0.45593999997E+02  0.45594000000E+02  0.51100000000E-03 0.  1.
         11   -1    0    0    0    0 -0.00000000000E+00 -0.00000000000E+00 -0.45593999997E+02  0.45594000000E+02  0.51100000000E-03 0. -1.
         23    2    1    2    0    0  0.00000000000E+00  0.00000000000E+00  0.00000000000E+00  0.91188000000E+02  0.91188000000E+02 0.  0.
    9900012    2    3    3    0    0 -0.25255293161E+02  0.17119842528E+02 -0.20612148570E+02  0.54367088693E+02  0.40000010294E+02 0.  0.
        -12    1    3    3    0    0  0.25255293161E+02 -0.17119842528E+02  0.20612148570E+02  0.36820911307E+02  0.00000000000E+00 0.  1.
         11    1    4    4    0    0 -0.76575510787E+01  0.34312198192E+01 -0.12778128668E+02  0.15286985658E+02  0.51100000000E-03 0. -1.
        -11    1    4    4    0    0 -0.55602170628E+01  0.22125625134E+02 -0.91136192476E+00  0.22831773522E+02  0.51100000000E-03 0.  1.
        -12    1    4    4    0    0 -0.12037525019E+02 -0.84370024257E+01 -0.69226579768E+01  0.16248329513E+02  0.00000000000E+00 0.  1.
</event>
<event>
 8    1  0.2433390E-006  0.9118800E+02  0.7816164E-02  0.1184000E+00
        -11   -1    0    0    0    0  0.00000000000E+00  0.00000000000E+00  0.45593999997E+02  0.45594000000E+02  0.51100000000E-03 0.  1.
         11   -1    0    0    0    0 -0.00000000000E+00 -0.00000000000E+00 -0.45593999997E+02  0.45594000000E+02  0.51100000000E-03 0. -1.
         23    2    1    2    0    0  0.00000000000E+00  0.00000000000E+00  0.00000000000E+00  0.91188000000E+02  0.91188000000E+02 0.  0.
    9900012    2    3    3    0    0 -0.10569903503E+02 -0.13912915103E+02 -0.32411255562E+02  0.54367060933E+02  0.39999947008E+02 0.  0.
        -12    1    3    3    0    0  0.10569903503E+02  0.13912915103E+02  0.32411255562E+02  0.36820939067E+02  0.00000000000E+00 0.  1.
         11    1    4    4    0    0 -0.11807867907E+02 -0.27240196224E+01 -0.33814733747E+01  0.12580953456E+02  0.51100000000E-03 0.  1.
        -11    1    4    4    0    0 -0.56442832440E+01  0.40648094611E+01 -0.22950964988E+02  0.23981814015E+02  0.51100000000E-03 0. -1.
         12    1    4    4    0    0  0.68822476481E+01 -0.15253704941E+02 -0.60788171986E+01  0.17804293462E+02  0.00000000000E+00 0. -1.
</event>
<event>
 8    1  0.2433390E-006  0.9118800E+02  0.7816164E-02  0.1184000E+00
        -11   -1    0    0    0    0  0.00000000000E+00  0.00000000000E+00  0.45593999997E+02  0.45594000000E+02  0.51100000000E-03 0.  1.
         11   -1    0    0    0    0 -0.00000000000E+00 -0.00000000000E+00 -0.45593999997E+02  0.45594000000E+02  0.51100000000E-03 0. -1.
         23    2    1    2    0    0  0.00000000000E+00  0.00000000000E+00  0.00000000000E+00  0.91188000000E+02  0.91188000000E+02 0.  0.
    9900012    2    3    3    0    0 -0.13666094438E+02  0.25330174659E+02 -0.22965192729E+02  0.54367082541E+02  0.39999996270E+02 0.  0.
         12    1    3    3    0    0  0.13666094438E+02 -0.25330174659E+02  0.22965192729E+02  0.36820917459E+02  0.00000000000E+00 0. -1.
         11    1    4    4    0    0 -0.22708663355E+02  0.54310361049E+01 -0.75594801116E+01  0.24542316198E+02  0.51100000000E-03 0. -1.
        -11    1    4    4    0    0  0.77730779623E+00  0.16598847781E+02 -0.94524356897E+01  0.19117387264E+02  0.51100000000E-03 0.  1.
         12    1    4    4    0    0  0.82652611209E+01  0.33002907728E+01 -0.59532769274E+01  0.10707379080E+02  0.00000000000E+00 0. -1.
</event>
<event>
 8    1  0.2433390E-006  0.9118800E+02  0.7816164E-02  0.1184000E+00
        -11   -1    0    0    0    0  0.00000000000E+00  0.00000000000E+00  0.45593999997E+02  0.45594000000E+02  0.51100000000E-03 0.  1.
         11   -1    0    0    0    0 -0.00000000000E+00 -0.00000000000E+00 -0.45593999997E+02  0.45594000000E+02  0.51100000000E-03 0. -1.
         23    2    1    2    0    0 -0.35527136788E-14  0.88817841970E-15 -0.35527136788E-14  0.91188000000E+02  0.91188000000E+02 0.  0.
    9900012    2    3    3    0    0 -0.18893887920E+02  0.14685000477E+01 -0.31569675136E+02  0.54367083644E+02  0.39999998782E+02 0.  0.
        -12    1    3    3    0    0  0.18893887920E+02 -0.14685000477E+01  0.31569675136E+02  0.36820916356E+02  0.00000000000E+00 0.  1.
         11    1    4    4    0    0 -0.41718916129E+00  0.72094543716E+01 -0.23354822264E+01  0.75897797481E+01  0.51100000000E-03 0. -1.
        -11    1    4    4    0    0 -0.56177976140E+01 -0.43120025924E+01  0.59753208602E+01  0.92659309318E+01  0.51100000000E-03 0.  1.
        -12    1    4    4    0    0 -0.12858901144E+02 -0.14289517316E+01 -0.35209513770E+02  0.37511372964E+02  0.00000000000E+00 0.  1.
</event>
<event>
 8    1  0.2433390E-006  0.9118800E+02  0.7816164E-02  0.1184000E+00
        -11   -1    0    0    0    0  0.00000000000E+00  0.00000000000E+00  0.45593999997E+02  0.45594000000E+02  0.51100000000E-03 0.  1.
         11   -1    0    0    0    0 -0.00000000000E+00 -0.00000000000E+00 -0.45593999997E+02  0.45594000000E+02  0.51100000000E-03 0. -1.
         23    2    1    2    0    0  0.44408920985E-15  0.00000000000E+00 -0.35527136788E-14  0.91188000000E+02  0.91188000000E+02 0.  0.
    9900012    2    3    3    0    0 -0.21607049996E+01 -0.19632261253E+02  0.31075474430E+02  0.54367089649E+02  0.40000012473E+02 0.  0.
         12    1    3    3    0    0  0.21607049996E+01  0.19632261253E+02 -0.31075474430E+02  0.36820910351E+02  0.00000000000E+00 0. -1.
         11    1    4    4    0    0 -0.20984434508E+01  0.46119284232E+01  0.75857762058E+01  0.91223543892E+01  0.51100000000E-03 0. -1.
        -11    1    4    4    0    0 -0.43465625716E+01 -0.57628695457E+01  0.25183790985E+02  0.26197835793E+02  0.51100000000E-03 0.  1.
         12    1    4    4    0    0  0.42843010229E+01 -0.18481320131E+02 -0.16940927602E+01  0.19046899467E+02  0.00000000000E+00 0. -1.
</event>
<event>
 8    1  0.2433390E-006  0.9118800E+02  0.7816164E-02  0.1184000E+00
        -11   -1    0    0    0    0  0.00000000000E+00  0.00000000000E+00  0.45593999997E+02  0.45594000000E+02  0.51100000000E-03 0.  1.
         11   -1    0    0    0    0 -0.00000000000E+00 -0.00000000000E+00 -0.45593999997E+02  0.45594000000E+02  0.51100000000E-03 0. -1.
         23    2    1    2    0    0 -0.35527136788E-14 -0.88817841970E-15  0.00000000000E+00  0.91188000000E+02  0.91188000000E+02 0.  0.
    9900012    2    3    3    0    0  0.16469163420E+02  0.33673698223E+01  0.32759839239E+02  0.54367087596E+02  0.40000007792E+02 0.  0.
         12    1    3    3    0    0 -0.16469163420E+02 -0.33673698223E+01 -0.32759839239E+02  0.36820912404E+02  0.00000000000E+00 0. -1.
         11    1    4    4    0    0  0.13752990853E+02 -0.51776820029E+01  0.12273052264E+02  0.19146304095E+02  0.51100000000E-03 0. -1.
        -11    1    4    4    0    0 -0.59650056081E+01 -0.43173359336E+01  0.18074083029E+02  0.19516484290E+02  0.51100000000E-03 0.  1.
        -12    1    4    4    0    0  0.86811781751E+01  0.12862387759E+02  0.24127039463E+01  0.15704299211E+02  0.00000000000E+00 0.  1.
</event>
<event>
 8    1  0.2433390E-006  0.9118800E+02  0.7816164E-02  0.1184000E+00
        -11   -1    0    0    0    0  0.00000000000E+00  0.00000000000E+00  0.45593999997E+02  0.45594000000E+02  0.51100000000E-03 0.  1.
         11   -1    0    0    0    0 -0.00000000000E+00 -0.00000000000E+00 -0.45593999997E+02  0.45594000000E+02  0.51100000000E-03 0. -1.
         23    2    1    2    0    0  0.00000000000E+00  0.35527136788E-14  0.00000000000E+00  0.91188000000E+02  0.91188000000E+02 0.  0.
    9900012    2    3    3    0    0 -0.20487137532E+02 -0.19203128103E+02  0.23818003563E+02  0.54367078951E+02  0.39999988084E+02 0.  0.
         12    1    3    3    0    0  0.20487137532E+02  0.19203128103E+02 -0.23818003563E+02  0.36820921049E+02  0.00000000000E+00 0. -1.
         11    1    4    4    0    0 -0.53268153195E+01 -0.20492665502E+02  0.69998554108E+01  0.22300723684E+02  0.51100000000E-03 0. -1.
        -11    1    4    4    0    0 -0.57410098259E+01 -0.76398124824E+01  0.16518654571E+02  0.19083811927E+02  0.51100000000E-03 0.  1.
        -12    1    4    4    0    0 -0.94193123870E+01  0.89293498811E+01  0.29949358140E+00  0.12982543339E+02  0.00000000000E+00 0.  1.
</event>
<event>
 8    1  0.2433390E-006  0.9118800E+02  0.7816164E-02  0.1184000E+00
        -11   -1    0    0    0    0  0.00000000000E+00  0.00000000000E+00  0.45593999997E+02  0.45594000000E+02  0.51100000000E-03 0. -1.
         11   -1    0    0    0    0 -0.00000000000E+00 -0.00000000000E+00 -0.45593999997E+02  0.45594000000E+02  0.51100000000E-03 0.  1.
         23    2    1    2    0    0  0.00000000000E+00  0.35527136788E-14  0.00000000000E+00  0.91188000000E+02  0.91188000000E+02 0.  0.
    9900012    2    3    3    0    0  0.23458661737E+02  0.18234488947E+02 -0.21747985392E+02  0.54367078416E+02  0.39999986866E+02 0.  0.
         12    1    3    3    0    0 -0.23458661737E+02 -0.18234488947E+02  0.21747985392E+02  0.36820921584E+02  0.00000000000E+00 0. -1.
         11    1    4    4    0    0  0.31085910824E+01 -0.42078781891E+00  0.10330145762E+02  0.10795939636E+02  0.51100000000E-03 0. -1.
        -11    1    4    4    0    0  0.21369565374E+02  0.16414094219E+02 -0.30205122682E+02  0.40477527714E+02  0.51100000000E-03 0.  1.
         12    1    4    4    0    0 -0.10194947197E+01  0.22411825467E+01 -0.18730084726E+01  0.30936110663E+01  0.00000000000E+00 0. -1.
</event>
<event>
 8    1  0.2433390E-006  0.9118800E+02  0.7816164E-02  0.1184000E+00
        -11   -1    0    0    0    0  0.00000000000E+00  0.00000000000E+00  0.45593999997E+02  0.45594000000E+02  0.51100000000E-03 0. -1.
         11   -1    0    0    0    0 -0.00000000000E+00 -0.00000000000E+00 -0.45593999997E+02  0.45594000000E+02  0.51100000000E-03 0.  1.
         23    2    1    2    0    0  0.35527136788E-14 -0.88817841970E-15  0.35527136788E-14  0.91188000000E+02  0.91188000000E+02 0.  0.
    9900012    2    3    3    0    0 -0.28025650827E+02 -0.51657502140E+01 -0.23316436051E+02  0.54367105529E+02  0.40000048675E+02 0.  0.
         12    1    3    3    0    0  0.28025650827E+02  0.51657502140E+01  0.23316436051E+02  0.36820894471E+02  0.00000000000E+00 0. -1.
         11    1    4    4    0    0 -0.60724717977E+01  0.37477778029E+01 -0.77495751874E+01  0.10534546409E+02  0.51100000000E-03 0. -1.
        -11    1    4    4    0    0  0.20029375203E+00  0.95130880909E+01 -0.11187102734E+02  0.14686396102E+02  0.51100000000E-03 0.  1.
         12    1    4    4    0    0 -0.22153472781E+02 -0.18426616108E+02 -0.43797581292E+01  0.29146163019E+02  0.00000000000E+00 0. -1.
</event>
<event>
 8    1  0.2433390E-006  0.9118800E+02  0.7816164E-02  0.1184000E+00
        -11   -1    0    0    0    0  0.00000000000E+00  0.00000000000E+00  0.45593999997E+02  0.45594000000E+02  0.51100000000E-03 0.  1.
         11   -1    0    0    0    0 -0.00000000000E+00 -0.00000000000E+00 -0.45593999997E+02  0.45594000000E+02  0.51100000000E-03 0. -1.
         23    2    1    2    0    0 -0.35527136788E-14  0.00000000000E+00 -0.71054273576E-14  0.91188000000E+02  0.91188000000E+02 0.  0.
    9900012    2    3    3    0    0  0.16294469936E+02 -0.77011362169E+01  0.32108613439E+02  0.54367077870E+02  0.39999985620E+02 0.  0.
         12    1    3    3    0    0 -0.16294469936E+02  0.77011362169E+01 -0.32108613439E+02  0.36820922130E+02  0.00000000000E+00 0. -1.
         11    1    4    4    0    0  0.10185096727E+02 -0.12339143046E+02  0.85067409472E+01  0.18120576378E+02  0.51100000000E-03 0. -1.
        -11    1    4    4    0    0 -0.75365581024E+01 -0.16040221506E+01  0.19075351156E+02  0.20572836875E+02  0.51100000000E-03 0.  1.
         12    1    4    4    0    0  0.13645931311E+02  0.62420289801E+01  0.45265213363E+01  0.15673664617E+02  0.00000000000E+00 0. -1.
</event>
<event>
 8    1  0.2433390E-006  0.9118800E+02  0.7816164E-02  0.1184000E+00
        -11   -1    0    0    0    0  0.00000000000E+00  0.00000000000E+00  0.45593999997E+02  0.45594000000E+02  0.51100000000E-03 0.  1.
         11   -1    0    0    0    0 -0.00000000000E+00 -0.00000000000E+00 -0.45593999997E+02  0.45594000000E+02  0.51100000000E-03 0. -1.
         23    2    1    2    0    0 -0.35527136788E-14  0.00000000000E+00  0.00000000000E+00  0.91188000000E+02  0.91188000000E+02 0.  0.
    9900012    2    3    3    0    0  0.30130307504E+02  0.17416666907E+02 -0.12025494038E+02  0.54366970366E+02  0.39999740543E+02 0.  0.
         12    1    3    3    0    0 -0.30130307504E+02 -0.17416666907E+02  0.12025494038E+02  0.36821029634E+02  0.00000000000E+00 0. -1.
         11    1    4    4    0    0  0.21283698085E+02  0.68633468026E+01  0.10261059914E+02  0.24604688259E+02  0.51100000000E-03 0. -1.
        -11    1    4    4    0    0  0.10065440530E+02  0.27630145977E+01 -0.70175449519E+01  0.12577491011E+02  0.51100000000E-03 0.  1.
         12    1    4    4    0    0 -0.12188311109E+01  0.77903055070E+01 -0.15269009000E+02  0.17184791096E+02  0.00000000000E+00 0. -1.
</event>
<event>
 8    1  0.2433390E-006  0.9118800E+02  0.7816164E-02  0.1184000E+00
        -11   -1    0    0    0    0  0.00000000000E+00  0.00000000000E+00  0.45593999997E+02  0.45594000000E+02  0.51100000000E-03 0. -1.
         11   -1    0    0    0    0 -0.00000000000E+00 -0.00000000000E+00 -0.45593999997E+02  0.45594000000E+02  0.51100000000E-03 0.  1.
         23    2    1    2    0    0  0.00000000000E+00  0.00000000000E+00  0.35527136788E-14  0.91188000000E+02  0.91188000000E+02 0.  0.
    9900012    2    3    3    0    0  0.24727887445E+02  0.13150916912E+02  0.23903242020E+02  0.54367081867E+02  0.39999994732E+02 0.  0.
        -12    1    3    3    0    0 -0.24727887445E+02 -0.13150916912E+02 -0.23903242020E+02  0.36820918133E+02  0.00000000000E+00 0.  1.
         11    1    4    4    0    0  0.33324335379E+01  0.13650746975E+01 -0.51229621540E+01  0.62620510783E+01  0.51100000000E-03 0. -1.
        -11    1    4    4    0    0 -0.48750082507E+01 -0.44174918102E+01  0.95902072975E+01  0.11629790007E+02  0.51100000000E-03 0.  1.
         12    1    4    4    0    0  0.26270462157E+02  0.16203334024E+02  0.19435996877E+02  0.36475240781E+02  0.00000000000E+00 0. -1.
</event>
<event>
 8    1  0.2433390E-006  0.9118800E+02  0.7816164E-02  0.1184000E+00
        -11   -1    0    0    0    0  0.00000000000E+00  0.00000000000E+00  0.45593999997E+02  0.45594000000E+02  0.51100000000E-03 0.  1.
         11   -1    0    0    0    0 -0.00000000000E+00 -0.00000000000E+00 -0.45593999997E+02  0.45594000000E+02  0.51100000000E-03 0. -1.
         23    2    1    2    0    0  0.35527136788E-14  0.35527136788E-14 -0.17763568394E-14  0.91188000000E+02  0.91188000000E+02 0.  0.
    9900012    2    3    3    0    0  0.30559431920E+02  0.16861839692E+02 -0.11729368063E+02  0.54367101149E+02  0.40000038689E+02 0.  0.
        -12    1    3    3    0    0 -0.30559431920E+02 -0.16861839692E+02  0.11729368063E+02  0.36820898851E+02  0.00000000000E+00 0.  1.
         11    1    4    4    0    0  0.12939101829E+02  0.56450286211E+01 -0.93457953865E+01  0.16930168219E+02  0.51100000000E-03 0. -1.
        -11    1    4    4    0    0 -0.63478114979E+01 -0.36524263625E+01 -0.53586377382E+01  0.90746861001E+01  0.51100000000E-03 0.  1.
         12    1    4    4    0    0  0.23968141589E+02  0.14869237434E+02  0.29750650616E+01  0.28362246829E+02  0.00000000000E+00 0. -1.
</event>
<event>
 8    1  0.2433390E-006  0.9118800E+02  0.7816164E-02  0.1184000E+00
        -11   -1    0    0    0    0  0.00000000000E+00  0.00000000000E+00  0.45593999997E+02  0.45594000000E+02  0.51100000000E-03 0.  1.
         11   -1    0    0    0    0 -0.00000000000E+00 -0.00000000000E+00 -0.45593999997E+02  0.45594000000E+02  0.51100000000E-03 0. -1.
         23    2    1    2    0    0  0.00000000000E+00  0.00000000000E+00  0.00000000000E+00  0.91188000000E+02  0.91188000000E+02 0.  0.
    9900012    2    3    3    0    0 -0.30914327482E+02 -0.88898799461E+01 -0.17918028330E+02  0.54367063723E+02  0.39999953369E+02 0.  0.
        -12    1    3    3    0    0  0.30914327482E+02  0.88898799461E+01  0.17918028330E+02  0.36820936277E+02  0.00000000000E+00 0.  1.
         11    1    4    4    0    0 -0.19367549646E+02 -0.15184026508E+02 -0.15208575182E+02  0.28930216032E+02  0.51100000000E-03 0. -1.
        -11    1    4    4    0    0 -0.11714558441E+02 -0.76087824908E+00  0.68217784254E+01  0.13577425247E+02  0.51100000000E-03 0.  1.
         12    1    4    4    0    0  0.16778060603E+00  0.70550248111E+01 -0.95312315728E+01  0.11859422444E+02  0.00000000000E+00 0. -1.
</event>
<event>
 8    1  0.2433390E-006  0.9118800E+02  0.7816164E-02  0.1184000E+00
        -11   -1    0    0    0    0  0.00000000000E+00  0.00000000000E+00  0.45593999997E+02  0.45594000000E+02  0.51100000000E-03 0.  1.
         11   -1    0    0    0    0 -0.00000000000E+00 -0.00000000000E+00 -0.45593999997E+02  0.45594000000E+02  0.51100000000E-03 0. -1.
         23    2    1    2    0    0  0.00000000000E+00  0.00000000000E+00  0.66613381478E-15  0.91188000000E+02  0.91188000000E+02 0.  0.
    9900012    2    3    3    0    0  0.22729533683E+02  0.28956478208E+02  0.81910955992E+00  0.54367078337E+02  0.39999986685E+02 0.  0.
         12    1    3    3    0    0 -0.22729533683E+02 -0.28956478208E+02 -0.81910955992E+00  0.36820921663E+02  0.00000000000E+00 0. -1.
         11    1    4    4    0    0  0.77911258764E+01  0.14579824424E+02  0.56724535721E+01  0.17477117967E+02  0.51100000000E-03 0. -1.
        -11    1    4    4    0    0  0.20770979012E+02  0.12840775343E+02  0.53857348566E+01  0.25006503569E+02  0.51100000000E-03 0.  1.
         12    1    4    4    0    0 -0.58325712057E+01  0.15358784414E+01 -0.10239078869E+02  0.11883456801E+02  0.00000000000E+00 0. -1.
</event>
<event>
 8    1  0.2433390E-006  0.9118800E+02  0.7816164E-02  0.1184000E+00
        -11   -1    0    0    0    0  0.00000000000E+00  0.00000000000E+00  0.45593999997E+02  0.45594000000E+02  0.51100000000E-03 0.  1.
         11   -1    0    0    0    0 -0.00000000000E+00 -0.00000000000E+00 -0.45593999997E+02  0.45594000000E+02  0.51100000000E-03 0. -1.
         23    2    1    2    0    0  0.00000000000E+00 -0.14210854715E-13 -0.88817841970E-15  0.91188000000E+02  0.91188000000E+02 0.  0.
    9900012    2    3    3    0    0  0.29290924866E+01  0.36535072781E+02 -0.35196402361E+01  0.54367095702E+02  0.40000026273E+02 0.  0.
         12    1    3    3    0    0 -0.29290924866E+01 -0.36535072781E+02  0.35196402361E+01  0.36820904298E+02  0.00000000000E+00 0. -1.
         11    1    4    4    0    0  0.74468657672E+01  0.39492178197E+01  0.60154587915E+01  0.10355572214E+02  0.51100000000E-03 0. -1.
        -11    1    4    4    0    0 -0.86992604400E+01  0.99757576328E+01  0.76662474930E+01  0.15295889103E+02  0.51100000000E-03 0.  1.
         12    1    4    4    0    0  0.41814871594E+01  0.22610097328E+02 -0.17201346521E+02  0.28715634386E+02  0.00000000000E+00 0. -1.
</event>
<event>
 8    1  0.2433390E-006  0.9118800E+02  0.7816164E-02  0.1184000E+00
        -11   -1    0    0    0    0  0.00000000000E+00  0.00000000000E+00  0.45593999997E+02  0.45594000000E+02  0.51100000000E-03 0.  1.
         11   -1    0    0    0    0 -0.00000000000E+00 -0.00000000000E+00 -0.45593999997E+02  0.45594000000E+02  0.51100000000E-03 0. -1.
         23    2    1    2    0    0 -0.71054273576E-14  0.17763568394E-14  0.00000000000E+00  0.91188000000E+02  0.91188000000E+02 0.  0.
    9900012    2    3    3    0    0 -0.33972890476E+02  0.13341865671E+02 -0.48611712521E+01  0.54366896638E+02  0.39999572463E+02 0.  0.
         12    1    3    3    0    0  0.33972890476E+02 -0.13341865671E+02  0.48611712521E+01  0.36821103362E+02  0.00000000000E+00 0. -1.
         11    1    4    4    0    0 -0.74350486147E+01  0.87004438867E+01 -0.10916354421E+02  0.15815956052E+02  0.51100000000E-03 0. -1.
        -11    1    4    4    0    0 -0.16403721555E+02  0.13109491504E+02 -0.47011513939E+01  0.21518403124E+02  0.51100000000E-03 0.  1.
        -12    1    4    4    0    0 -0.10134120306E+02 -0.84680697193E+01  0.10756334563E+02  0.17032537462E+02  0.00000000000E+00 0.  1.
</event>
<event>
 8    1  0.2433390E-006  0.9118800E+02  0.7816164E-02  0.1184000E+00
        -11   -1    0    0    0    0  0.00000000000E+00  0.00000000000E+00  0.45593999997E+02  0.45594000000E+02  0.51100000000E-03 0.  1.
         11   -1    0    0    0    0 -0.00000000000E+00 -0.00000000000E+00 -0.45593999997E+02  0.45594000000E+02  0.51100000000E-03 0. -1.
         23    2    1    2    0    0 -0.17763568394E-14  0.00000000000E+00  0.00000000000E+00  0.91188000000E+02  0.91188000000E+02 0.  0.
    9900012    2    3    3    0    0  0.46369743136E+01  0.62930124753E+01  0.35981640912E+02  0.54367054609E+02  0.39999932592E+02 0.  0.
         12    1    3    3    0    0 -0.46369743136E+01 -0.62930124753E+01 -0.35981640912E+02  0.36820945391E+02  0.00000000000E+00 0. -1.
         11    1    4    4    0    0  0.15982272601E+02  0.78837877983E+00  0.19739115470E+02  0.25410376982E+02  0.51100000000E-03 0.  1.
        -11    1    4    4    0    0  0.26853121929E+01  0.56958356192E+01  0.13161694972E+02  0.14590533224E+02  0.51100000000E-03 0. -1.
         12    1    4    4    0    0 -0.14030610480E+02 -0.19120192373E+00  0.30808304707E+01  0.14366144403E+02  0.00000000000E+00 0. -1.
</event>
<event>
 8    1  0.2433390E-006  0.9118800E+02  0.7816164E-02  0.1184000E+00
        -11   -1    0    0    0    0  0.00000000000E+00  0.00000000000E+00  0.45593999997E+02  0.45594000000E+02  0.51100000000E-03 0.  1.
         11   -1    0    0    0    0 -0.00000000000E+00 -0.00000000000E+00 -0.45593999997E+02  0.45594000000E+02  0.51100000000E-03 0. -1.
         23    2    1    2    0    0 -0.35527136788E-14  0.00000000000E+00  0.00000000000E+00  0.91188000000E+02  0.91188000000E+02 0.  0.
    9900012    2    3    3    0    0  0.17292124315E+02  0.32006004813E+02 -0.56900740228E+01  0.54367097651E+02  0.40000030715E+02 0.  0.
        -12    1    3    3    0    0 -0.17292124315E+02 -0.32006004813E+02  0.56900740228E+01  0.36820902349E+02  0.00000000000E+00 0.  1.
         11    1    4    4    0    0  0.21562401593E+02  0.25840413729E+02 -0.28640814058E+01  0.33776724334E+02  0.51100000000E-03 0. -1.
        -11    1    4    4    0    0 -0.53810972085E+01  0.89438180451E+00 -0.10135540925E+02  0.11510226587E+02  0.51100000000E-03 0.  1.
         12    1    4    4    0    0  0.11108199310E+01  0.52712092791E+01  0.73095483078E+01  0.90801467304E+01  0.00000000000E+00 0. -1.
</event>
<event>
 8    1  0.2433390E-006  0.9118800E+02  0.7816164E-02  0.1184000E+00
        -11   -1    0    0    0    0  0.00000000000E+00  0.00000000000E+00  0.45593999997E+02  0.45594000000E+02  0.51100000000E-03 0. -1.
         11   -1    0    0    0    0 -0.00000000000E+00 -0.00000000000E+00 -0.45593999997E+02  0.45594000000E+02  0.51100000000E-03 0.  1.
         23    2    1    2    0    0 -0.71054273576E-14  0.00000000000E+00  0.00000000000E+00  0.91188000000E+02  0.91188000000E+02 0.  0.
    9900012    2    3    3    0    0  0.34762318861E+02 -0.45079966933E+01  0.11271172206E+02  0.54367079728E+02  0.39999989857E+02 0.  0.
         12    1    3    3    0    0 -0.34762318861E+02  0.45079966933E+01 -0.11271172206E+02  0.36820920272E+02  0.00000000000E+00 0. -1.
         11    1    4    4    0    0  0.10450180071E+02 -0.69733341356E+00  0.13278734656E+02  0.16912046940E+02  0.51100000000E-03 0. -1.
        -11    1    4    4    0    0  0.87881750240E+01  0.11946945490E+02  0.20304833341E+01  0.14969448541E+02  0.51100000000E-03 0.  1.
        -12    1    4    4    0    0  0.15523963766E+02 -0.15757608770E+02 -0.40380457840E+01  0.22485584247E+02  0.00000000000E+00 0.  1.
</event>
<event>
 8    1  0.2433390E-006  0.9118800E+02  0.7816164E-02  0.1184000E+00
        -11   -1    0    0    0    0  0.00000000000E+00  0.00000000000E+00  0.45593999997E+02  0.45594000000E+02  0.51100000000E-03 0.  1.
         11   -1    0    0    0    0 -0.00000000000E+00 -0.00000000000E+00 -0.45593999997E+02  0.45594000000E+02  0.51100000000E-03 0. -1.
         23    2    1    2    0    0 -0.35527136788E-14  0.00000000000E+00  0.00000000000E+00  0.91188000000E+02  0.91188000000E+02 0.  0.
    9900012    2    3    3    0    0  0.13513863872E+02 -0.11194440481E+02  0.32370350477E+02  0.54367087403E+02  0.40000007354E+02 0.  0.
         12    1    3    3    0    0 -0.13513863872E+02  0.11194440481E+02 -0.32370350477E+02  0.36820912597E+02  0.00000000000E+00 0. -1.
         11    1    4    4    0    0 -0.12793786009E+01 -0.74666155582E+01  0.39027152720E+01  0.85216397632E+01  0.51100000000E-03 0.  1.
        -11    1    4    4    0    0  0.22361005631E+02 -0.40952084274E+01  0.81310425165E+01  0.24143304612E+02  0.51100000000E-03 0. -1.
         12    1    4    4    0    0 -0.75677631581E+01  0.36738350432E+00  0.20336592689E+02  0.21702143029E+02  0.00000000000E+00 0. -1.
</event>
<event>
 8    1  0.2433390E-006  0.9118800E+02  0.7816164E-02  0.1184000E+00
        -11   -1    0    0    0    0  0.00000000000E+00  0.00000000000E+00  0.45593999997E+02  0.45594000000E+02  0.51100000000E-03 0. -1.
         11   -1    0    0    0    0 -0.00000000000E+00 -0.00000000000E+00 -0.45593999997E+02  0.45594000000E+02  0.51100000000E-03 0.  1.
         23    2    1    2    0    0  0.00000000000E+00  0.00000000000E+00 -0.17763568394E-14  0.91188000000E+02  0.91188000000E+02 0.  0.
    9900012    2    3    3    0    0 -0.23258830896E+02  0.24667332314E+02  0.14364148477E+02  0.54367092086E+02  0.40000018030E+02 0.  0.
         12    1    3    3    0    0  0.23258830896E+02 -0.24667332314E+02 -0.14364148477E+02  0.36820907914E+02  0.00000000000E+00 0. -1.
         11    1    4    4    0    0 -0.23327256371E-01  0.76326166385E+01  0.15008181623E+02  0.16837544263E+02  0.51100000000E-03 0. -1.
        -11    1    4    4    0    0 -0.17193317707E+02  0.19053428776E+02 -0.88445551398E+01  0.27145339891E+02  0.51100000000E-03 0.  1.
        -12    1    4    4    0    0 -0.60421859322E+01 -0.20187131011E+01  0.82005219935E+01  0.10384207933E+02  0.00000000000E+00 0.  1.
</event>
<event>
 8    1  0.2433390E-006  0.9118800E+02  0.7816164E-02  0.1184000E+00
        -11   -1    0    0    0    0  0.00000000000E+00  0.00000000000E+00  0.45593999997E+02  0.45594000000E+02  0.51100000000E-03 0. -1.
         11   -1    0    0    0    0 -0.00000000000E+00 -0.00000000000E+00 -0.45593999997E+02  0.45594000000E+02  0.51100000000E-03 0.  1.
         23    2    1    2    0    0  0.00000000000E+00  0.17763568394E-14 -0.35527136788E-14  0.91188000000E+02  0.91188000000E+02 0.  0.
    9900012    2    3    3    0    0 -0.17560327147E+02  0.15669906630E+02 -0.28317263624E+02  0.54367102640E+02  0.40000042088E+02 0.  0.
         12    1    3    3    0    0  0.17560327147E+02 -0.15669906630E+02  0.28317263624E+02  0.36820897360E+02  0.00000000000E+00 0. -1.
         11    1    4    4    0    0  0.15920977175E+01  0.11619436924E+01 -0.46873197798E+01  0.50848653144E+01  0.51100000000E-03 0. -1.
        -11    1    4    4    0    0  0.61420588495E+00  0.13207103747E+02 -0.26160651006E+02  0.29311849133E+02  0.51100000000E-03 0.  1.
         12    1    4    4    0    0 -0.19766630749E+02  0.13008591899E+01  0.25307071624E+01  0.19970388192E+02  0.00000000000E+00 0. -1.
</event>
<event>
 8    1  0.2433390E-006  0.9118800E+02  0.7816164E-02  0.1184000E+00
        -11   -1    0    0    0    0  0.00000000000E+00  0.00000000000E+00  0.45593999997E+02  0.45594000000E+02  0.51100000000E-03 0.  1.
         11   -1    0    0    0    0 -0.00000000000E+00 -0.00000000000E+00 -0.45593999997E+02  0.45594000000E+02  0.51100000000E-03 0. -1.
         23    2    1    2    0    0  0.17763568394E-14  0.00000000000E+00  0.00000000000E+00  0.91188000000E+02  0.91188000000E+02 0.  0.
    9900012    2    3    3    0    0  0.14284839294E+02 -0.30039827006E+02 -0.15790236198E+02  0.54367090188E+02  0.40000013702E+02 0.  0.
        -12    1    3    3    0    0 -0.14284839294E+02  0.30039827006E+02  0.15790236198E+02  0.36820909812E+02  0.00000000000E+00 0.  1.
         11    1    4    4    0    0  0.17410586505E+02 -0.27967614192E+02 -0.17679799507E+02  0.37388384251E+02  0.51100000000E-03 0. -1.
        -11    1    4    4    0    0 -0.44770936683E+01 -0.25197734542E+01 -0.66038256346E+01  0.83668476291E+01  0.51100000000E-03 0.  1.
        -12    1    4    4    0    0  0.13513464571E+01  0.44756064103E+00  0.84933889433E+01  0.86118583080E+01  0.00000000000E+00 0.  1.
</event>
<event>
 8    1  0.2433390E-006  0.9118800E+02  0.7816164E-02  0.1184000E+00
        -11   -1    0    0    0    0  0.00000000000E+00  0.00000000000E+00  0.45593999997E+02  0.45594000000E+02  0.51100000000E-03 0.  1.
         11   -1    0    0    0    0 -0.00000000000E+00 -0.00000000000E+00 -0.45593999997E+02  0.45594000000E+02  0.51100000000E-03 0. -1.
         23    2    1    2    0    0  0.00000000000E+00 -0.35527136788E-14  0.00000000000E+00  0.91188000000E+02  0.91188000000E+02 0.  0.
    9900012    2    3    3    0    0 -0.22852854737E+02  0.23574869501E+02 -0.16665909994E+02  0.54367082066E+02  0.39999995185E+02 0.  0.
         12    1    3    3    0    0  0.22852854737E+02 -0.23574869501E+02  0.16665909994E+02  0.36820917934E+02  0.00000000000E+00 0. -1.
         11    1    4    4    0    0 -0.86471773940E+01 -0.52546784440E+01 -0.12648179767E+02  0.16197585441E+02  0.51100000000E-03 0. -1.
        -11    1    4    4    0    0 -0.90108502284E+01  0.42170773331E+01  0.53876083293E+01  0.11313950983E+02  0.51100000000E-03 0.  1.
         12    1    4    4    0    0 -0.51948271144E+01  0.24612470612E+02 -0.94053385555E+01  0.26855545642E+02  0.00000000000E+00 0. -1.
</event>
<event>
 8    1  0.2433390E-006  0.9118800E+02  0.7816164E-02  0.1184000E+00
        -11   -1    0    0    0    0  0.00000000000E+00  0.00000000000E+00  0.45593999997E+02  0.45594000000E+02  0.51100000000E-03 0.  1.
         11   -1    0    0    0    0 -0.00000000000E+00 -0.00000000000E+00 -0.45593999997E+02  0.45594000000E+02  0.51100000000E-03 0. -1.
         23    2    1    2    0    0  0.17763568394E-14  0.00000000000E+00  0.00000000000E+00  0.91188000000E+02  0.91188000000E+02 0.  0.
    9900012    2    3    3    0    0  0.15316347196E+02  0.29856615181E+02 -0.15158258135E+02  0.54367071832E+02  0.39999971855E+02 0.  0.
        -12    1    3    3    0    0 -0.15316347196E+02 -0.29856615181E+02  0.15158258135E+02  0.36820928168E+02  0.00000000000E+00 0.  1.
         11    1    4    4    0    0  0.11161320088E+02  0.13772329259E+01  0.45002716269E+00  0.11254970518E+02  0.51100000000E-03 0.  1.
        -11    1    4    4    0    0  0.11522229957E+02  0.22369205207E+02 -0.20414277859E+02  0.32401942311E+02  0.51100000000E-03 0. -1.
        -12    1    4    4    0    0 -0.73672028493E+01  0.61101770477E+01  0.48059925610E+01  0.10710159003E+02  0.00000000000E+00 0.  1.
</event>
<event>
 8    1  0.2433390E-006  0.9118800E+02  0.7816164E-02  0.1184000E+00
        -11   -1    0    0    0    0  0.00000000000E+00  0.00000000000E+00  0.45593999997E+02  0.45594000000E+02  0.51100000000E-03 0.  1.
         11   -1    0    0    0    0 -0.00000000000E+00 -0.00000000000E+00 -0.45593999997E+02  0.45594000000E+02  0.51100000000E-03 0. -1.
         23    2    1    2    0    0  0.00000000000E+00  0.44408920985E-15 -0.88817841970E-15  0.91188000000E+02  0.91188000000E+02 0.  0.
    9900012    2    3    3    0    0 -0.36165715748E+02 -0.25594625511E+01  0.64240860455E+01  0.54367099337E+02  0.40000034560E+02 0.  0.
        -12    1    3    3    0    0  0.36165715748E+02  0.25594625511E+01 -0.64240860455E+01  0.36820900663E+02  0.00000000000E+00 0.  1.
         11    1    4    4    0    0 -0.88229822153E+00  0.67084720746E+01  0.18770361228E+01  0.70217741771E+01  0.51100000000E-03 0. -1.
        -11    1    4    4    0    0 -0.29841326465E+01 -0.86876147356E+01 -0.84909114345E+01  0.12509007742E+02  0.51100000000E-03 0.  1.
        -12    1    4    4    0    0 -0.32299284879E+02 -0.58031989012E+00  0.13037961357E+02  0.34836317418E+02  0.00000000000E+00 0.  1.
</event>
<event>
 8    1  0.2433390E-006  0.9118800E+02  0.7816164E-02  0.1184000E+00
        -11   -1    0    0    0    0  0.00000000000E+00  0.00000000000E+00  0.45593999997E+02  0.45594000000E+02  0.51100000000E-03 0.  1.
         11   -1    0    0    0    0 -0.00000000000E+00 -0.00000000000E+00 -0.45593999997E+02  0.45594000000E+02  0.51100000000E-03 0. -1.
         23    2    1    2    0    0 -0.66613381478E-15  0.00000000000E+00  0.00000000000E+00  0.91188000000E+02  0.91188000000E+02 0.  0.
    9900012    2    3    3    0    0 -0.40283957671E+00 -0.36528003046E+02  0.46177116371E+01  0.54367074604E+02  0.39999978174E+02 0.  0.
        -12    1    3    3    0    0  0.40283957671E+00  0.36528003046E+02 -0.46177116371E+01  0.36820925396E+02  0.00000000000E+00 0.  1.
         11    1    4    4    0    0 -0.94068609105E+01 -0.19727616077E+02 -0.53676847941E+01  0.22505108500E+02  0.51100000000E-03 0. -1.
        -11    1    4    4    0    0 -0.74919999901E+01 -0.53773624342E+01 -0.47450933566E+00  0.92342433351E+01  0.51100000000E-03 0.  1.
        -12    1    4    4    0    0  0.16496021324E+02 -0.11423024535E+02  0.10459905767E+02  0.22627722769E+02  0.00000000000E+00 0.  1.
</event>
<event>
 8    1  0.2433390E-006  0.9118800E+02  0.7816164E-02  0.1184000E+00
        -11   -1    0    0    0    0  0.00000000000E+00  0.00000000000E+00  0.45593999997E+02  0.45594000000E+02  0.51100000000E-03 0. -1.
         11   -1    0    0    0    0 -0.00000000000E+00 -0.00000000000E+00 -0.45593999997E+02  0.45594000000E+02  0.51100000000E-03 0.  1.
         23    2    1    2    0    0  0.00000000000E+00  0.00000000000E+00  0.00000000000E+00  0.91188000000E+02  0.91188000000E+02 0.  0.
    9900012    2    3    3    0    0 -0.17608217121E+02  0.96167753521E+01 -0.30874747880E+02  0.54367058472E+02  0.39999941399E+02 0.  0.
         12    1    3    3    0    0  0.17608217121E+02 -0.96167753521E+01  0.30874747880E+02  0.36820941528E+02  0.00000000000E+00 0. -1.
         11    1    4    4    0    0 -0.11539631787E+01 -0.35953892370E+01 -0.45100237937E+01  0.58820718853E+01  0.51100000000E-03 0. -1.
        -11    1    4    4    0    0 -0.20059084112E+02  0.95483212108E+01 -0.33191190323E+02  0.39939859898E+02  0.51100000000E-03 0.  1.
        -12    1    4    4    0    0  0.36048301700E+01  0.36638433783E+01  0.68264662361E+01  0.85451266889E+01  0.00000000000E+00 0.  1.
</event>
<event>
 8    1  0.2433390E-006  0.9118800E+02  0.7816164E-02  0.1184000E+00
        -11   -1    0    0    0    0  0.00000000000E+00  0.00000000000E+00  0.45593999997E+02  0.45594000000E+02  0.51100000000E-03 0.  1.
         11   -1    0    0    0    0 -0.00000000000E+00 -0.00000000000E+00 -0.45593999997E+02  0.45594000000E+02  0.51100000000E-03 0. -1.
         23    2    1    2    0    0 -0.88817841970E-15  0.00000000000E+00  0.00000000000E+00  0.91188000000E+02  0.91188000000E+02 0.  0.
    9900012    2    3    3    0    0 -0.74314119676E+01  0.55276288298E+01  0.35637026325E+02  0.54367106344E+02  0.40000050533E+02 0.  0.
         12    1    3    3    0    0  0.74314119676E+01 -0.55276288298E+01 -0.35637026325E+02  0.36820893656E+02  0.00000000000E+00 0. -1.
         11    1    4    4    0    0  0.51221602107E+01 -0.59108028070E+01  0.16199395142E+02  0.17988733092E+02  0.51100000000E-03 0. -1.
        -11    1    4    4    0    0 -0.68715155431E+01  0.11714133336E+02  0.24981929685E+02  0.28434757898E+02  0.51100000000E-03 0.  1.
         12    1    4    4    0    0 -0.56820566351E+01 -0.27570169902E+00 -0.55442985008E+01  0.79436153543E+01  0.00000000000E+00 0. -1.
</event>
<event>
 8    1  0.2433390E-006  0.9118800E+02  0.7816164E-02  0.1184000E+00
        -11   -1    0    0    0    0  0.00000000000E+00  0.00000000000E+00  0.45593999997E+02  0.45594000000E+02  0.51100000000E-03 0.  1.
         11   -1    0    0    0    0 -0.00000000000E+00 -0.00000000000E+00 -0.45593999997E+02  0.45594000000E+02  0.51100000000E-03 0. -1.
         23    2    1    2    0    0 -0.35527136788E-14  0.00000000000E+00  0.00000000000E+00  0.91188000000E+02  0.91188000000E+02 0.  0.
    9900012    2    3    3    0    0 -0.28362955249E+02 -0.18638125708E+02 -0.14280819219E+02  0.54367098898E+02  0.40000033559E+02 0.  0.
        -12    1    3    3    0    0  0.28362955249E+02  0.18638125708E+02  0.14280819219E+02  0.36820901102E+02  0.00000000000E+00 0.  1.
         11    1    4    4    0    0 -0.74949184166E+01 -0.76364986656E+01 -0.14551854869E+02  0.18062292057E+02  0.51100000000E-03 0. -1.
        -11    1    4    4    0    0 -0.13952975537E+02 -0.16556912240E+02 -0.90232625218E+01  0.23457112697E+02  0.51100000000E-03 0.  1.
        -12    1    4    4    0    0 -0.69150612953E+01  0.55552851972E+01  0.92942981721E+01  0.12847694145E+02  0.00000000000E+00 0.  1.
</event>
<event>
 8    1  0.2433390E-006  0.9118800E+02  0.7816164E-02  0.1184000E+00
        -11   -1    0    0    0    0  0.00000000000E+00  0.00000000000E+00  0.45593999997E+02  0.45594000000E+02  0.51100000000E-03 0. -1.
         11   -1    0    0    0    0 -0.00000000000E+00 -0.00000000000E+00 -0.45593999997E+02  0.45594000000E+02  0.51100000000E-03 0.  1.
         23    2    1    2    0    0  0.00000000000E+00  0.00000000000E+00  0.00000000000E+00  0.91188000000E+02  0.91188000000E+02 0.  0.
    9900012    2    3    3    0    0 -0.22197680988E+02 -0.79869101336E+01 -0.28271002862E+02  0.54367117643E+02  0.40000076291E+02 0.  0.
         12    1    3    3    0    0  0.22197680988E+02  0.79869101336E+01  0.28271002862E+02  0.36820882357E+02  0.00000000000E+00 0. -1.
         11    1    4    4    0    0 -0.20824669693E+02 -0.35733802484E+01  0.30946820258E+01  0.21354460220E+02  0.51100000000E-03 0. -1.
        -11    1    4    4    0    0  0.60671548991E+00 -0.29855266602E+00 -0.25820022050E+02  0.25828874856E+02  0.51100000000E-03 0.  1.
        -12    1    4    4    0    0 -0.19797267850E+01 -0.41149772192E+01 -0.55456628376E+01  0.71837825667E+01  0.00000000000E+00 0.  1.
</event>
<event>
 8    1  0.2433390E-006  0.9118800E+02  0.7816164E-02  0.1184000E+00
        -11   -1    0    0    0    0  0.00000000000E+00  0.00000000000E+00  0.45593999997E+02  0.45594000000E+02  0.51100000000E-03 0.  1.
         11   -1    0    0    0    0 -0.00000000000E+00 -0.00000000000E+00 -0.45593999997E+02  0.45594000000E+02  0.51100000000E-03 0. -1.
         23    2    1    2    0    0 -0.88817841970E-15  0.00000000000E+00  0.71054273576E-14  0.91188000000E+02  0.91188000000E+02 0.  0.
    9900012    2    3    3    0    0 -0.65794884648E+01 -0.16789967261E+02 -0.32102780928E+02  0.54367065569E+02  0.39999957578E+02 0.  0.
        -12    1    3    3    0    0  0.65794884648E+01  0.16789967261E+02  0.32102780928E+02  0.36820934431E+02  0.00000000000E+00 0.  1.
         11    1    4    4    0    0  0.85522174533E+01 -0.17345240484E+01 -0.20778671452E+02  0.22536685306E+02  0.51100000000E-03 0. -1.
        -11    1    4    4    0    0  0.36345944244E+01 -0.54557319245E+01 -0.82356631453E+01  0.10526226065E+02  0.51100000000E-03 0.  1.
        -12    1    4    4    0    0 -0.18766300342E+02 -0.95997112877E+01 -0.30884463309E+01  0.21304154198E+02  0.00000000000E+00 0.  1.
</event>
<event>
 8    1  0.2433390E-006  0.9118800E+02  0.7816164E-02  0.1184000E+00
        -11   -1    0    0    0    0  0.00000000000E+00  0.00000000000E+00  0.45593999997E+02  0.45594000000E+02  0.51100000000E-03 0. -1.
         11   -1    0    0    0    0 -0.00000000000E+00 -0.00000000000E+00 -0.45593999997E+02  0.45594000000E+02  0.51100000000E-03 0.  1.
         23    2    1    2    0    0  0.88817841970E-15  0.88817841970E-15  0.71054273576E-14  0.91188000000E+02  0.91188000000E+02 0.  0.
    9900012    2    3    3    0    0 -0.33850086700E+01 -0.51918296804E+01 -0.36295530117E+02  0.54367097165E+02  0.40000029607E+02 0.  0.
         12    1    3    3    0    0  0.33850086700E+01  0.51918296804E+01  0.36295530117E+02  0.36820902835E+02  0.00000000000E+00 0. -1.
         11    1    4    4    0    0 -0.62116822809E+01 -0.18762753690E+01 -0.42459686925E+01  0.77545893778E+01  0.51100000000E-03 0. -1.
        -11    1    4    4    0    0 -0.10380723230E+02  0.91828525186E+01 -0.21530088499E+02  0.25605251535E+02  0.51100000000E-03 0.  1.
        -12    1    4    4    0    0  0.13207396841E+02 -0.12498406830E+02 -0.10519472926E+02  0.21007256252E+02  0.00000000000E+00 0.  1.
</event>
<event>
 8    1  0.2433390E-006  0.9118800E+02  0.7816164E-02  0.1184000E+00
        -11   -1    0    0    0    0  0.00000000000E+00  0.00000000000E+00  0.45593999997E+02  0.45594000000E+02  0.51100000000E-03 0. -1.
         11   -1    0    0    0    0 -0.00000000000E+00 -0.00000000000E+00 -0.45593999997E+02  0.45594000000E+02  0.51100000000E-03 0.  1.
         23    2    1    2    0    0  0.00000000000E+00  0.35527136788E-14  0.35527136788E-14  0.91188000000E+02  0.91188000000E+02 0.  0.
    9900012    2    3    3    0    0 -0.28545526290E+01 -0.30829427457E+02 -0.19929323478E+02  0.54367082001E+02  0.39999995037E+02 0.  0.
         12    1    3    3    0    0  0.28545526290E+01  0.30829427457E+02  0.19929323478E+02  0.36820917999E+02  0.00000000000E+00 0. -1.
         11    1    4    4    0    0  0.11219439657E+01 -0.20774239936E+02  0.80430130115E+01  0.22305108423E+02  0.51100000000E-03 0. -1.
        -11    1    4    4    0    0 -0.48007589965E+01 -0.56891261881E+01 -0.57672655272E+01  0.94167295622E+01  0.51100000000E-03 0.  1.
        -12    1    4    4    0    0  0.82426240187E+00 -0.43660613323E+01 -0.22205070963E+02  0.22645244016E+02  0.00000000000E+00 0.  1.
</event>
<event>
 8    1  0.2433390E-006  0.9118800E+02  0.7816164E-02  0.1184000E+00
        -11   -1    0    0    0    0  0.00000000000E+00  0.00000000000E+00  0.45593999997E+02  0.45594000000E+02  0.51100000000E-03 0.  1.
         11   -1    0    0    0    0 -0.00000000000E+00 -0.00000000000E+00 -0.45593999997E+02  0.45594000000E+02  0.51100000000E-03 0. -1.
         23    2    1    2    0    0  0.00000000000E+00  0.00000000000E+00  0.00000000000E+00  0.91188000000E+02  0.91188000000E+02 0.  0.
    9900012    2    3    3    0    0  0.25006778852E+02  0.10350075413E+02  0.24966311325E+02  0.54367085416E+02  0.40000002823E+02 0.  0.
         12    1    3    3    0    0 -0.25006778852E+02 -0.10350075413E+02 -0.24966311325E+02  0.36820914584E+02  0.00000000000E+00 0. -1.
         11    1    4    4    0    0  0.15978816882E+02  0.19423511630E+02  0.29639383325E+01  0.25325487630E+02  0.51100000000E-03 0. -1.
        -11    1    4    4    0    0 -0.82089376162E+00 -0.81139147115E+01  0.56258130871E+01  0.99075350953E+01  0.51100000000E-03 0.  1.
         12    1    4    4    0    0  0.98488557320E+01 -0.95952150507E+00  0.16376559905E+02  0.19134062691E+02  0.00000000000E+00 0. -1.
</event>
<event>
 8    1  0.2433390E-006  0.9118800E+02  0.7816164E-02  0.1184000E+00
        -11   -1    0    0    0    0  0.00000000000E+00  0.00000000000E+00  0.45593999997E+02  0.45594000000E+02  0.51100000000E-03 0.  1.
         11   -1    0    0    0    0 -0.00000000000E+00 -0.00000000000E+00 -0.45593999997E+02  0.45594000000E+02  0.51100000000E-03 0. -1.
         23    2    1    2    0    0 -0.35527136788E-14  0.00000000000E+00  0.35527136788E-14  0.91188000000E+02  0.91188000000E+02 0.  0.
    9900012    2    3    3    0    0 -0.24629566482E+02 -0.13148435750E+02  0.24005898603E+02  0.54367081007E+02  0.39999992772E+02 0.  0.
         12    1    3    3    0    0  0.24629566482E+02  0.13148435750E+02 -0.24005898603E+02  0.36820918993E+02  0.00000000000E+00 0. -1.
         11    1    4    4    0    0 -0.18219432576E+02 -0.12498499691E+02  0.73242610097E+01  0.23276705469E+02  0.51100000000E-03 0. -1.
        -11    1    4    4    0    0 -0.12546025451E+02 -0.73740970135E+01  0.33265688094E+01  0.14928031407E+02  0.51100000000E-03 0.  1.
         12    1    4    4    0    0  0.61358915448E+01  0.67241609545E+01  0.13355068784E+02  0.16162344131E+02  0.00000000000E+00 0. -1.
</event>
<event>
 8    1  0.2433390E-006  0.9118800E+02  0.7816164E-02  0.1184000E+00
        -11   -1    0    0    0    0  0.00000000000E+00  0.00000000000E+00  0.45593999997E+02  0.45594000000E+02  0.51100000000E-03 0. -1.
         11   -1    0    0    0    0 -0.00000000000E+00 -0.00000000000E+00 -0.45593999997E+02  0.45594000000E+02  0.51100000000E-03 0.  1.
         23    2    1    2    0    0  0.00000000000E+00  0.00000000000E+00  0.00000000000E+00  0.91188000000E+02  0.91188000000E+02 0.  0.
    9900012    2    3    3    0    0  0.10063514161E+02 -0.22210202136E+02 -0.27590081241E+02  0.54367082316E+02  0.39999995757E+02 0.  0.
         12    1    3    3    0    0 -0.10063514161E+02  0.22210202136E+02  0.27590081241E+02  0.36820917684E+02  0.00000000000E+00 0. -1.
         11    1    4    4    0    0  0.75875572431E+01 -0.17125710094E+02  0.38841052192E+01  0.19129747640E+02  0.51100000000E-03 0. -1.
        -11    1    4    4    0    0 -0.45118230784E+01 -0.72385552354E+01 -0.17264544471E+02  0.19256628091E+02  0.51100000000E-03 0.  1.
        -12    1    4    4    0    0  0.69877799964E+01  0.21540631934E+01 -0.14209641989E+02  0.15980706585E+02  0.00000000000E+00 0.  1.
</event>
<event>
 8    1  0.2433390E-006  0.9118800E+02  0.7816164E-02  0.1184000E+00
        -11   -1    0    0    0    0  0.00000000000E+00  0.00000000000E+00  0.45593999997E+02  0.45594000000E+02  0.51100000000E-03 0.  1.
         11   -1    0    0    0    0 -0.00000000000E+00 -0.00000000000E+00 -0.45593999997E+02  0.45594000000E+02  0.51100000000E-03 0. -1.
         23    2    1    2    0    0 -0.88817841970E-15  0.71054273576E-14  0.00000000000E+00  0.91188000000E+02  0.91188000000E+02 0.  0.
    9900012    2    3    3    0    0  0.78157477991E+01  0.30213460086E+02  0.19540725103E+02  0.54367095318E+02  0.40000025396E+02 0.  0.
         12    1    3    3    0    0 -0.78157477991E+01 -0.30213460086E+02 -0.19540725103E+02  0.36820904682E+02  0.00000000000E+00 0. -1.
         11    1    4    4    0    0 -0.64505710330E+01  0.17575622074E+01 -0.24411076025E+01  0.71174362065E+01  0.51100000000E-03 0. -1.
        -11    1    4    4    0    0  0.14850983307E+02  0.12935742092E+02  0.24585991595E+02  0.31501684266E+02  0.51100000000E-03 0.  1.
         12    1    4    4    0    0 -0.58466447487E+00  0.15520155787E+02 -0.26041588889E+01  0.15747974845E+02  0.00000000000E+00 0. -1.
</event>
<event>
 8    1  0.2433390E-006  0.9118800E+02  0.7816164E-02  0.1184000E+00
        -11   -1    0    0    0    0  0.00000000000E+00  0.00000000000E+00  0.45593999997E+02  0.45594000000E+02  0.51100000000E-03 0.  1.
         11   -1    0    0    0    0 -0.00000000000E+00 -0.00000000000E+00 -0.45593999997E+02  0.45594000000E+02  0.51100000000E-03 0. -1.
         23    2    1    2    0    0 -0.71054273576E-14  0.00000000000E+00 -0.92287288922E-15  0.91188000000E+02  0.91188000000E+02 0.  0.
    9900012    2    3    3    0    0 -0.30021531448E+02  0.21318657022E+02  0.55926450878E-01  0.54367073675E+02  0.39999976056E+02 0.  0.
        -12    1    3    3    0    0  0.30021531448E+02 -0.21318657022E+02 -0.55926450878E-01  0.36820926325E+02  0.00000000000E+00 0.  1.
         11    1    4    4    0    0 -0.25813659608E+02  0.26524025577E+02 -0.36843806685E+01  0.37194671881E+02  0.51100000000E-03 0. -1.
        -11    1    4    4    0    0 -0.37349826857E+01 -0.46667964524E+01 -0.53691889789E+01  0.80347542179E+01  0.51100000000E-03 0.  1.
        -12    1    4    4    0    0 -0.47288915467E+00 -0.53857210276E+00  0.91094960982E+01  0.91376475762E+01  0.00000000000E+00 0.  1.
</event>
<event>
 8    1  0.2433390E-006  0.9118800E+02  0.7816164E-02  0.1184000E+00
        -11   -1    0    0    0    0  0.00000000000E+00  0.00000000000E+00  0.45593999997E+02  0.45594000000E+02  0.51100000000E-03 0.  1.
         11   -1    0    0    0    0 -0.00000000000E+00 -0.00000000000E+00 -0.45593999997E+02  0.45594000000E+02  0.51100000000E-03 0. -1.
         23    2    1    2    0    0  0.00000000000E+00  0.88817841970E-15  0.00000000000E+00  0.91188000000E+02  0.91188000000E+02 0.  0.
    9900012    2    3    3    0    0  0.34497079443E+02  0.39645908118E+01 -0.12247904833E+02  0.54367114036E+02  0.40000068067E+02 0.  0.
        -12    1    3    3    0    0 -0.34497079443E+02 -0.39645908118E+01  0.12247904833E+02  0.36820885964E+02  0.00000000000E+00 0.  1.
         11    1    4    4    0    0  0.73425237238E+01 -0.42597728535E+01 -0.92647358849E+01  0.12565574029E+02  0.51100000000E-03 0. -1.
        -11    1    4    4    0    0  0.76986849132E+01 -0.22767672313E+01 -0.14722536402E+02  0.16769212766E+02  0.51100000000E-03 0.  1.
        -12    1    4    4    0    0  0.19455870806E+02  0.10501130897E+02  0.11739367453E+02  0.25032327241E+02  0.00000000000E+00 0.  1.
</event>
<event>
 8    1  0.2433390E-006  0.9118800E+02  0.7816164E-02  0.1184000E+00
        -11   -1    0    0    0    0  0.00000000000E+00  0.00000000000E+00  0.45593999997E+02  0.45594000000E+02  0.51100000000E-03 0.  1.
         11   -1    0    0    0    0 -0.00000000000E+00 -0.00000000000E+00 -0.45593999997E+02  0.45594000000E+02  0.51100000000E-03 0. -1.
         23    2    1    2    0    0 -0.35527136788E-14 -0.17763568394E-14 -0.71054273576E-14  0.91188000000E+02  0.91188000000E+02 0.  0.
    9900012    2    3    3    0    0  0.25451647432E+02 -0.80472712491E+01 -0.25362059795E+02  0.54367095494E+02  0.40000025798E+02 0.  0.
        -12    1    3    3    0    0 -0.25451647432E+02  0.80472712491E+01  0.25362059795E+02  0.36820904506E+02  0.00000000000E+00 0.  1.
         11    1    4    4    0    0  0.21470208993E+02 -0.16485067199E+02 -0.65296485614E+01  0.27845351952E+02  0.51100000000E-03 0. -1.
        -11    1    4    4    0    0  0.48115310903E+01  0.15163845068E+01  0.13058350773E+01  0.52110899931E+01  0.51100000000E-03 0.  1.
        -12    1    4    4    0    0 -0.83009265130E+00  0.69214114429E+01 -0.20138246311E+02  0.21310653549E+02  0.00000000000E+00 0.  1.
</event>
<event>
 8    1  0.2433390E-006  0.9118800E+02  0.7816164E-02  0.1184000E+00
        -11   -1    0    0    0    0  0.00000000000E+00  0.00000000000E+00  0.45593999997E+02  0.45594000000E+02  0.51100000000E-03 0.  1.
         11   -1    0    0    0    0 -0.00000000000E+00 -0.00000000000E+00 -0.45593999997E+02  0.45594000000E+02  0.51100000000E-03 0. -1.
         23    2    1    2    0    0  0.00000000000E+00  0.00000000000E+00 -0.35527136788E-14  0.91188000000E+02  0.91188000000E+02 0.  0.
    9900012    2    3    3    0    0  0.17933866073E+02  0.87179908367E+01  0.30954052531E+02  0.54367078167E+02  0.39999986296E+02 0.  0.
         12    1    3    3    0    0 -0.17933866073E+02 -0.87179908367E+01 -0.30954052531E+02  0.36820921833E+02  0.00000000000E+00 0. -1.
         11    1    4    4    0    0  0.93676961985E+01  0.90126897224E+00  0.92482882293E+01  0.13194576661E+02  0.51100000000E-03 0. -1.
        -11    1    4    4    0    0  0.21176933138E+02  0.62882652237E+01  0.15825533723E+02  0.27174478735E+02  0.51100000000E-03 0.  1.
         12    1    4    4    0    0 -0.12610763264E+02  0.15284566408E+01  0.58802305794E+01  0.13998022770E+02  0.00000000000E+00 0. -1.
</event>
<event>
 8    1  0.2433390E-006  0.9118800E+02  0.7816164E-02  0.1184000E+00
        -11   -1    0    0    0    0  0.00000000000E+00  0.00000000000E+00  0.45593999997E+02  0.45594000000E+02  0.51100000000E-03 0. -1.
         11   -1    0    0    0    0 -0.00000000000E+00 -0.00000000000E+00 -0.45593999997E+02  0.45594000000E+02  0.51100000000E-03 0.  1.
         23    2    1    2    0    0  0.00000000000E+00 -0.88817841970E-15  0.00000000000E+00  0.91188000000E+02  0.91188000000E+02 0.  0.
    9900012    2    3    3    0    0  0.36031142776E+02 -0.53076925155E+01 -0.54189702479E+01  0.54367080836E+02  0.39999992381E+02 0.  0.
         12    1    3    3    0    0 -0.36031142776E+02  0.53076925155E+01  0.54189702479E+01  0.36820919164E+02  0.00000000000E+00 0. -1.
         11    1    4    4    0    0  0.10914900560E+02  0.37992948457E+01 -0.47600534680E+00  0.11567034058E+02  0.51100000000E-03 0.  1.
        -11    1    4    4    0    0  0.13300904627E+02  0.16202709807E+01  0.13081495205E+02  0.18726047608E+02  0.51100000000E-03 0. -1.
        -12    1    4    4    0    0  0.11815337589E+02 -0.10727258342E+02 -0.18024460106E+02  0.24073999169E+02  0.00000000000E+00 0.  1.
</event>
<event>
 8    1  0.2433390E-006  0.9118800E+02  0.7816164E-02  0.1184000E+00
        -11   -1    0    0    0    0  0.00000000000E+00  0.00000000000E+00  0.45593999997E+02  0.45594000000E+02  0.51100000000E-03 0.  1.
         11   -1    0    0    0    0 -0.00000000000E+00 -0.00000000000E+00 -0.45593999997E+02  0.45594000000E+02  0.51100000000E-03 0. -1.
         23    2    1    2    0    0 -0.44408920985E-15  0.00000000000E+00  0.00000000000E+00  0.91188000000E+02  0.91188000000E+02 0.  0.
    9900012    2    3    3    0    0 -0.34235274061E+01  0.36438293388E+02 -0.40383482708E+01  0.54367108896E+02  0.40000056350E+02 0.  0.
        -12    1    3    3    0    0  0.34235274061E+01 -0.36438293388E+02  0.40383482708E+01  0.36820891104E+02  0.00000000000E+00 0.  1.
         11    1    4    4    0    0 -0.80041109971E+00  0.23768142320E+02 -0.55355807030E+01  0.24417368843E+02  0.51100000000E-03 0. -1.
        -11    1    4    4    0    0 -0.47093119544E+01  0.18326844976E+02 -0.64347974927E+01  0.19986432521E+02  0.51100000000E-03 0.  1.
        -12    1    4    4    0    0  0.20861956480E+01 -0.56566939075E+01  0.79320299249E+01  0.99633075319E+01  0.00000000000E+00 0.  1.
</event>
<event>
 8    1  0.2433390E-006  0.9118800E+02  0.7816164E-02  0.1184000E+00
        -11   -1    0    0    0    0  0.00000000000E+00  0.00000000000E+00  0.45593999997E+02  0.45594000000E+02  0.51100000000E-03 0. -1.
         11   -1    0    0    0    0 -0.00000000000E+00 -0.00000000000E+00 -0.45593999997E+02  0.45594000000E+02  0.51100000000E-03 0.  1.
         23    2    1    2    0    0 -0.17763568394E-14  0.00000000000E+00  0.00000000000E+00  0.91188000000E+02  0.91188000000E+02 0.  0.
    9900012    2    3    3    0    0  0.83362877297E+01  0.17686072635E+02  0.31200927376E+02  0.54366963520E+02  0.39999724935E+02 0.  0.
        -12    1    3    3    0    0 -0.83362877297E+01 -0.17686072635E+02 -0.31200927376E+02  0.36821036480E+02  0.00000000000E+00 0.  1.
         11    1    4    4    0    0  0.11867638603E+02  0.11517925700E+02  0.37036266040E+02  0.40560922831E+02  0.51100000000E-03 0. -1.
        -11    1    4    4    0    0  0.11157351768E+01  0.58043717767E+01 -0.68376432963E+01  0.90381946658E+01  0.51100000000E-03 0.  1.
        -12    1    4    4    0    0 -0.46470860505E+01  0.36377515882E+00  0.10023046320E+01  0.47678460234E+01  0.00000000000E+00 0.  1.
</event>
<event>
 8    1  0.2433390E-006  0.9118800E+02  0.7816164E-02  0.1184000E+00
        -11   -1    0    0    0    0  0.00000000000E+00  0.00000000000E+00  0.45593999997E+02  0.45594000000E+02  0.51100000000E-03 0.  1.
         11   -1    0    0    0    0 -0.00000000000E+00 -0.00000000000E+00 -0.45593999997E+02  0.45594000000E+02  0.51100000000E-03 0. -1.
         23    2    1    2    0    0  0.00000000000E+00  0.00000000000E+00 -0.17763568394E-14  0.91188000000E+02  0.91188000000E+02 0.  0.
    9900012    2    3    3    0    0 -0.36561049721E+02  0.43321501583E+01 -0.54830204662E+00  0.54367102173E+02  0.40000041023E+02 0.  0.
         12    1    3    3    0    0  0.36561049721E+02 -0.43321501583E+01  0.54830204662E+00  0.36820897827E+02  0.00000000000E+00 0. -1.
         11    1    4    4    0    0  0.17374337399E+01 -0.82390630444E+00  0.98416778608E+01  0.10027767497E+02  0.51100000000E-03 0. -1.
        -11    1    4    4    0    0 -0.29054185188E+02  0.77182926346E+01  0.18390432386E+00  0.30062460631E+02  0.51100000000E-03 0.  1.
         12    1    4    4    0    0 -0.92442982727E+01 -0.25622361719E+01 -0.10573884231E+02  0.14276874045E+02  0.00000000000E+00 0. -1.
</event>
<event>
 8    1  0.2433390E-006  0.9118800E+02  0.7816164E-02  0.1184000E+00
        -11   -1    0    0    0    0  0.00000000000E+00  0.00000000000E+00  0.45593999997E+02  0.45594000000E+02  0.51100000000E-03 0.  1.
         11   -1    0    0    0    0 -0.00000000000E+00 -0.00000000000E+00 -0.45593999997E+02  0.45594000000E+02  0.51100000000E-03 0. -1.
         23    2    1    2    0    0 -0.35527136788E-14  0.00000000000E+00  0.00000000000E+00  0.91188000000E+02  0.91188000000E+02 0.  0.
    9900012    2    3    3    0    0 -0.23467356931E+02 -0.65675938370E+01  0.27603094082E+02  0.54367069362E+02  0.39999966225E+02 0.  0.
         12    1    3    3    0    0  0.23467356931E+02  0.65675938370E+01 -0.27603094082E+02  0.36820930638E+02  0.00000000000E+00 0. -1.
         11    1    4    4    0    0  0.21183469738E+01 -0.74106444884E+01 -0.18150816585E+01  0.79183058367E+01  0.51100000000E-03 0. -1.
        -11    1    4    4    0    0 -0.28977443927E+02  0.47316405683E+01  0.19434581484E+02  0.35210561437E+02  0.51100000000E-03 0.  1.
         12    1    4    4    0    0  0.33917400213E+01 -0.38885899169E+01  0.99835942564E+01  0.11238202089E+02  0.00000000000E+00 0. -1.
</event>
<event>
 8    1  0.2433390E-006  0.9118800E+02  0.7816164E-02  0.1184000E+00
        -11   -1    0    0    0    0  0.00000000000E+00  0.00000000000E+00  0.45593999997E+02  0.45594000000E+02  0.51100000000E-03 0. -1.
         11   -1    0    0    0    0 -0.00000000000E+00 -0.00000000000E+00 -0.45593999997E+02  0.45594000000E+02  0.51100000000E-03 0.  1.
         23    2    1    2    0    0  0.00000000000E+00  0.35527136788E-14  0.00000000000E+00  0.91188000000E+02  0.91188000000E+02 0.  0.
    9900012    2    3    3    0    0  0.29195267065E+02 -0.10774615299E+02 -0.19680195375E+02  0.54367271547E+02  0.40000427142E+02 0.  0.
         12    1    3    3    0    0 -0.29195267065E+02  0.10774615299E+02  0.19680195375E+02  0.36820728453E+02  0.00000000000E+00 0. -1.
         11    1    4    4    0    0  0.15884539658E+02  0.40164633989E+01 -0.63556829964E+00  0.16396784005E+02  0.51100000000E-03 0. -1.
        -11    1    4    4    0    0  0.42203661151E+01  0.65959889121E+01  0.14620941141E+00  0.78319816986E+01  0.51100000000E-03 0.  1.
        -12    1    4    4    0    0  0.90903612919E+01 -0.21387067610E+02 -0.19190836486E+02  0.30138505843E+02  0.00000000000E+00 0.  1.
</event>
<event>
 8    1  0.2433390E-006  0.9118800E+02  0.7816164E-02  0.1184000E+00
        -11   -1    0    0    0    0  0.00000000000E+00  0.00000000000E+00  0.45593999997E+02  0.45594000000E+02  0.51100000000E-03 0. -1.
         11   -1    0    0    0    0 -0.00000000000E+00 -0.00000000000E+00 -0.45593999997E+02  0.45594000000E+02  0.51100000000E-03 0.  1.
         23    2    1    2    0    0  0.00000000000E+00 -0.35527136788E-14 -0.35527136788E-14  0.91188000000E+02  0.91188000000E+02 0.  0.
    9900012    2    3    3    0    0  0.18189992125E+02  0.20349353745E+02  0.24714475102E+02  0.54367118820E+02  0.40000078973E+02 0.  0.
        -12    1    3    3    0    0 -0.18189992125E+02 -0.20349353745E+02 -0.24714475102E+02  0.36820881180E+02  0.00000000000E+00 0.  1.
         11    1    4    4    0    0  0.65087013036E+01  0.21075793893E+02  0.16238495222E+02  0.27390527709E+02  0.51100000000E-03 0. -1.
        -11    1    4    4    0    0  0.13670089339E+02 -0.77599499161E+01  0.11064298802E+02  0.19222561575E+02  0.51100000000E-03 0.  1.
        -12    1    4    4    0    0 -0.19887985180E+01  0.70335097678E+01 -0.25883189217E+01  0.77540295356E+01  0.00000000000E+00 0.  1.
</event>
<event>
 8    1  0.2433390E-006  0.9118800E+02  0.7816164E-02  0.1184000E+00
        -11   -1    0    0    0    0  0.00000000000E+00  0.00000000000E+00  0.45593999997E+02  0.45594000000E+02  0.51100000000E-03 0.  1.
         11   -1    0    0    0    0 -0.00000000000E+00 -0.00000000000E+00 -0.45593999997E+02  0.45594000000E+02  0.51100000000E-03 0. -1.
         23    2    1    2    0    0  0.00000000000E+00  0.17763568394E-14  0.00000000000E+00  0.91188000000E+02  0.91188000000E+02 0.  0.
    9900012    2    3    3    0    0  0.56819866578E+01  0.13379946131E+02 -0.33830093079E+02  0.54367039549E+02  0.39999898259E+02 0.  0.
        -12    1    3    3    0    0 -0.56819866578E+01 -0.13379946131E+02  0.33830093079E+02  0.36820960451E+02  0.00000000000E+00 0.  1.
         11    1    4    4    0    0  0.98944427146E+01  0.16406696599E+02 -0.26777583882E+02  0.32925957674E+02  0.51100000000E-03 0. -1.
        -11    1    4    4    0    0  0.77276694536E+01 -0.19501150312E+01 -0.46068862277E+01  0.92056083338E+01  0.51100000000E-03 0.  1.
        -12    1    4    4    0    0 -0.11940125510E+02 -0.10766354369E+01 -0.24456229684E+01  0.12235473541E+02  0.00000000000E+00 0.  1.
</event>
<event>
 8    1  0.2433390E-006  0.9118800E+02  0.7816164E-02  0.1184000E+00
        -11   -1    0    0    0    0  0.00000000000E+00  0.00000000000E+00  0.45593999997E+02  0.45594000000E+02  0.51100000000E-03 0. -1.
         11   -1    0    0    0    0 -0.00000000000E+00 -0.00000000000E+00 -0.45593999997E+02  0.45594000000E+02  0.51100000000E-03 0.  1.
         23    2    1    2    0    0  0.00000000000E+00  0.35527136788E-14  0.00000000000E+00  0.91188000000E+02  0.91188000000E+02 0.  0.
    9900012    2    3    3    0    0  0.21726910030E+02  0.27816006465E+02 -0.10487606865E+02  0.54367099238E+02  0.40000034334E+02 0.  0.
         12    1    3    3    0    0 -0.21726910030E+02 -0.27816006465E+02  0.10487606865E+02  0.36820900762E+02  0.00000000000E+00 0. -1.
         11    1    4    4    0    0 -0.70290176175E+01  0.18328984795E+02 -0.39569846726E+01  0.20025396381E+02  0.51100000000E-03 0. -1.
        -11    1    4    4    0    0  0.24109615959E+02  0.11427772361E+01 -0.53043866980E+01  0.24712669625E+02  0.51100000000E-03 0.  1.
        -12    1    4    4    0    0  0.46463116888E+01  0.83442444343E+01 -0.12262354946E+01  0.96290332316E+01  0.00000000000E+00 0.  1.
</event>
<event>
 8    1  0.2433390E-006  0.9118800E+02  0.7816164E-02  0.1184000E+00
        -11   -1    0    0    0    0  0.00000000000E+00  0.00000000000E+00  0.45593999997E+02  0.45594000000E+02  0.51100000000E-03 0.  1.
         11   -1    0    0    0    0 -0.00000000000E+00 -0.00000000000E+00 -0.45593999997E+02  0.45594000000E+02  0.51100000000E-03 0. -1.
         23    2    1    2    0    0 -0.99920072216E-15  0.35527136788E-14 -0.35527136788E-14  0.91188000000E+02  0.91188000000E+02 0.  0.
    9900012    2    3    3    0    0  0.25266856869E+00 -0.25014012754E+02  0.27018790603E+02  0.54367085819E+02  0.40000003743E+02 0.  0.
         12    1    3    3    0    0 -0.25266856869E+00  0.25014012754E+02 -0.27018790603E+02  0.36820914181E+02  0.00000000000E+00 0. -1.
         11    1    4    4    0    0 -0.58291173113E+01  0.25400867322E+01  0.56049403764E+01  0.84762023407E+01  0.51100000000E-03 0.  1.
        -11    1    4    4    0    0 -0.10928456409E+02 -0.45320563360E+01  0.79810368178E+01  0.14271217294E+02  0.51100000000E-03 0. -1.
         12    1    4    4    0    0  0.17010242289E+02 -0.23022043150E+02  0.13432813408E+02  0.31619666184E+02  0.00000000000E+00 0. -1.
</event>
<event>
 8    1  0.2433390E-006  0.9118800E+02  0.7816164E-02  0.1184000E+00
        -11   -1    0    0    0    0  0.00000000000E+00  0.00000000000E+00  0.45593999997E+02  0.45594000000E+02  0.51100000000E-03 0. -1.
         11   -1    0    0    0    0 -0.00000000000E+00 -0.00000000000E+00 -0.45593999997E+02  0.45594000000E+02  0.51100000000E-03 0.  1.
         23    2    1    2    0    0  0.17763568394E-14 -0.35527136788E-14  0.00000000000E+00  0.91188000000E+02  0.91188000000E+02 0.  0.
    9900012    2    3    3    0    0 -0.11493948440E+02  0.19812045335E+02 -0.28829673941E+02  0.54367107959E+02  0.40000054215E+02 0.  0.
         12    1    3    3    0    0  0.11493948440E+02 -0.19812045335E+02  0.28829673941E+02  0.36820892041E+02  0.00000000000E+00 0. -1.
         11    1    4    4    0    0 -0.11540896217E+02 -0.33704198626E+01 -0.83278124817E+01  0.14625473549E+02  0.51100000000E-03 0. -1.
        -11    1    4    4    0    0 -0.79336222186E+01  0.24282260306E+02 -0.12704968380E+02  0.28530453008E+02  0.51100000000E-03 0.  1.
         12    1    4    4    0    0  0.79805699956E+01 -0.10997951081E+01 -0.77968930799E+01  0.11211181402E+02  0.00000000000E+00 0. -1.
</event>
<event>
 8    1  0.2433390E-006  0.9118800E+02  0.7816164E-02  0.1184000E+00
        -11   -1    0    0    0    0  0.00000000000E+00  0.00000000000E+00  0.45593999997E+02  0.45594000000E+02  0.51100000000E-03 0.  1.
         11   -1    0    0    0    0 -0.00000000000E+00 -0.00000000000E+00 -0.45593999997E+02  0.45594000000E+02  0.51100000000E-03 0. -1.
         23    2    1    2    0    0  0.00000000000E+00  0.00000000000E+00  0.00000000000E+00  0.91188000000E+02  0.91188000000E+02 0.  0.
    9900012    2    3    3    0    0  0.13313756212E+02  0.41906638125E+01 -0.34072901244E+02  0.54367077050E+02  0.39999983752E+02 0.  0.
        -12    1    3    3    0    0 -0.13313756212E+02 -0.41906638125E+01  0.34072901244E+02  0.36820922950E+02  0.00000000000E+00 0.  1.
         11    1    4    4    0    0  0.25586332418E+02 -0.20706758637E+01 -0.19445583086E+02  0.32203707969E+02  0.51100000000E-03 0. -1.
        -11    1    4    4    0    0 -0.50617389799E+01  0.70666465735E+00 -0.21246501794E+00  0.51152436974E+01  0.51100000000E-03 0.  1.
         12    1    4    4    0    0 -0.72108372257E+01  0.55546750189E+01 -0.14414853140E+02  0.17048125384E+02  0.00000000000E+00 0. -1.
</event>
<event>
 8    1  0.2433390E-006  0.9118800E+02  0.7816164E-02  0.1184000E+00
        -11   -1    0    0    0    0  0.00000000000E+00  0.00000000000E+00  0.45593999997E+02  0.45594000000E+02  0.51100000000E-03 0. -1.
         11   -1    0    0    0    0 -0.00000000000E+00 -0.00000000000E+00 -0.45593999997E+02  0.45594000000E+02  0.51100000000E-03 0.  1.
         23    2    1    2    0    0  0.00000000000E+00 -0.35527136788E-14  0.35527136788E-14  0.91188000000E+02  0.91188000000E+02 0.  0.
    9900012    2    3    3    0    0 -0.66219204726E+01  0.26779389286E+02 -0.24388396792E+02  0.54367089917E+02  0.40000013083E+02 0.  0.
         12    1    3    3    0    0  0.66219204726E+01 -0.26779389286E+02  0.24388396792E+02  0.36820910083E+02  0.00000000000E+00 0. -1.
         11    1    4    4    0    0 -0.14596577395E+01 -0.36592951381E+01  0.60854427639E+01  0.72493900101E+01  0.51100000000E-03 0. -1.
        -11    1    4    4    0    0 -0.89121469816E+01  0.55100073136E+01 -0.11561126992E+02  0.15602762640E+02  0.51100000000E-03 0.  1.
         12    1    4    4    0    0  0.37498842485E+01  0.24928677111E+02 -0.18912712563E+02  0.31514937266E+02  0.00000000000E+00 0. -1.
</event>
<event>
 8    1  0.2433390E-006  0.9118800E+02  0.7816164E-02  0.1184000E+00
        -11   -1    0    0    0    0  0.00000000000E+00  0.00000000000E+00  0.45593999997E+02  0.45594000000E+02  0.51100000000E-03 0.  1.
         11   -1    0    0    0    0 -0.00000000000E+00 -0.00000000000E+00 -0.45593999997E+02  0.45594000000E+02  0.51100000000E-03 0. -1.
         23    2    1    2    0    0  0.00000000000E+00 -0.35527136788E-14  0.00000000000E+00  0.91188000000E+02  0.91188000000E+02 0.  0.
    9900012    2    3    3    0    0 -0.33901525265E+02  0.13650170231E+02 -0.44874572565E+01  0.54367111428E+02  0.40000062122E+02 0.  0.
         12    1    3    3    0    0  0.33901525265E+02 -0.13650170231E+02  0.44874572565E+01  0.36820888572E+02  0.00000000000E+00 0. -1.
         11    1    4    4    0    0 -0.24617877960E+02  0.17208680724E+02 -0.15108863263E+02  0.33622259842E+02  0.51100000000E-03 0. -1.
        -11    1    4    4    0    0 -0.86272807209E+01  0.22079934194E+01  0.30809675571E+00  0.89106751400E+01  0.51100000000E-03 0.  1.
        -12    1    4    4    0    0 -0.65636658399E+00 -0.57665039125E+01  0.10313309250E+02  0.11834176446E+02  0.00000000000E+00 0.  1.
</event>
<event>
 8    1  0.2433390E-006  0.9118800E+02  0.7816164E-02  0.1184000E+00
        -11   -1    0    0    0    0  0.00000000000E+00  0.00000000000E+00  0.45593999997E+02  0.45594000000E+02  0.51100000000E-03 0.  1.
         11   -1    0    0    0    0 -0.00000000000E+00 -0.00000000000E+00 -0.45593999997E+02  0.45594000000E+02  0.51100000000E-03 0. -1.
         23    2    1    2    0    0  0.35527136788E-14  0.17763568394E-14  0.00000000000E+00  0.91188000000E+02  0.91188000000E+02 0.  0.
    9900012    2    3    3    0    0  0.24296545115E+02  0.55937208101E+01  0.27095525316E+02  0.54367091413E+02  0.40000016494E+02 0.  0.
         12    1    3    3    0    0 -0.24296545115E+02 -0.55937208101E+01 -0.27095525316E+02  0.36820908587E+02  0.00000000000E+00 0. -1.
         11    1    4    4    0    0  0.25809842491E+02  0.11842938114E+02  0.12105493139E+02  0.30869825348E+02  0.51100000000E-03 0.  1.
        -11    1    4    4    0    0 -0.31452278018E+01 -0.18542009530E+01 -0.31123637030E+01  0.47976376667E+01  0.51100000000E-03 0. -1.
        -12    1    4    4    0    0  0.16319304249E+01 -0.43950163511E+01  0.18102395880E+02  0.18699628399E+02  0.00000000000E+00 0.  1.
</event>
<event>
 8    1  0.2433390E-006  0.9118800E+02  0.7816164E-02  0.1184000E+00
        -11   -1    0    0    0    0  0.00000000000E+00  0.00000000000E+00  0.45593999997E+02  0.45594000000E+02  0.51100000000E-03 0. -1.
         11   -1    0    0    0    0 -0.00000000000E+00 -0.00000000000E+00 -0.45593999997E+02  0.45594000000E+02  0.51100000000E-03 0.  1.
         23    2    1    2    0    0  0.71054273576E-14  0.00000000000E+00  0.00000000000E+00  0.91188000000E+02  0.91188000000E+02 0.  0.
    9900012    2    3    3    0    0  0.32690025340E+02 -0.16201796050E+02  0.49641344369E+01  0.54367101278E+02  0.40000038984E+02 0.  0.
        -12    1    3    3    0    0 -0.32690025340E+02  0.16201796050E+02 -0.49641344369E+01  0.36820898722E+02  0.00000000000E+00 0.  1.
         11    1    4    4    0    0  0.37186558754E+02 -0.16437405245E+02  0.36589811392E+01  0.40821766086E+02  0.51100000000E-03 0. -1.
        -11    1    4    4    0    0  0.75074027730E+00  0.57907865956E+01  0.46613744604E+00  0.58578242325E+01  0.51100000000E-03 0.  1.
        -12    1    4    4    0    0 -0.52472736916E+01 -0.55551774013E+01  0.83901585175E+00  0.76875109596E+01  0.00000000000E+00 0.  1.
</event>
<event>
 8    1  0.2433390E-006  0.9118800E+02  0.7816164E-02  0.1184000E+00
        -11   -1    0    0    0    0  0.00000000000E+00  0.00000000000E+00  0.45593999997E+02  0.45594000000E+02  0.51100000000E-03 0. -1.
         11   -1    0    0    0    0 -0.00000000000E+00 -0.00000000000E+00 -0.45593999997E+02  0.45594000000E+02  0.51100000000E-03 0.  1.
         23    2    1    2    0    0  0.35527136788E-14  0.00000000000E+00  0.00000000000E+00  0.91188000000E+02  0.91188000000E+02 0.  0.
    9900012    2    3    3    0    0  0.19842420249E+02 -0.20779702291E+02  0.23027407505E+02  0.54367093370E+02  0.40000020955E+02 0.  0.
        -12    1    3    3    0    0 -0.19842420249E+02  0.20779702291E+02 -0.23027407505E+02  0.36820906630E+02  0.00000000000E+00 0.  1.
         11    1    4    4    0    0  0.23586337917E+02 -0.21535785071E+02  0.12135852712E+02  0.34167005960E+02  0.51100000000E-03 0. -1.
        -11    1    4    4    0    0 -0.43020411010E+00  0.85272678711E+01  0.49166838856E+01  0.98525709140E+01  0.51100000000E-03 0.  1.
         12    1    4    4    0    0 -0.33137135577E+01 -0.77711850909E+01  0.59748709079E+01  0.10347516496E+02  0.00000000000E+00 0. -1.
</event>
<event>
 8    1  0.2433390E-006  0.9118800E+02  0.7816164E-02  0.1184000E+00
        -11   -1    0    0    0    0  0.00000000000E+00  0.00000000000E+00  0.45593999997E+02  0.45594000000E+02  0.51100000000E-03 0. -1.
         11   -1    0    0    0    0 -0.00000000000E+00 -0.00000000000E+00 -0.45593999997E+02  0.45594000000E+02  0.51100000000E-03 0.  1.
         23    2    1    2    0    0  0.00000000000E+00  0.00000000000E+00  0.00000000000E+00  0.91188000000E+02  0.91188000000E+02 0.  0.
    9900012    2    3    3    0    0 -0.24938556110E+02  0.23432743233E+02  0.13592423450E+02  0.54367095455E+02  0.40000025708E+02 0.  0.
        -12    1    3    3    0    0  0.24938556110E+02 -0.23432743233E+02 -0.13592423450E+02  0.36820904545E+02  0.00000000000E+00 0.  1.
         11    1    4    4    0    0 -0.12842525658E+01  0.93638272429E+01  0.87664666668E+01  0.12891140499E+02  0.51100000000E-03 0. -1.
        -11    1    4    4    0    0 -0.30215902169E+02  0.12547138552E+02  0.84996872207E+01  0.33803492613E+02  0.51100000000E-03 0.  1.
        -12    1    4    4    0    0  0.65615986242E+01  0.15217774379E+01 -0.36737304372E+01  0.76724623427E+01  0.00000000000E+00 0.  1.
</event>
<event>
 8    1  0.2433390E-006  0.9118800E+02  0.7816164E-02  0.1184000E+00
        -11   -1    0    0    0    0  0.00000000000E+00  0.00000000000E+00  0.45593999997E+02  0.45594000000E+02  0.51100000000E-03 0. -1.
         11   -1    0    0    0    0 -0.00000000000E+00 -0.00000000000E+00 -0.45593999997E+02  0.45594000000E+02  0.51100000000E-03 0.  1.
         23    2    1    2    0    0  0.17763568394E-14  0.00000000000E+00 -0.35527136788E-14  0.91188000000E+02  0.91188000000E+02 0.  0.
    9900012    2    3    3    0    0 -0.15043182623E+02 -0.17577923981E+02  0.28644359667E+02  0.54367080733E+02  0.39999992147E+02 0.  0.
        -12    1    3    3    0    0  0.15043182623E+02  0.17577923981E+02 -0.28644359667E+02  0.36820919267E+02  0.00000000000E+00 0.  1.
         11    1    4    4    0    0 -0.11958530597E+02  0.99298386603E+01  0.20611359358E+01  0.15679809676E+02  0.51100000000E-03 0. -1.
        -11    1    4    4    0    0 -0.39726897391E+01 -0.14585836697E+02  0.13311083777E+02  0.20142339673E+02  0.51100000000E-03 0.  1.
         12    1    4    4    0    0  0.88803771328E+00 -0.12921925944E+02  0.13272139955E+02  0.18544931385E+02  0.00000000000E+00 0. -1.
</event>
<event>
 8    1  0.2433390E-006  0.9118800E+02  0.7816164E-02  0.1184000E+00
        -11   -1    0    0    0    0  0.00000000000E+00  0.00000000000E+00  0.45593999997E+02  0.45594000000E+02  0.51100000000E-03 0. -1.
         11   -1    0    0    0    0 -0.00000000000E+00 -0.00000000000E+00 -0.45593999997E+02  0.45594000000E+02  0.51100000000E-03 0.  1.
         23    2    1    2    0    0  0.35527136788E-14 -0.35527136788E-14 -0.35527136788E-14  0.91188000000E+02  0.91188000000E+02 0.  0.
    9900012    2    3    3    0    0 -0.19362273354E+02  0.20315445219E+02  0.23836218329E+02  0.54367078663E+02  0.39999987428E+02 0.  0.
         12    1    3    3    0    0  0.19362273354E+02 -0.20315445219E+02 -0.23836218329E+02  0.36820921337E+02  0.00000000000E+00 0. -1.
         11    1    4    4    0    0 -0.11096124911E+02 -0.14042119970E+01  0.16589914806E+02  0.20008025213E+02  0.51100000000E-03 0. -1.
        -11    1    4    4    0    0  0.22973451385E+00  0.15206581765E+02 -0.68324379327E+01  0.16672585741E+02  0.51100000000E-03 0.  1.
        -12    1    4    4    0    0 -0.84958829562E+01  0.65130754506E+01  0.14078741456E+02  0.17686467709E+02  0.00000000000E+00 0.  1.
</event>
<event>
 8    1  0.2433390E-006  0.9118800E+02  0.7816164E-02  0.1184000E+00
        -11   -1    0    0    0    0  0.00000000000E+00  0.00000000000E+00  0.45593999997E+02  0.45594000000E+02  0.51100000000E-03 0. -1.
         11   -1    0    0    0    0 -0.00000000000E+00 -0.00000000000E+00 -0.45593999997E+02  0.45594000000E+02  0.51100000000E-03 0.  1.
         23    2    1    2    0    0  0.00000000000E+00  0.00000000000E+00  0.88817841970E-15  0.91188000000E+02  0.91188000000E+02 0.  0.
    9900012    2    3    3    0    0 -0.24443372762E+02 -0.27337025807E+02  0.33148112667E+01  0.54367089831E+02  0.40000012887E+02 0.  0.
        -12    1    3    3    0    0  0.24443372762E+02  0.27337025807E+02 -0.33148112667E+01  0.36820910169E+02  0.00000000000E+00 0.  1.
         11    1    4    4    0    0  0.14460702463E+01  0.37516843845E+01 -0.30744035147E+01  0.50614436784E+01  0.51100000000E-03 0. -1.
        -11    1    4    4    0    0 -0.66616460468E+00 -0.23611048766E+01  0.10567529729E+02  0.10848561027E+02  0.51100000000E-03 0.  1.
         12    1    4    4    0    0 -0.25223278403E+02 -0.28727605315E+02 -0.41783149478E+01  0.38457085125E+02  0.00000000000E+00 0. -1.
</event>
<event>
 8    1  0.2433390E-006  0.9118800E+02  0.7816164E-02  0.1184000E+00
        -11   -1    0    0    0    0  0.00000000000E+00  0.00000000000E+00  0.45593999997E+02  0.45594000000E+02  0.51100000000E-03 0.  1.
         11   -1    0    0    0    0 -0.00000000000E+00 -0.00000000000E+00 -0.45593999997E+02  0.45594000000E+02  0.51100000000E-03 0. -1.
         23    2    1    2    0    0  0.00000000000E+00  0.17763568394E-14  0.00000000000E+00  0.91188000000E+02  0.91188000000E+02 0.  0.
    9900012    2    3    3    0    0  0.29906252384E+02 -0.63504812790E+01  0.20519922535E+02  0.54367085223E+02  0.40000002384E+02 0.  0.
         12    1    3    3    0    0 -0.29906252384E+02  0.63504812790E+01 -0.20519922535E+02  0.36820914777E+02  0.00000000000E+00 0. -1.
         11    1    4    4    0    0  0.60208846168E+01  0.13144022524E+02  0.90808082504E+01  0.17072710927E+02  0.51100000000E-03 0. -1.
        -11    1    4    4    0    0  0.21693144522E+02 -0.17178111876E+02  0.15821179804E+02  0.31874594547E+02  0.51100000000E-03 0.  1.
         12    1    4    4    0    0  0.21922232458E+01 -0.23163919264E+01 -0.43820655192E+01  0.54197797493E+01  0.00000000000E+00 0. -1.
</event>
<event>
 8    1  0.2433390E-006  0.9118800E+02  0.7816164E-02  0.1184000E+00
        -11   -1    0    0    0    0  0.00000000000E+00  0.00000000000E+00  0.45593999997E+02  0.45594000000E+02  0.51100000000E-03 0. -1.
         11   -1    0    0    0    0 -0.00000000000E+00 -0.00000000000E+00 -0.45593999997E+02  0.45594000000E+02  0.51100000000E-03 0.  1.
         23    2    1    2    0    0 -0.88817841970E-15  0.44408920985E-15  0.00000000000E+00  0.91188000000E+02  0.91188000000E+02 0.  0.
    9900012    2    3    3    0    0 -0.50969539052E+01 -0.38537780331E+01 -0.36262227544E+02  0.54367086232E+02  0.40000004683E+02 0.  0.
         12    1    3    3    0    0  0.50969539052E+01  0.38537780331E+01  0.36262227544E+02  0.36820913768E+02  0.00000000000E+00 0. -1.
         11    1    4    4    0    0  0.16240655489E+02 -0.77441793940E-01 -0.90928995776E+01  0.18613052166E+02  0.51100000000E-03 0. -1.
        -11    1    4    4    0    0 -0.92956219105E+01  0.21676024548E+01 -0.86732995657E+01  0.12897023406E+02  0.51100000000E-03 0.  1.
         12    1    4    4    0    0 -0.12041987483E+02 -0.59439386940E+01 -0.18496028401E+02  0.22857010661E+02  0.00000000000E+00 0. -1.
</event>
<event>
 8    1  0.2433390E-006  0.9118800E+02  0.7816164E-02  0.1184000E+00
        -11   -1    0    0    0    0  0.00000000000E+00  0.00000000000E+00  0.45593999997E+02  0.45594000000E+02  0.51100000000E-03 0. -1.
         11   -1    0    0    0    0 -0.00000000000E+00 -0.00000000000E+00 -0.45593999997E+02  0.45594000000E+02  0.51100000000E-03 0.  1.
         23    2    1    2    0    0 -0.88817841970E-15  0.00000000000E+00  0.00000000000E+00  0.91188000000E+02  0.91188000000E+02 0.  0.
    9900012    2    3    3    0    0  0.79015362504E+01  0.27166619631E+02  0.23565226105E+02  0.54367090469E+02  0.40000014342E+02 0.  0.
        -12    1    3    3    0    0 -0.79015362504E+01 -0.27166619631E+02 -0.23565226105E+02  0.36820909531E+02  0.00000000000E+00 0.  1.
         11    1    4    4    0    0 -0.13959843728E+02  0.69022647681E+01  0.87814936559E+01  0.17878286465E+02  0.51100000000E-03 0. -1.
        -11    1    4    4    0    0  0.17065276803E+02  0.19778760714E+02  0.65244960842E+01  0.26925677284E+02  0.51100000000E-03 0.  1.
         12    1    4    4    0    0  0.47961031746E+01  0.48559414865E+00  0.82592363652E+01  0.95631267207E+01  0.00000000000E+00 0. -1.
</event>
<event>
 8    1  0.2433390E-006  0.9118800E+02  0.7816164E-02  0.1184000E+00
        -11   -1    0    0    0    0  0.00000000000E+00  0.00000000000E+00  0.45593999997E+02  0.45594000000E+02  0.51100000000E-03 0.  1.
         11   -1    0    0    0    0 -0.00000000000E+00 -0.00000000000E+00 -0.45593999997E+02  0.45594000000E+02  0.51100000000E-03 0. -1.
         23    2    1    2    0    0  0.71054273576E-14  0.44408920985E-15  0.00000000000E+00  0.91188000000E+02  0.91188000000E+02 0.  0.
    9900012    2    3    3    0    0  0.36473344536E+02  0.29883948835E+01  0.40671135854E+01  0.54367125777E+02  0.40000094833E+02 0.  0.
         12    1    3    3    0    0 -0.36473344536E+02 -0.29883948835E+01 -0.40671135854E+01  0.36820874223E+02  0.00000000000E+00 0. -1.
         11    1    4    4    0    0  0.24334827258E+02  0.96805323579E+01  0.28716709679E+00  0.26191200614E+02  0.51100000000E-03 0. -1.
        -11    1    4    4    0    0 -0.69322383544E-01  0.11481370143E+01  0.11625230411E+02  0.11681994973E+02  0.51100000000E-03 0.  1.
        -12    1    4    4    0    0  0.12207839662E+02 -0.78402744886E+01 -0.78452839220E+01  0.16493930189E+02  0.00000000000E+00 0.  1.
</event>
<event>
 8    1  0.2433390E-006  0.9118800E+02  0.7816164E-02  0.1184000E+00
        -11   -1    0    0    0    0  0.00000000000E+00  0.00000000000E+00  0.45593999997E+02  0.45594000000E+02  0.51100000000E-03 0.  1.
         11   -1    0    0    0    0 -0.00000000000E+00 -0.00000000000E+00 -0.45593999997E+02  0.45594000000E+02  0.51100000000E-03 0. -1.
         23    2    1    2    0    0  0.00000000000E+00 -0.35527136788E-14 -0.17763568394E-14  0.91188000000E+02  0.91188000000E+02 0.  0.
    9900012    2    3    3    0    0  0.26439049289E+02 -0.25316802980E+02 -0.39768037149E+01  0.54367098216E+02  0.40000032002E+02 0.  0.
        -12    1    3    3    0    0 -0.26439049289E+02  0.25316802980E+02  0.39768037149E+01  0.36820901784E+02  0.00000000000E+00 0.  1.
         11    1    4    4    0    0 -0.20680349099E+01  0.47547656017E+00 -0.51224389293E+01  0.55445673585E+01  0.51100000000E-03 0. -1.
        -11    1    4    4    0    0  0.90201238705E+01 -0.13018416687E+02  0.14916840193E+02  0.21756698492E+02  0.51100000000E-03 0.  1.
        -12    1    4    4    0    0  0.19486960328E+02 -0.12773862853E+02 -0.13771204979E+02  0.27065832365E+02  0.00000000000E+00 0.  1.
</event>
<event>
 8    1  0.2433390E-006  0.9118800E+02  0.7816164E-02  0.1184000E+00
        -11   -1    0    0    0    0  0.00000000000E+00  0.00000000000E+00  0.45593999997E+02  0.45594000000E+02  0.51100000000E-03 0. -1.
         11   -1    0    0    0    0 -0.00000000000E+00 -0.00000000000E+00 -0.45593999997E+02  0.45594000000E+02  0.51100000000E-03 0.  1.
         23    2    1    2    0    0  0.00000000000E+00  0.00000000000E+00  0.35527136788E-14  0.91188000000E+02  0.91188000000E+02 0.  0.
    9900012    2    3    3    0    0 -0.24716137472E+02 -0.14117347870E+02 -0.23357938598E+02  0.54367078529E+02  0.39999987123E+02 0.  0.
        -12    1    3    3    0    0  0.24716137472E+02  0.14117347870E+02  0.23357938598E+02  0.36820921471E+02  0.00000000000E+00 0.  1.
         11    1    4    4    0    0 -0.12625738533E+02  0.49267101765E+01  0.36819748454E+01  0.14044169099E+02  0.51100000000E-03 0. -1.
        -11    1    4    4    0    0 -0.91446612449E+00 -0.12808496000E+02 -0.23922250021E+02  0.27150835428E+02  0.51100000000E-03 0.  1.
        -12    1    4    4    0    0 -0.11175932815E+02 -0.62355620462E+01 -0.31176634218E+01  0.13172074002E+02  0.00000000000E+00 0.  1.
</event>
<event>
 8    1  0.2433390E-006  0.9118800E+02  0.7816164E-02  0.1184000E+00
        -11   -1    0    0    0    0  0.00000000000E+00  0.00000000000E+00  0.45593999997E+02  0.45594000000E+02  0.51100000000E-03 0. -1.
         11   -1    0    0    0    0 -0.00000000000E+00 -0.00000000000E+00 -0.45593999997E+02  0.45594000000E+02  0.51100000000E-03 0.  1.
         23    2    1    2    0    0  0.00000000000E+00  0.00000000000E+00  0.00000000000E+00  0.91188000000E+02  0.91188000000E+02 0.  0.
    9900012    2    3    3    0    0  0.16459138697E+02 -0.25715949713E+02  0.20580729425E+02  0.54367085564E+02  0.40000003159E+02 0.  0.
        -12    1    3    3    0    0 -0.16459138697E+02  0.25715949713E+02 -0.20580729425E+02  0.36820914436E+02  0.00000000000E+00 0.  1.
         11    1    4    4    0    0  0.84031801307E+01 -0.29469505419E+02  0.39738755404E+01  0.30900758454E+02  0.51100000000E-03 0. -1.
        -11    1    4    4    0    0  0.64502479891E+01 -0.46779046573E+01  0.86839719452E+01  0.11785578480E+02  0.51100000000E-03 0.  1.
        -12    1    4    4    0    0  0.16057105771E+01  0.84314603638E+01  0.79228819395E+01  0.11680748630E+02  0.00000000000E+00 0.  1.
</event>
<event>
 8    1  0.2433390E-006  0.9118800E+02  0.7816164E-02  0.1184000E+00
        -11   -1    0    0    0    0  0.00000000000E+00  0.00000000000E+00  0.45593999997E+02  0.45594000000E+02  0.51100000000E-03 0.  1.
         11   -1    0    0    0    0 -0.00000000000E+00 -0.00000000000E+00 -0.45593999997E+02  0.45594000000E+02  0.51100000000E-03 0. -1.
         23    2    1    2    0    0  0.17763568394E-14  0.00000000000E+00  0.00000000000E+00  0.91188000000E+02  0.91188000000E+02 0.  0.
    9900012    2    3    3    0    0 -0.14524879781E+02  0.17757928904E+02  0.28800387710E+02  0.54367102349E+02  0.40000041424E+02 0.  0.
         12    1    3    3    0    0  0.14524879781E+02 -0.17757928904E+02 -0.28800387710E+02  0.36820897651E+02  0.00000000000E+00 0. -1.
         11    1    4    4    0    0  0.41657583738E+01  0.12654329961E+02  0.14325371430E+02  0.19562767607E+02  0.51100000000E-03 0. -1.
        -11    1    4    4    0    0 -0.14000018238E+02  0.11633039712E+02  0.18378731229E+02  0.25867081116E+02  0.51100000000E-03 0.  1.
         12    1    4    4    0    0 -0.46906199169E+01 -0.65294407692E+01 -0.39037149487E+01  0.89372536253E+01  0.00000000000E+00 0. -1.
</event>
<event>
 8    1  0.2433390E-006  0.9118800E+02  0.7816164E-02  0.1184000E+00
        -11   -1    0    0    0    0  0.00000000000E+00  0.00000000000E+00  0.45593999997E+02  0.45594000000E+02  0.51100000000E-03 0. -1.
         11   -1    0    0    0    0 -0.00000000000E+00 -0.00000000000E+00 -0.45593999997E+02  0.45594000000E+02  0.51100000000E-03 0.  1.
         23    2    1    2    0    0  0.00000000000E+00  0.35527136788E-14 -0.35527136788E-14  0.91188000000E+02  0.91188000000E+02 0.  0.
    9900012    2    3    3    0    0 -0.16194083216E+02  0.28044269224E+02  0.17522880593E+02  0.54367072367E+02  0.39999973074E+02 0.  0.
        -12    1    3    3    0    0  0.16194083216E+02 -0.28044269224E+02 -0.17522880593E+02  0.36820927633E+02  0.00000000000E+00 0.  1.
         11    1    4    4    0    0 -0.58865002237E+01  0.20051422006E+02  0.25774131411E+01  0.21055960394E+02  0.51100000000E-03 0. -1.
        -11    1    4    4    0    0  0.24050733777E+01 -0.55056789504E+01 -0.36668775581E+01  0.70386696147E+01  0.51100000000E-03 0.  1.
        -12    1    4    4    0    0 -0.12712656370E+02  0.13498526169E+02  0.18612345010E+02  0.26272442358E+02  0.00000000000E+00 0.  1.
</event>
<event>
 8    1  0.2433390E-006  0.9118800E+02  0.7816164E-02  0.1184000E+00
        -11   -1    0    0    0    0  0.00000000000E+00  0.00000000000E+00  0.45593999997E+02  0.45594000000E+02  0.51100000000E-03 0.  1.
         11   -1    0    0    0    0 -0.00000000000E+00 -0.00000000000E+00 -0.45593999997E+02  0.45594000000E+02  0.51100000000E-03 0. -1.
         23    2    1    2    0    0 -0.35527136788E-14  0.35527136788E-14  0.00000000000E+00  0.91188000000E+02  0.91188000000E+02 0.  0.
    9900012    2    3    3    0    0 -0.29693284865E+02 -0.21463843532E+02  0.36586896736E+01  0.54367166830E+02  0.40000188422E+02 0.  0.
         12    1    3    3    0    0  0.29693284865E+02  0.21463843532E+02 -0.36586896736E+01  0.36820833170E+02  0.00000000000E+00 0. -1.
         11    1    4    4    0    0 -0.81875902530E+01  0.59985392793E+01 -0.55108598009E+01  0.11549401874E+02  0.51100000000E-03 0. -1.
        -11    1    4    4    0    0 -0.53621598975E+01 -0.21192575707E+02  0.12500317848E+02  0.25182056517E+02  0.51100000000E-03 0.  1.
        -12    1    4    4    0    0 -0.16143534714E+02 -0.62698071038E+01 -0.33307683734E+01  0.17635708439E+02  0.00000000000E+00 0.  1.
</event>
<event>
 8    1  0.2433390E-006  0.9118800E+02  0.7816164E-02  0.1184000E+00
        -11   -1    0    0    0    0  0.00000000000E+00  0.00000000000E+00  0.45593999997E+02  0.45594000000E+02  0.51100000000E-03 0. -1.
         11   -1    0    0    0    0 -0.00000000000E+00 -0.00000000000E+00 -0.45593999997E+02  0.45594000000E+02  0.51100000000E-03 0.  1.
         23    2    1    2    0    0  0.35527136788E-14  0.00000000000E+00  0.35527136788E-14  0.91188000000E+02  0.91188000000E+02 0.  0.
    9900012    2    3    3    0    0 -0.28748156971E+02  0.13875890653E+02 -0.18351636879E+02  0.54367089544E+02  0.40000012233E+02 0.  0.
         12    1    3    3    0    0  0.28748156971E+02 -0.13875890653E+02  0.18351636879E+02  0.36820910456E+02  0.00000000000E+00 0. -1.
         11    1    4    4    0    0 -0.11733009567E+02  0.86004687952E+01  0.24312159178E+01  0.14749318225E+02  0.51100000000E-03 0. -1.
        -11    1    4    4    0    0 -0.12400643020E+02  0.17039732207E+02 -0.12369639314E+02  0.24436374485E+02  0.51100000000E-03 0.  1.
        -12    1    4    4    0    0 -0.46145043846E+01 -0.11764310349E+02 -0.84132134833E+01  0.15181396833E+02  0.00000000000E+00 0.  1.
</event>
<event>
 8    1  0.2433390E-006  0.9118800E+02  0.7816164E-02  0.1184000E+00
        -11   -1    0    0    0    0  0.00000000000E+00  0.00000000000E+00  0.45593999997E+02  0.45594000000E+02  0.51100000000E-03 0. -1.
         11   -1    0    0    0    0 -0.00000000000E+00 -0.00000000000E+00 -0.45593999997E+02  0.45594000000E+02  0.51100000000E-03 0.  1.
         23    2    1    2    0    0  0.00000000000E+00  0.00000000000E+00  0.00000000000E+00  0.91188000000E+02  0.91188000000E+02 0.  0.
    9900012    2    3    3    0    0  0.45181127234E+01  0.24737848145E+02  0.26896132810E+02  0.54367130461E+02  0.40000105512E+02 0.  0.
        -12    1    3    3    0    0 -0.45181127234E+01 -0.24737848145E+02 -0.26896132810E+02  0.36820869539E+02  0.00000000000E+00 0.  1.
         11    1    4    4    0    0  0.42318646511E+01  0.60767160590E+01  0.15255459030E+02  0.16957717623E+02  0.51100000000E-03 0. -1.
        -11    1    4    4    0    0 -0.14399122525E+02  0.49585926140E+01  0.28906651349E+01  0.15500913372E+02  0.51100000000E-03 0.  1.
         12    1    4    4    0    0  0.14685370597E+02  0.13702539472E+02  0.87500086450E+01  0.21908499466E+02  0.00000000000E+00 0. -1.
</event>
<event>
 8    1  0.2433390E-006  0.9118800E+02  0.7816164E-02  0.1184000E+00
        -11   -1    0    0    0    0  0.00000000000E+00  0.00000000000E+00  0.45593999997E+02  0.45594000000E+02  0.51100000000E-03 0. -1.
         11   -1    0    0    0    0 -0.00000000000E+00 -0.00000000000E+00 -0.45593999997E+02  0.45594000000E+02  0.51100000000E-03 0.  1.
         23    2    1    2    0    0  0.88817841970E-15  0.35527136788E-14  0.00000000000E+00  0.91188000000E+02  0.91188000000E+02 0.  0.
    9900012    2    3    3    0    0 -0.67402313612E+01 -0.24270668775E+02 -0.26856740701E+02  0.54367073849E+02  0.39999976453E+02 0.  0.
         12    1    3    3    0    0  0.67402313612E+01  0.24270668775E+02  0.26856740701E+02  0.36820926151E+02  0.00000000000E+00 0. -1.
         11    1    4    4    0    0  0.92512038510E+01 -0.16592050158E+02 -0.69952840767E+01  0.20243885514E+02  0.51100000000E-03 0. -1.
        -11    1    4    4    0    0 -0.18322215944E+01 -0.12618075570E+02 -0.92621229724E+01  0.15759434929E+02  0.51100000000E-03 0.  1.
        -12    1    4    4    0    0 -0.14159213618E+02  0.49394569537E+01 -0.10599333652E+02  0.18363753405E+02  0.00000000000E+00 0.  1.
</event>
<event>
 8    1  0.2433390E-006  0.9118800E+02  0.7816164E-02  0.1184000E+00
        -11   -1    0    0    0    0  0.00000000000E+00  0.00000000000E+00  0.45593999997E+02  0.45594000000E+02  0.51100000000E-03 0. -1.
         11   -1    0    0    0    0 -0.00000000000E+00 -0.00000000000E+00 -0.45593999997E+02  0.45594000000E+02  0.51100000000E-03 0.  1.
         23    2    1    2    0    0 -0.35527136788E-14 -0.88817841970E-15  0.00000000000E+00  0.91188000000E+02  0.91188000000E+02 0.  0.
    9900012    2    3    3    0    0  0.31728763759E+02  0.43988610212E+01 -0.18158054516E+02  0.54367090563E+02  0.40000014556E+02 0.  0.
         12    1    3    3    0    0 -0.31728763759E+02 -0.43988610212E+01  0.18158054516E+02  0.36820909437E+02  0.00000000000E+00 0. -1.
         11    1    4    4    0    0 -0.90374208093E+00 -0.28586332575E+01  0.30434626444E+01  0.42721422002E+01  0.51100000000E-03 0. -1.
        -11    1    4    4    0    0 -0.40691982896E+00  0.64574342482E+01  0.47894658743E+01  0.80500325738E+01  0.51100000000E-03 0.  1.
        -12    1    4    4    0    0  0.33039425669E+02  0.80006003041E+00 -0.25990983034E+02  0.42044915789E+02  0.00000000000E+00 0.  1.
</event>
<event>
 8    1  0.2433390E-006  0.9118800E+02  0.7816164E-02  0.1184000E+00
        -11   -1    0    0    0    0  0.00000000000E+00  0.00000000000E+00  0.45593999997E+02  0.45594000000E+02  0.51100000000E-03 0.  1.
         11   -1    0    0    0    0 -0.00000000000E+00 -0.00000000000E+00 -0.45593999997E+02  0.45594000000E+02  0.51100000000E-03 0. -1.
         23    2    1    2    0    0  0.17763568394E-14  0.35527136788E-14 -0.35527136788E-14  0.91188000000E+02  0.91188000000E+02 0.  0.
    9900012    2    3    3    0    0  0.10656186864E+02  0.19674138596E+02  0.29242987591E+02  0.54367104150E+02  0.40000045531E+02 0.  0.
         12    1    3    3    0    0 -0.10656186864E+02 -0.19674138596E+02 -0.29242987591E+02  0.36820895850E+02  0.00000000000E+00 0. -1.
         11    1    4    4    0    0 -0.30934301366E+01  0.80393280704E+01  0.55662690990E+01  0.10255898682E+02  0.51100000000E-03 0. -1.
        -11    1    4    4    0    0  0.45855995211E+01  0.15927836993E+02  0.28447011321E+02  0.32923489602E+02  0.51100000000E-03 0.  1.
         12    1    4    4    0    0  0.91640174799E+01 -0.42930264674E+01 -0.47702928290E+01  0.11187715866E+02  0.00000000000E+00 0. -1.
</event>
<event>
 8    1  0.2433390E-006  0.9118800E+02  0.7816164E-02  0.1184000E+00
        -11   -1    0    0    0    0  0.00000000000E+00  0.00000000000E+00  0.45593999997E+02  0.45594000000E+02  0.51100000000E-03 0.  1.
         11   -1    0    0    0    0 -0.00000000000E+00 -0.00000000000E+00 -0.45593999997E+02  0.45594000000E+02  0.51100000000E-03 0. -1.
         23    2    1    2    0    0  0.00000000000E+00  0.00000000000E+00  0.00000000000E+00  0.91188000000E+02  0.91188000000E+02 0.  0.
    9900012    2    3    3    0    0  0.97042721223E+01  0.50397218436E+01 -0.35159743603E+02  0.54367092027E+02  0.40000017895E+02 0.  0.
        -12    1    3    3    0    0 -0.97042721223E+01 -0.50397218436E+01  0.35159743603E+02  0.36820907973E+02  0.00000000000E+00 0.  1.
         11    1    4    4    0    0 -0.11150495257E+02 -0.25007728002E+01 -0.79008989116E+01  0.13892861942E+02  0.51100000000E-03 0. -1.
        -11    1    4    4    0    0  0.38542944456E+01 -0.37830176601E+01  0.11131319013E+01  0.55141519004E+01  0.51100000000E-03 0.  1.
         12    1    4    4    0    0  0.17000472934E+02  0.11323512304E+02 -0.28371976593E+02  0.34960078185E+02  0.00000000000E+00 0. -1.
</event>
<event>
 8    1  0.2433390E-006  0.9118800E+02  0.7816164E-02  0.1184000E+00
        -11   -1    0    0    0    0  0.00000000000E+00  0.00000000000E+00  0.45593999997E+02  0.45594000000E+02  0.51100000000E-03 0. -1.
         11   -1    0    0    0    0 -0.00000000000E+00 -0.00000000000E+00 -0.45593999997E+02  0.45594000000E+02  0.51100000000E-03 0.  1.
         23    2    1    2    0    0  0.00000000000E+00  0.00000000000E+00  0.11102230246E-15  0.91188000000E+02  0.91188000000E+02 0.  0.
    9900012    2    3    3    0    0 -0.33545309007E+02 -0.15155371552E+02 -0.89956926453E+00  0.54367051232E+02  0.39999924894E+02 0.  0.
        -12    1    3    3    0    0  0.33545309007E+02  0.15155371552E+02  0.89956926453E+00  0.36820948768E+02  0.00000000000E+00 0.  1.
         11    1    4    4    0    0 -0.33035167095E+02 -0.14145250603E+02 -0.11016739743E+02  0.37586951651E+02  0.51100000000E-03 0. -1.
        -11    1    4    4    0    0  0.27686328226E+00  0.61453669980E+01  0.52843671275E+01  0.81096686132E+01  0.51100000000E-03 0.  1.
         12    1    4    4    0    0 -0.78700519511E+00 -0.71554879476E+01  0.48328033510E+01  0.86704309682E+01  0.00000000000E+00 0. -1.
</event>
<event>
 8    1  0.2433390E-006  0.9118800E+02  0.7816164E-02  0.1184000E+00
        -11   -1    0    0    0    0  0.00000000000E+00  0.00000000000E+00  0.45593999997E+02  0.45594000000E+02  0.51100000000E-03 0. -1.
         11   -1    0    0    0    0 -0.00000000000E+00 -0.00000000000E+00 -0.45593999997E+02  0.45594000000E+02  0.51100000000E-03 0.  1.
         23    2    1    2    0    0  0.00000000000E+00  0.88817841970E-15  0.35527136788E-14  0.91188000000E+02  0.91188000000E+02 0.  0.
    9900012    2    3    3    0    0 -0.25296632615E+02  0.44305385347E+01  0.26386189382E+02  0.54367078183E+02  0.39999986333E+02 0.  0.
        -12    1    3    3    0    0  0.25296632615E+02 -0.44305385347E+01 -0.26386189382E+02  0.36820921817E+02  0.00000000000E+00 0.  1.
         11    1    4    4    0    0 -0.71834688926E+01  0.66514781999E+01  0.42983357769E+00  0.97994461446E+01  0.51100000000E-03 0. -1.
        -11    1    4    4    0    0 -0.80811518520E+01  0.31095836457E+01 -0.60776801566E+01  0.10578880945E+02  0.51100000000E-03 0.  1.
        -12    1    4    4    0    0 -0.10032011871E+02 -0.53305233109E+01  0.32034035961E+02  0.33988751093E+02  0.00000000000E+00 0.  1.
</event>
<event>
 8    1  0.2433390E-006  0.9118800E+02  0.7816164E-02  0.1184000E+00
        -11   -1    0    0    0    0  0.00000000000E+00  0.00000000000E+00  0.45593999997E+02  0.45594000000E+02  0.51100000000E-03 0.  1.
         11   -1    0    0    0    0 -0.00000000000E+00 -0.00000000000E+00 -0.45593999997E+02  0.45594000000E+02  0.51100000000E-03 0. -1.
         23    2    1    2    0    0 -0.35527136788E-14  0.17763568394E-14  0.71054273576E-14  0.91188000000E+02  0.91188000000E+02 0.  0.
    9900012    2    3    3    0    0 -0.24999216697E+02  0.15759228708E+02  0.21965111573E+02  0.54367078619E+02  0.39999987328E+02 0.  0.
         12    1    3    3    0    0  0.24999216697E+02 -0.15759228708E+02 -0.21965111573E+02  0.36820921381E+02  0.00000000000E+00 0. -1.
         11    1    4    4    0    0 -0.29405094047E+01  0.13697617363E+02 -0.59279308356E+00  0.14022222394E+02  0.51100000000E-03 0. -1.
        -11    1    4    4    0    0 -0.31236927562E+01  0.10473948968E+02  0.19135499521E+01  0.11096068542E+02  0.51100000000E-03 0.  1.
        -12    1    4    4    0    0 -0.18935014536E+02 -0.84123376226E+01  0.20644354704E+02  0.29248787683E+02  0.00000000000E+00 0.  1.
</event>
<event>
 8    1  0.2433390E-006  0.9118800E+02  0.7816164E-02  0.1184000E+00
        -11   -1    0    0    0    0  0.00000000000E+00  0.00000000000E+00  0.45593999997E+02  0.45594000000E+02  0.51100000000E-03 0.  1.
         11   -1    0    0    0    0 -0.00000000000E+00 -0.00000000000E+00 -0.45593999997E+02  0.45594000000E+02  0.51100000000E-03 0. -1.
         23    2    1    2    0    0  0.00000000000E+00 -0.88817841970E-15 -0.17763568394E-14  0.91188000000E+02  0.91188000000E+02 0.  0.
    9900012    2    3    3    0    0 -0.33243272046E+02  0.61211537668E+01 -0.14601257359E+02  0.54367076923E+02  0.39999983462E+02 0.  0.
        -12    1    3    3    0    0  0.33243272046E+02 -0.61211537668E+01  0.14601257359E+02  0.36820923077E+02  0.00000000000E+00 0.  1.
         11    1    4    4    0    0 -0.68485542218E+01  0.71153501836E+01 -0.95439622649E+01  0.13733831189E+02  0.51100000000E-03 0. -1.
        -11    1    4    4    0    0  0.56056296899E+01  0.11471349273E+01  0.43753735571E+01  0.72029783276E+01  0.51100000000E-03 0.  1.
        -12    1    4    4    0    0 -0.32000347514E+02 -0.21413313441E+01 -0.94326686514E+01  0.33430267406E+02  0.00000000000E+00 0.  1.
</event>
<event>
 8    1  0.2433390E-006  0.9118800E+02  0.7816164E-02  0.1184000E+00
        -11   -1    0    0    0    0  0.00000000000E+00  0.00000000000E+00  0.45593999997E+02  0.45594000000E+02  0.51100000000E-03 0. -1.
         11   -1    0    0    0    0 -0.00000000000E+00 -0.00000000000E+00 -0.45593999997E+02  0.45594000000E+02  0.51100000000E-03 0.  1.
         23    2    1    2    0    0  0.26367796835E-15 -0.35527136788E-14  0.00000000000E+00  0.91188000000E+02  0.91188000000E+02 0.  0.
    9900012    2    3    3    0    0 -0.84246541817E-01 -0.24783473864E+02 -0.27231458863E+02  0.54367081678E+02  0.39999994301E+02 0.  0.
         12    1    3    3    0    0  0.84246541817E-01  0.24783473864E+02  0.27231458863E+02  0.36820918322E+02  0.00000000000E+00 0. -1.
         11    1    4    4    0    0  0.98313363333E+00 -0.15621950311E+02 -0.48261371341E+01  0.16379972013E+02  0.51100000000E-03 0. -1.
        -11    1    4    4    0    0  0.41891272328E+01  0.85482789739E+01 -0.15648837802E+02  0.18316877059E+02  0.51100000000E-03 0.  1.
        -12    1    4    4    0    0 -0.52565074079E+01 -0.17709802527E+02 -0.67564839273E+01  0.19670232605E+02  0.00000000000E+00 0.  1.
</event>
<event>
 8    1  0.2433390E-006  0.9118800E+02  0.7816164E-02  0.1184000E+00
        -11   -1    0    0    0    0  0.00000000000E+00  0.00000000000E+00  0.45593999997E+02  0.45594000000E+02  0.51100000000E-03 0.  1.
         11   -1    0    0    0    0 -0.00000000000E+00 -0.00000000000E+00 -0.45593999997E+02  0.45594000000E+02  0.51100000000E-03 0. -1.
         23    2    1    2    0    0  0.17763568394E-14 -0.35527136788E-14  0.71054273576E-14  0.91188000000E+02  0.91188000000E+02 0.  0.
    9900012    2    3    3    0    0  0.14597498131E+02 -0.21037135411E+02  0.26460005465E+02  0.54367083293E+02  0.39999997982E+02 0.  0.
         12    1    3    3    0    0 -0.14597498131E+02  0.21037135411E+02 -0.26460005465E+02  0.36820916707E+02  0.00000000000E+00 0. -1.
         11    1    4    4    0    0 -0.18127033960E+01  0.29927335135E+01  0.60195605262E+01  0.69625754340E+01  0.51100000000E-03 0. -1.
        -11    1    4    4    0    0 -0.37381184725E+01 -0.12159488586E+02 -0.42357912986E+01  0.13407782090E+02  0.51100000000E-03 0.  1.
        -12    1    4    4    0    0  0.20148319999E+02 -0.11870380339E+02  0.24676236237E+02  0.33996725769E+02  0.00000000000E+00 0.  1.
</event>
<event>
 8    1  0.2433390E-006  0.9118800E+02  0.7816164E-02  0.1184000E+00
        -11   -1    0    0    0    0  0.00000000000E+00  0.00000000000E+00  0.45593999997E+02  0.45594000000E+02  0.51100000000E-03 0. -1.
         11   -1    0    0    0    0 -0.00000000000E+00 -0.00000000000E+00 -0.45593999997E+02  0.45594000000E+02  0.51100000000E-03 0.  1.
         23    2    1    2    0    0 -0.71054273576E-14 -0.35527136788E-14 -0.88817841970E-15  0.91188000000E+02  0.91188000000E+02 0.  0.
    9900012    2    3    3    0    0  0.31518806294E+02  0.18725066888E+02  0.34229511554E+01  0.54367083732E+02  0.39999998984E+02 0.  0.
         12    1    3    3    0    0 -0.31518806294E+02 -0.18725066888E+02 -0.34229511554E+01  0.36820916268E+02  0.00000000000E+00 0. -1.
         11    1    4    4    0    0  0.69918012044E+01  0.32046528169E+01 -0.13073913394E+02  0.15168463846E+02  0.51100000000E-03 0.  1.
        -11    1    4    4    0    0 -0.41342453052E+00 -0.16057986853E+01  0.74328743255E+01  0.76155846959E+01  0.51100000000E-03 0. -1.
        -12    1    4    4    0    0  0.24940429621E+02  0.17126212757E+02  0.90639902237E+01  0.31583035190E+02  0.00000000000E+00 0.  1.
</event>
<event>
 8    1  0.2433390E-006  0.9118800E+02  0.7816164E-02  0.1184000E+00
        -11   -1    0    0    0    0  0.00000000000E+00  0.00000000000E+00  0.45593999997E+02  0.45594000000E+02  0.51100000000E-03 0. -1.
         11   -1    0    0    0    0 -0.00000000000E+00 -0.00000000000E+00 -0.45593999997E+02  0.45594000000E+02  0.51100000000E-03 0.  1.
         23    2    1    2    0    0 -0.71054273576E-14  0.00000000000E+00  0.00000000000E+00  0.91188000000E+02  0.91188000000E+02 0.  0.
    9900012    2    3    3    0    0 -0.34531023619E+02 -0.12535441606E+02 -0.25005351938E+01  0.54367060785E+02  0.39999946672E+02 0.  0.
         12    1    3    3    0    0  0.34531023619E+02  0.12535441606E+02  0.25005351938E+01  0.36820939215E+02  0.00000000000E+00 0. -1.
         11    1    4    4    0    0 -0.71314932383E+01 -0.22644823344E+01  0.74420374586E+01  0.10553198465E+02  0.51100000000E-03 0. -1.
        -11    1    4    4    0    0 -0.70911308383E+01  0.11086409033E+02 -0.39389206051E+01  0.13737092036E+02  0.51100000000E-03 0.  1.
        -12    1    4    4    0    0 -0.20308399542E+02 -0.21357368304E+02 -0.60036520473E+01  0.30076770284E+02  0.00000000000E+00 0.  1.
</event>
