<event>
 8    1  0.2504019E-006  0.9118800E+02  0.7816164E-02  0.1184000E+00
        -11   -1    0    0    0    0  0.00000000000E+00  0.00000000000E+00  0.45593999997E+02  0.45594000000E+02  0.51100000000E-03 0.  1.
         11   -1    0    0    0    0 -0.00000000000E+00 -0.00000000000E+00 -0.45593999997E+02  0.45594000000E+02  0.51100000000E-03 0. -1.
         23    2    1    2    0    0  0.00000000000E+00 -0.44408920985E-15  0.71054273576E-14  0.91188000000E+02  0.91188000000E+02 0.  0.
    9900012    2    3    3    0    0 -0.11365421363E+02 -0.25979850311E+01 -0.34926541070E+02  0.54367005987E+02  0.39999821747E+02 0.  0.
        -12    1    3    3    0    0  0.11365421363E+02  0.25979850311E+01  0.34926541070E+02  0.36820994013E+02  0.00000000000E+00 0.  1.
         11    1    4    4    0    0 -0.69921143849E+01  0.12837136503E+01  0.85683577175E+00  0.71604296036E+01  0.51100000000E-03 0. -1.
        -11    1    4    4    0    0 -0.26711596605E+01 -0.10886976923E+02 -0.52867171515E+00  0.11222337301E+02  0.51100000000E-03 0.  1.
         12    1    4    4    0    0 -0.17021473180E+01  0.70052782413E+01 -0.35254705127E+02  0.35984239082E+02  0.00000000000E+00 0. -1.
</event>
<event>
 8    1  0.2504019E-006  0.9118800E+02  0.7816164E-02  0.1184000E+00
        -11   -1    0    0    0    0  0.00000000000E+00  0.00000000000E+00  0.45593999997E+02  0.45594000000E+02  0.51100000000E-03 0. -1.
         11   -1    0    0    0    0 -0.00000000000E+00 -0.00000000000E+00 -0.45593999997E+02  0.45594000000E+02  0.51100000000E-03 0.  1.
         23    2    1    2    0    0  0.00000000000E+00  0.17763568394E-14 -0.71054273576E-14  0.91188000000E+02  0.91188000000E+02 0.  0.
    9900012    2    3    3    0    0  0.77959040353E+01  0.11963750730E+02 -0.33939244537E+02  0.54367085142E+02  0.40000002197E+02 0.  0.
         12    1    3    3    0    0 -0.77959040353E+01 -0.11963750730E+02  0.33939244537E+02  0.36820914858E+02  0.00000000000E+00 0. -1.
         11    1    4    4    0    0 -0.79125286506E+01 -0.89043772416E+01 -0.74047389809E+01  0.14025911854E+02  0.51100000000E-03 0. -1.
        -11    1    4    4    0    0  0.61703906253E+01  0.97020626845E+00 -0.57785866135E+00  0.62728734696E+01  0.51100000000E-03 0.  1.
        -12    1    4    4    0    0  0.95380420606E+01  0.19897921703E+02 -0.25956646895E+02  0.34068299818E+02  0.00000000000E+00 0.  1.
</event>
<event>
 8    1  0.2504019E-006  0.9118800E+02  0.7816164E-02  0.1184000E+00
        -11   -1    0    0    0    0  0.00000000000E+00  0.00000000000E+00  0.45593999997E+02  0.45594000000E+02  0.51100000000E-03 0.  1.
         11   -1    0    0    0    0 -0.00000000000E+00 -0.00000000000E+00 -0.45593999997E+02  0.45594000000E+02  0.51100000000E-03 0. -1.
         23    2    1    2    0    0  0.00000000000E+00  0.00000000000E+00  0.35527136788E-14  0.91188000000E+02  0.91188000000E+02 0.  0.
    9900012    2    3    3    0    0  0.22438029081E+02  0.18345238600E+02  0.22710511772E+02  0.54367078321E+02  0.39999986649E+02 0.  0.
         12    1    3    3    0    0 -0.22438029081E+02 -0.18345238600E+02 -0.22710511772E+02  0.36820921679E+02  0.00000000000E+00 0. -1.
         11    1    4    4    0    0  0.98239315501E+00  0.13584069624E+02  0.22407705456E+01  0.13802648180E+02  0.51100000000E-03 0.  1.
        -11    1    4    4    0    0  0.11855521138E+02  0.12359125574E+01 -0.51456058867E+01  0.12982993549E+02  0.51100000000E-03 0. -1.
        -12    1    4    4    0    0  0.96001147875E+01  0.35252564182E+01  0.25615347114E+02  0.27581436592E+02  0.00000000000E+00 0.  1.
</event>
<event>
 8    1  0.2504019E-006  0.9118800E+02  0.7816164E-02  0.1184000E+00
        -11   -1    0    0    0    0  0.00000000000E+00  0.00000000000E+00  0.45593999997E+02  0.45594000000E+02  0.51100000000E-03 0. -1.
         11   -1    0    0    0    0 -0.00000000000E+00 -0.00000000000E+00 -0.45593999997E+02  0.45594000000E+02  0.51100000000E-03 0.  1.
         23    2    1    2    0    0  0.00000000000E+00  0.00000000000E+00  0.00000000000E+00  0.91188000000E+02  0.91188000000E+02 0.  0.
    9900012    2    3    3    0    0 -0.11287809361E+02  0.15231238638E+02  0.31565405477E+02  0.54367080762E+02  0.39999992213E+02 0.  0.
        -12    1    3    3    0    0  0.11287809361E+02 -0.15231238638E+02 -0.31565405477E+02  0.36820919238E+02  0.00000000000E+00 0.  1.
         11    1    4    4    0    0 -0.17929214378E+02  0.18545004150E+01  0.15367508546E+02  0.23686625323E+02  0.51100000000E-03 0. -1.
        -11    1    4    4    0    0  0.22988040754E+01  0.14764787926E+02  0.19845327474E+02  0.24841909860E+02  0.51100000000E-03 0.  1.
         12    1    4    4    0    0  0.43426009416E+01 -0.13880497032E+01 -0.36474305432E+01  0.58385455795E+01  0.00000000000E+00 0. -1.
</event>
<event>
 8    1  0.2504019E-006  0.9118800E+02  0.7816164E-02  0.1184000E+00
        -11   -1    0    0    0    0  0.00000000000E+00  0.00000000000E+00  0.45593999997E+02  0.45594000000E+02  0.51100000000E-03 0. -1.
         11   -1    0    0    0    0 -0.00000000000E+00 -0.00000000000E+00 -0.45593999997E+02  0.45594000000E+02  0.51100000000E-03 0.  1.
         23    2    1    2    0    0 -0.35527136788E-14  0.00000000000E+00  0.00000000000E+00  0.91188000000E+02  0.91188000000E+02 0.  0.
    9900012    2    3    3    0    0  0.27673619849E+02  0.21445692944E+02  0.11403185323E+02  0.54367087234E+02  0.40000006968E+02 0.  0.
        -12    1    3    3    0    0 -0.27673619849E+02 -0.21445692944E+02 -0.11403185323E+02  0.36820912766E+02  0.00000000000E+00 0.  1.
         11    1    4    4    0    0 -0.58247600565E+01  0.62298610041E+01  0.77059763102E+00  0.85634583444E+01  0.51100000000E-03 0.  1.
        -11    1    4    4    0    0  0.19579109217E+02  0.20798259919E+02  0.11475318223E+02  0.30782983318E+02  0.51100000000E-03 0. -1.
         12    1    4    4    0    0  0.13919270688E+02 -0.55824279794E+01 -0.84273053088E+00  0.15020645572E+02  0.00000000000E+00 0. -1.
</event>
<event>
 8    1  0.2504019E-006  0.9118800E+02  0.7816164E-02  0.1184000E+00
        -11   -1    0    0    0    0  0.00000000000E+00  0.00000000000E+00  0.45593999997E+02  0.45594000000E+02  0.51100000000E-03 0. -1.
         11   -1    0    0    0    0 -0.00000000000E+00 -0.00000000000E+00 -0.45593999997E+02  0.45594000000E+02  0.51100000000E-03 0.  1.
         23    2    1    2    0    0  0.35527136788E-14 -0.22204460493E-15 -0.71054273576E-14  0.91188000000E+02  0.91188000000E+02 0.  0.
    9900012    2    3    3    0    0 -0.12648829376E+02 -0.40556566635E+00  0.34577764912E+02  0.54367092971E+02  0.40000020046E+02 0.  0.
        -12    1    3    3    0    0  0.12648829376E+02  0.40556566635E+00 -0.34577764912E+02  0.36820907029E+02  0.00000000000E+00 0.  1.
         11    1    4    4    0    0 -0.89449631701E+01 -0.93386303235E+00 -0.53070050125E+01  0.10442641847E+02  0.51100000000E-03 0. -1.
        -11    1    4    4    0    0 -0.46130056647E+01  0.61525606388E+01  0.65351339735E+01  0.10091669832E+02  0.51100000000E-03 0.  1.
         12    1    4    4    0    0  0.90913945850E+00 -0.56242632728E+01  0.33349635951E+02  0.33832781293E+02  0.00000000000E+00 0. -1.
</event>
<event>
 8    1  0.2504019E-006  0.9118800E+02  0.7816164E-02  0.1184000E+00
        -11   -1    0    0    0    0  0.00000000000E+00  0.00000000000E+00  0.45593999997E+02  0.45594000000E+02  0.51100000000E-03 0. -1.
         11   -1    0    0    0    0 -0.00000000000E+00 -0.00000000000E+00 -0.45593999997E+02  0.45594000000E+02  0.51100000000E-03 0.  1.
         23    2    1    2    0    0  0.00000000000E+00  0.71054273576E-14  0.00000000000E+00  0.91188000000E+02  0.91188000000E+02 0.  0.
    9900012    2    3    3    0    0 -0.17743264065E+02  0.25100727481E+02 -0.20270933433E+02  0.54367072771E+02  0.39999973996E+02 0.  0.
         12    1    3    3    0    0  0.17743264065E+02 -0.25100727481E+02  0.20270933433E+02  0.36820927229E+02  0.00000000000E+00 0. -1.
         11    1    4    4    0    0 -0.20528921702E+02  0.71897864773E+01 -0.21694599786E+02  0.30721089108E+02  0.51100000000E-03 0. -1.
        -11    1    4    4    0    0  0.44459812624E+01 -0.99574944121E+00 -0.42923845750E+00  0.45762989686E+01  0.51100000000E-03 0.  1.
        -12    1    4    4    0    0 -0.16603236262E+01  0.18906690445E+02  0.18529048104E+01  0.19069684694E+02  0.00000000000E+00 0.  1.
</event>
<event>
 8    1  0.2504019E-006  0.9118800E+02  0.7816164E-02  0.1184000E+00
        -11   -1    0    0    0    0  0.00000000000E+00  0.00000000000E+00  0.45593999997E+02  0.45594000000E+02  0.51100000000E-03 0. -1.
         11   -1    0    0    0    0 -0.00000000000E+00 -0.00000000000E+00 -0.45593999997E+02  0.45594000000E+02  0.51100000000E-03 0.  1.
         23    2    1    2    0    0 -0.55511151231E-15  0.88817841970E-15  0.00000000000E+00  0.91188000000E+02  0.91188000000E+02 0.  0.
    9900012    2    3    3    0    0 -0.98125621270E+00 -0.76004872927E+01  0.36014576955E+02  0.54367081705E+02  0.39999994362E+02 0.  0.
        -12    1    3    3    0    0  0.98125621270E+00  0.76004872927E+01 -0.36014576955E+02  0.36820918295E+02  0.00000000000E+00 0.  1.
         11    1    4    4    0    0 -0.22670023705E+01 -0.14236625461E+02  0.16430123627E+02  0.21857945167E+02  0.51100000000E-03 0. -1.
        -11    1    4    4    0    0  0.11743220493E+02  0.42736648556E+01  0.31511240298E+01  0.12887863351E+02  0.51100000000E-03 0.  1.
         12    1    4    4    0    0 -0.10457474335E+02  0.23624733124E+01  0.16433329299E+02  0.19621273187E+02  0.00000000000E+00 0. -1.
</event>
<event>
 8    1  0.2504019E-006  0.9118800E+02  0.7816164E-02  0.1184000E+00
        -11   -1    0    0    0    0  0.00000000000E+00  0.00000000000E+00  0.45593999997E+02  0.45594000000E+02  0.51100000000E-03 0.  1.
         11   -1    0    0    0    0 -0.00000000000E+00 -0.00000000000E+00 -0.45593999997E+02  0.45594000000E+02  0.51100000000E-03 0. -1.
         23    2    1    2    0    0  0.00000000000E+00 -0.88817841970E-15  0.00000000000E+00  0.91188000000E+02  0.91188000000E+02 0.  0.
    9900012    2    3    3    0    0  0.19029680953E+02  0.61424390562E+01  0.30917978063E+02  0.54367086347E+02  0.40000004945E+02 0.  0.
         12    1    3    3    0    0 -0.19029680953E+02 -0.61424390562E+01 -0.30917978063E+02  0.36820913653E+02  0.00000000000E+00 0. -1.
         11    1    4    4    0    0  0.62155194343E+01  0.24116392301E+01 -0.21904718526E+01  0.70176101924E+01  0.51100000000E-03 0. -1.
        -11    1    4    4    0    0  0.12162663101E+02 -0.11288593529E+02  0.25694824259E+02  0.30587361958E+02  0.51100000000E-03 0.  1.
        -12    1    4    4    0    0  0.65149841748E+00  0.15019393356E+02  0.74136256570E+01  0.16762114197E+02  0.00000000000E+00 0.  1.
</event>
<event>
 8    1  0.2504019E-006  0.9118800E+02  0.7816164E-02  0.1184000E+00
        -11   -1    0    0    0    0  0.00000000000E+00  0.00000000000E+00  0.45593999997E+02  0.45594000000E+02  0.51100000000E-03 0. -1.
         11   -1    0    0    0    0 -0.00000000000E+00 -0.00000000000E+00 -0.45593999997E+02  0.45594000000E+02  0.51100000000E-03 0.  1.
         23    2    1    2    0    0 -0.17763568394E-14  0.00000000000E+00  0.26645352591E-14  0.91188000000E+02  0.91188000000E+02 0.  0.
    9900012    2    3    3    0    0  0.96672698320E+01  0.35202080835E+02 -0.48101516237E+01  0.54367079863E+02  0.39999990163E+02 0.  0.
        -12    1    3    3    0    0 -0.96672698320E+01 -0.35202080835E+02  0.48101516237E+01  0.36820920137E+02  0.00000000000E+00 0.  1.
         11    1    4    4    0    0  0.96418891528E+01  0.57626533939E+01  0.40271415637E+01  0.11932814840E+02  0.51100000000E-03 0. -1.
        -11    1    4    4    0    0 -0.17989138189E+01  0.98633295105E+01 -0.18107169888E+02  0.20697607629E+02  0.51100000000E-03 0.  1.
         12    1    4    4    0    0  0.18242944981E+01  0.19576097930E+02  0.92698767006E+01  0.21736657393E+02  0.00000000000E+00 0. -1.
</event>
<event>
 8    1  0.2504019E-006  0.9118800E+02  0.7816164E-02  0.1184000E+00
        -11   -1    0    0    0    0  0.00000000000E+00  0.00000000000E+00  0.45593999997E+02  0.45594000000E+02  0.51100000000E-03 0.  1.
         11   -1    0    0    0    0 -0.00000000000E+00 -0.00000000000E+00 -0.45593999997E+02  0.45594000000E+02  0.51100000000E-03 0. -1.
         23    2    1    2    0    0  0.17763568394E-14  0.00000000000E+00  0.35527136788E-14  0.91188000000E+02  0.91188000000E+02 0.  0.
    9900012    2    3    3    0    0  0.14185127313E+02 -0.23086805140E+02  0.24931123887E+02  0.54367090903E+02  0.40000015331E+02 0.  0.
         12    1    3    3    0    0 -0.14185127313E+02  0.23086805140E+02 -0.24931123887E+02  0.36820909097E+02  0.00000000000E+00 0. -1.
         11    1    4    4    0    0 -0.72563051843E+01  0.58145848465E+01  0.11132662133E+02  0.14505155232E+02  0.51100000000E-03 0. -1.
        -11    1    4    4    0    0  0.15634573964E+02 -0.13890204615E+02  0.10621422746E+02  0.23456178476E+02  0.51100000000E-03 0.  1.
        -12    1    4    4    0    0  0.58068585336E+01 -0.15011185372E+02  0.31770390079E+01  0.16405757195E+02  0.00000000000E+00 0.  1.
</event>
<event>
 8    1  0.2504019E-006  0.9118800E+02  0.7816164E-02  0.1184000E+00
        -11   -1    0    0    0    0  0.00000000000E+00  0.00000000000E+00  0.45593999997E+02  0.45594000000E+02  0.51100000000E-03 0. -1.
         11   -1    0    0    0    0 -0.00000000000E+00 -0.00000000000E+00 -0.45593999997E+02  0.45594000000E+02  0.51100000000E-03 0.  1.
         23    2    1    2    0    0  0.88817841970E-15  0.00000000000E+00 -0.35527136788E-14  0.91188000000E+02  0.91188000000E+02 0.  0.
    9900012    2    3    3    0    0  0.61204377616E+00 -0.28311923224E+02  0.23533788518E+02  0.54367098379E+02  0.40000032374E+02 0.  0.
        -12    1    3    3    0    0 -0.61204377616E+00  0.28311923224E+02 -0.23533788518E+02  0.36820901621E+02  0.00000000000E+00 0.  1.
         11    1    4    4    0    0 -0.77069392672E+01 -0.28093898547E+01 -0.95221030809E+00  0.82581044409E+01  0.51100000000E-03 0. -1.
        -11    1    4    4    0    0 -0.69831868140E+01 -0.14885647737E+02  0.14793705018E+01  0.16508662695E+02  0.51100000000E-03 0.  1.
         12    1    4    4    0    0  0.15302169857E+02 -0.10616885632E+02  0.23006628324E+02  0.29600331243E+02  0.00000000000E+00 0. -1.
</event>
<event>
 8    1  0.2504019E-006  0.9118800E+02  0.7816164E-02  0.1184000E+00
        -11   -1    0    0    0    0  0.00000000000E+00  0.00000000000E+00  0.45593999997E+02  0.45594000000E+02  0.51100000000E-03 0.  1.
         11   -1    0    0    0    0 -0.00000000000E+00 -0.00000000000E+00 -0.45593999997E+02  0.45594000000E+02  0.51100000000E-03 0. -1.
         23    2    1    2    0    0  0.00000000000E+00  0.00000000000E+00  0.00000000000E+00  0.91188000000E+02  0.91188000000E+02 0.  0.
    9900012    2    3    3    0    0 -0.69793146810E+01  0.25094006838E+02 -0.26026131093E+02  0.54367088655E+02  0.40000010206E+02 0.  0.
        -12    1    3    3    0    0  0.69793146810E+01 -0.25094006838E+02  0.26026131093E+02  0.36820911345E+02  0.00000000000E+00 0.  1.
         11    1    4    4    0    0 -0.50945324140E+00  0.31475881950E+01 -0.26408399676E+02  0.26600196009E+02  0.51100000000E-03 0. -1.
        -11    1    4    4    0    0 -0.91721134043E+00  0.20233797498E+02 -0.37994559601E+01  0.20607855388E+02  0.51100000000E-03 0.  1.
        -12    1    4    4    0    0 -0.55526500991E+01  0.17126211456E+01  0.41817245425E+01  0.71590372580E+01  0.00000000000E+00 0.  1.
</event>
<event>
 8    1  0.2504019E-006  0.9118800E+02  0.7816164E-02  0.1184000E+00
        -11   -1    0    0    0    0  0.00000000000E+00  0.00000000000E+00  0.45593999997E+02  0.45594000000E+02  0.51100000000E-03 0.  1.
         11   -1    0    0    0    0 -0.00000000000E+00 -0.00000000000E+00 -0.45593999997E+02  0.45594000000E+02  0.51100000000E-03 0. -1.
         23    2    1    2    0    0  0.00000000000E+00  0.00000000000E+00  0.00000000000E+00  0.91188000000E+02  0.91188000000E+02 0.  0.
    9900012    2    3    3    0    0  0.21610540278E+02 -0.24959340621E+02  0.16303235483E+02  0.54367087157E+02  0.40000006793E+02 0.  0.
         12    1    3    3    0    0 -0.21610540278E+02  0.24959340621E+02 -0.16303235483E+02  0.36820912843E+02  0.00000000000E+00 0. -1.
         11    1    4    4    0    0  0.52182237439E+01  0.36989572686E+01  0.17620035786E+01  0.66345158670E+01  0.51100000000E-03 0. -1.
        -11    1    4    4    0    0  0.20989312067E+02 -0.32333628454E+02  0.88634890270E+01  0.39554723966E+02  0.51100000000E-03 0.  1.
        -12    1    4    4    0    0 -0.45969955323E+01  0.36753305646E+01  0.56777428771E+01  0.81778473244E+01  0.00000000000E+00 0.  1.
</event>
<event>
 8    1  0.2504019E-006  0.9118800E+02  0.7816164E-02  0.1184000E+00
        -11   -1    0    0    0    0  0.00000000000E+00  0.00000000000E+00  0.45593999997E+02  0.45594000000E+02  0.51100000000E-03 0.  1.
         11   -1    0    0    0    0 -0.00000000000E+00 -0.00000000000E+00 -0.45593999997E+02  0.45594000000E+02  0.51100000000E-03 0. -1.
         23    2    1    2    0    0 -0.44408920985E-15  0.15543122345E-14  0.00000000000E+00  0.91188000000E+02  0.91188000000E+02 0.  0.
    9900012    2    3    3    0    0 -0.13285502644E+01  0.19952868060E+01 -0.36742811184E+02  0.54367076750E+02  0.39999983067E+02 0.  0.
        -12    1    3    3    0    0  0.13285502644E+01 -0.19952868060E+01  0.36742811184E+02  0.36820923250E+02  0.00000000000E+00 0.  1.
         11    1    4    4    0    0 -0.33621995576E+01  0.17940564930E+02 -0.27509160998E+02  0.33013969694E+02  0.51100000000E-03 0. -1.
        -11    1    4    4    0    0  0.62938127198E+01 -0.93471078306E+01 -0.42068658983E+01  0.12028226149E+02  0.51100000000E-03 0.  1.
         12    1    4    4    0    0 -0.42601634267E+01 -0.65981702939E+01 -0.50267842884E+01  0.93248809071E+01  0.00000000000E+00 0. -1.
</event>
<event>
 8    1  0.2504019E-006  0.9118800E+02  0.7816164E-02  0.1184000E+00
        -11   -1    0    0    0    0  0.00000000000E+00  0.00000000000E+00  0.45593999997E+02  0.45594000000E+02  0.51100000000E-03 0.  1.
         11   -1    0    0    0    0 -0.00000000000E+00 -0.00000000000E+00 -0.45593999997E+02  0.45594000000E+02  0.51100000000E-03 0. -1.
         23    2    1    2    0    0  0.35527136788E-14  0.35527136788E-14  0.35527136788E-14  0.91188000000E+02  0.91188000000E+02 0.  0.
    9900012    2    3    3    0    0  0.24801638060E+02  0.22276668499E+02  0.15633571328E+02  0.54367085259E+02  0.40000002465E+02 0.  0.
         12    1    3    3    0    0 -0.24801638060E+02 -0.22276668499E+02 -0.15633571328E+02  0.36820914741E+02  0.00000000000E+00 0. -1.
         11    1    4    4    0    0  0.87704884332E+01  0.49647028974E+01  0.22179629198E+01  0.10319355697E+02  0.51100000000E-03 0. -1.
        -11    1    4    4    0    0  0.22644942828E+02  0.13149335861E+02  0.20688479389E+02  0.33372318603E+02  0.51100000000E-03 0.  1.
         12    1    4    4    0    0 -0.66137932010E+01  0.41626297406E+01 -0.72728709803E+01  0.10675410960E+02  0.00000000000E+00 0. -1.
</event>
<event>
 8    1  0.2504019E-006  0.9118800E+02  0.7816164E-02  0.1184000E+00
        -11   -1    0    0    0    0  0.00000000000E+00  0.00000000000E+00  0.45593999997E+02  0.45594000000E+02  0.51100000000E-03 0.  1.
         11   -1    0    0    0    0 -0.00000000000E+00 -0.00000000000E+00 -0.45593999997E+02  0.45594000000E+02  0.51100000000E-03 0. -1.
         23    2    1    2    0    0 -0.13322676296E-14  0.00000000000E+00 -0.35527136788E-14  0.91188000000E+02  0.91188000000E+02 0.  0.
    9900012    2    3    3    0    0  0.23863068650E+01 -0.22915110329E+02  0.28722499652E+02  0.54367099303E+02  0.40000034482E+02 0.  0.
         12    1    3    3    0    0 -0.23863068650E+01  0.22915110329E+02 -0.28722499652E+02  0.36820900697E+02  0.00000000000E+00 0. -1.
         11    1    4    4    0    0  0.80568473159E+01  0.41714980433E+00 -0.46493510247E+01  0.93114589536E+01  0.51100000000E-03 0. -1.
        -11    1    4    4    0    0 -0.25811585336E+01 -0.76402160781E+01  0.26408199430E+02  0.27612103840E+02  0.51100000000E-03 0.  1.
         12    1    4    4    0    0 -0.30893819172E+01 -0.15692044056E+02  0.69636512469E+01  0.17443536510E+02  0.00000000000E+00 0. -1.
</event>
<event>
 8    1  0.2504019E-006  0.9118800E+02  0.7816164E-02  0.1184000E+00
        -11   -1    0    0    0    0  0.00000000000E+00  0.00000000000E+00  0.45593999997E+02  0.45594000000E+02  0.51100000000E-03 0.  1.
         11   -1    0    0    0    0 -0.00000000000E+00 -0.00000000000E+00 -0.45593999997E+02  0.45594000000E+02  0.51100000000E-03 0. -1.
         23    2    1    2    0    0  0.00000000000E+00  0.00000000000E+00  0.00000000000E+00  0.91188000000E+02  0.91188000000E+02 0.  0.
    9900012    2    3    3    0    0  0.33380564617E+02 -0.11505366958E+02  0.10447179731E+02  0.54367093882E+02  0.40000022123E+02 0.  0.
         12    1    3    3    0    0 -0.33380564617E+02  0.11505366958E+02 -0.10447179731E+02  0.36820906118E+02  0.00000000000E+00 0. -1.
         11    1    4    4    0    0  0.95701298102E+01  0.18827492766E+01 -0.12125289616E+02  0.15561323143E+02  0.51100000000E-03 0.  1.
        -11    1    4    4    0    0  0.25807832851E+01  0.35462885880E+01  0.26381357071E+01  0.51182385041E+01  0.51100000000E-03 0. -1.
        -12    1    4    4    0    0  0.21229651522E+02 -0.16934404823E+02  0.19934333640E+02  0.33687532235E+02  0.00000000000E+00 0.  1.
</event>
<event>
 8    1  0.2504019E-006  0.9118800E+02  0.7816164E-02  0.1184000E+00
        -11   -1    0    0    0    0  0.00000000000E+00  0.00000000000E+00  0.45593999997E+02  0.45594000000E+02  0.51100000000E-03 0.  1.
         11   -1    0    0    0    0 -0.00000000000E+00 -0.00000000000E+00 -0.45593999997E+02  0.45594000000E+02  0.51100000000E-03 0. -1.
         23    2    1    2    0    0  0.00000000000E+00  0.44408920985E-15  0.17763568394E-14  0.91188000000E+02  0.91188000000E+02 0.  0.
    9900012    2    3    3    0    0  0.35497420527E+02 -0.38910085452E+01 -0.89762540843E+01  0.54367082725E+02  0.39999996688E+02 0.  0.
        -12    1    3    3    0    0 -0.35497420527E+02  0.38910085452E+01  0.89762540843E+01  0.36820917275E+02  0.00000000000E+00 0.  1.
         11    1    4    4    0    0  0.10151783379E+02  0.13135173424E+02 -0.12371440797E+02  0.20703720301E+02  0.51100000000E-03 0. -1.
        -11    1    4    4    0    0  0.16082440190E+02 -0.25178067508E+01  0.16656075218E+01  0.16363327351E+02  0.51100000000E-03 0.  1.
         12    1    4    4    0    0  0.92631969583E+01 -0.14508375218E+02  0.17295791905E+01  0.17300035073E+02  0.00000000000E+00 0. -1.
</event>
<event>
 8    1  0.2504019E-006  0.9118800E+02  0.7816164E-02  0.1184000E+00
        -11   -1    0    0    0    0  0.00000000000E+00  0.00000000000E+00  0.45593999997E+02  0.45594000000E+02  0.51100000000E-03 0. -1.
         11   -1    0    0    0    0 -0.00000000000E+00 -0.00000000000E+00 -0.45593999997E+02  0.45594000000E+02  0.51100000000E-03 0.  1.
         23    2    1    2    0    0  0.35527136788E-14  0.00000000000E+00  0.00000000000E+00  0.91188000000E+02  0.91188000000E+02 0.  0.
    9900012    2    3    3    0    0  0.23850605703E+02 -0.19154305573E+02  0.20494873697E+02  0.54367100198E+02  0.40000036521E+02 0.  0.
        -12    1    3    3    0    0 -0.23850605703E+02  0.19154305573E+02 -0.20494873697E+02  0.36820899802E+02  0.00000000000E+00 0.  1.
         11    1    4    4    0    0  0.13814631123E+01 -0.19360551068E+02  0.46134389055E+01  0.19950518710E+02  0.51100000000E-03 0. -1.
        -11    1    4    4    0    0  0.18403365800E+02 -0.17994676392E+01  0.20729988505E+02  0.27778667719E+02  0.51100000000E-03 0.  1.
        -12    1    4    4    0    0  0.40657767908E+01  0.20057131340E+01 -0.48485537138E+01  0.66379137689E+01  0.00000000000E+00 0.  1.
</event>
<event>
 8    1  0.2504019E-006  0.9118800E+02  0.7816164E-02  0.1184000E+00
        -11   -1    0    0    0    0  0.00000000000E+00  0.00000000000E+00  0.45593999997E+02  0.45594000000E+02  0.51100000000E-03 0.  1.
         11   -1    0    0    0    0 -0.00000000000E+00 -0.00000000000E+00 -0.45593999997E+02  0.45594000000E+02  0.51100000000E-03 0. -1.
         23    2    1    2    0    0 -0.17763568394E-14  0.00000000000E+00  0.71054273576E-14  0.91188000000E+02  0.91188000000E+02 0.  0.
    9900012    2    3    3    0    0  0.13833618638E+02  0.72940139108E+01  0.33334798628E+02  0.54367076015E+02  0.39999981392E+02 0.  0.
         12    1    3    3    0    0 -0.13833618638E+02 -0.72940139108E+01 -0.33334798628E+02  0.36820923985E+02  0.00000000000E+00 0. -1.
         11    1    4    4    0    0 -0.36605630332E-01 -0.88393933596E+00 -0.49540222345E+01  0.50323975680E+01  0.51100000000E-03 0. -1.
        -11    1    4    4    0    0 -0.40869751591E+01  0.72367749988E+01  0.15824178843E+01  0.84603974467E+01  0.51100000000E-03 0.  1.
         12    1    4    4    0    0  0.17957199427E+02  0.94117824796E+00  0.36706402978E+02  0.40874281001E+02  0.00000000000E+00 0. -1.
</event>
<event>
 8    1  0.2504019E-006  0.9118800E+02  0.7816164E-02  0.1184000E+00
        -11   -1    0    0    0    0  0.00000000000E+00  0.00000000000E+00  0.45593999997E+02  0.45594000000E+02  0.51100000000E-03 0.  1.
         11   -1    0    0    0    0 -0.00000000000E+00 -0.00000000000E+00 -0.45593999997E+02  0.45594000000E+02  0.51100000000E-03 0. -1.
         23    2    1    2    0    0  0.35527136788E-14  0.00000000000E+00 -0.35527136788E-14  0.91188000000E+02  0.91188000000E+02 0.  0.
    9900012    2    3    3    0    0 -0.26808362905E+02  0.14882098265E+02  0.20386580133E+02  0.54367111636E+02  0.40000062596E+02 0.  0.
         12    1    3    3    0    0  0.26808362905E+02 -0.14882098265E+02 -0.20386580133E+02  0.36820888364E+02  0.00000000000E+00 0. -1.
         11    1    4    4    0    0 -0.10128402547E+02 -0.39011349914E+01 -0.45388296696E+01  0.11764538554E+02  0.51100000000E-03 0. -1.
        -11    1    4    4    0    0 -0.97186238573E+01 -0.24094156854E+01  0.12776337374E+01  0.10094022085E+02  0.51100000000E-03 0.  1.
         12    1    4    4    0    0 -0.69613365006E+01  0.21192648942E+02  0.23647776065E+02  0.32508550996E+02  0.00000000000E+00 0. -1.
</event>
<event>
 8    1  0.2504019E-006  0.9118800E+02  0.7816164E-02  0.1184000E+00
        -11   -1    0    0    0    0  0.00000000000E+00  0.00000000000E+00  0.45593999997E+02  0.45594000000E+02  0.51100000000E-03 0.  1.
         11   -1    0    0    0    0 -0.00000000000E+00 -0.00000000000E+00 -0.45593999997E+02  0.45594000000E+02  0.51100000000E-03 0. -1.
         23    2    1    2    0    0 -0.17763568394E-14 -0.35527136788E-14  0.00000000000E+00  0.91188000000E+02  0.91188000000E+02 0.  0.
    9900012    2    3    3    0    0 -0.14008328380E+02  0.24362208102E+02 -0.23791370222E+02  0.54367085500E+02  0.40000003014E+02 0.  0.
        -12    1    3    3    0    0  0.14008328380E+02 -0.24362208102E+02  0.23791370222E+02  0.36820914500E+02  0.00000000000E+00 0.  1.
         11    1    4    4    0    0 -0.64046542217E+01  0.22906502540E+02 -0.44856420596E+01  0.24204306213E+02  0.51100000000E-03 0. -1.
        -11    1    4    4    0    0 -0.38485914374E+01  0.66400322036E+00 -0.23876947193E+02  0.24194238237E+02  0.51100000000E-03 0.  1.
        -12    1    4    4    0    0 -0.37550827208E+01  0.79170234130E+00  0.45712190307E+01  0.59685410499E+01  0.00000000000E+00 0.  1.
</event>
<event>
 8    1  0.2504019E-006  0.9118800E+02  0.7816164E-02  0.1184000E+00
        -11   -1    0    0    0    0  0.00000000000E+00  0.00000000000E+00  0.45593999997E+02  0.45594000000E+02  0.51100000000E-03 0.  1.
         11   -1    0    0    0    0 -0.00000000000E+00 -0.00000000000E+00 -0.45593999997E+02  0.45594000000E+02  0.51100000000E-03 0. -1.
         23    2    1    2    0    0  0.00000000000E+00  0.00000000000E+00  0.35527136788E-14  0.91188000000E+02  0.91188000000E+02 0.  0.
    9900012    2    3    3    0    0  0.25504355362E+02 -0.22222347293E+02 -0.14541981045E+02  0.54367162498E+02  0.40000178546E+02 0.  0.
         12    1    3    3    0    0 -0.25504355362E+02  0.22222347293E+02  0.14541981045E+02  0.36820837502E+02  0.00000000000E+00 0. -1.
         11    1    4    4    0    0 -0.98911904578E+00 -0.19200075486E+02  0.27694945451E+01  0.19423989175E+02  0.51100000000E-03 0. -1.
        -11    1    4    4    0    0  0.79980360660E+01 -0.67115968283E+01 -0.19557085926E+01  0.10622566039E+02  0.51100000000E-03 0.  1.
         12    1    4    4    0    0  0.18495438342E+02  0.36893250213E+01 -0.15355766998E+02  0.24320607284E+02  0.00000000000E+00 0. -1.
</event>
<event>
 8    1  0.2504019E-006  0.9118800E+02  0.7816164E-02  0.1184000E+00
        -11   -1    0    0    0    0  0.00000000000E+00  0.00000000000E+00  0.45593999997E+02  0.45594000000E+02  0.51100000000E-03 0. -1.
         11   -1    0    0    0    0 -0.00000000000E+00 -0.00000000000E+00 -0.45593999997E+02  0.45594000000E+02  0.51100000000E-03 0.  1.
         23    2    1    2    0    0  0.00000000000E+00  0.00000000000E+00  0.88817841970E-15  0.91188000000E+02  0.91188000000E+02 0.  0.
    9900012    2    3    3    0    0  0.35342965773E+02  0.81923780299E+01  0.62880109803E+01  0.54367090594E+02  0.40000014626E+02 0.  0.
        -12    1    3    3    0    0 -0.35342965773E+02 -0.81923780299E+01 -0.62880109803E+01  0.36820909406E+02  0.00000000000E+00 0.  1.
         11    1    4    4    0    0  0.13332782069E+01  0.11832299596E+02  0.61064690857E+01  0.13381700545E+02  0.51100000000E-03 0. -1.
        -11    1    4    4    0    0  0.11061942368E+02 -0.57315247530E+01  0.99630203399E+01  0.15952389147E+02  0.51100000000E-03 0.  1.
        -12    1    4    4    0    0  0.22947745198E+02  0.20916031864E+01 -0.97814784452E+01  0.25033000902E+02  0.00000000000E+00 0.  1.
</event>
<event>
 8    1  0.2504019E-006  0.9118800E+02  0.7816164E-02  0.1184000E+00
        -11   -1    0    0    0    0  0.00000000000E+00  0.00000000000E+00  0.45593999997E+02  0.45594000000E+02  0.51100000000E-03 0. -1.
         11   -1    0    0    0    0 -0.00000000000E+00 -0.00000000000E+00 -0.45593999997E+02  0.45594000000E+02  0.51100000000E-03 0.  1.
         23    2    1    2    0    0  0.00000000000E+00  0.35527136788E-14  0.00000000000E+00  0.91188000000E+02  0.91188000000E+02 0.  0.
    9900012    2    3    3    0    0  0.28737933899E+02  0.16496942981E+02  0.16054961016E+02  0.54367085485E+02  0.40000002981E+02 0.  0.
        -12    1    3    3    0    0 -0.28737933899E+02 -0.16496942981E+02 -0.16054961016E+02  0.36820914515E+02  0.00000000000E+00 0.  1.
         11    1    4    4    0    0  0.12787438939E+02  0.83355108974E+01  0.21445510904E+02  0.26323169922E+02  0.51100000000E-03 0. -1.
        -11    1    4    4    0    0  0.17917894888E+01  0.63704662714E+01  0.66426342697E+01  0.93764567076E+01  0.51100000000E-03 0.  1.
         12    1    4    4    0    0  0.14158705471E+02  0.17909658118E+01 -0.12033184158E+02  0.18667458856E+02  0.00000000000E+00 0. -1.
</event>
<event>
 8    1  0.2504019E-006  0.9118800E+02  0.7816164E-02  0.1184000E+00
        -11   -1    0    0    0    0  0.00000000000E+00  0.00000000000E+00  0.45593999997E+02  0.45594000000E+02  0.51100000000E-03 0.  1.
         11   -1    0    0    0    0 -0.00000000000E+00 -0.00000000000E+00 -0.45593999997E+02  0.45594000000E+02  0.51100000000E-03 0. -1.
         23    2    1    2    0    0  0.00000000000E+00  0.00000000000E+00 -0.18873791419E-14  0.91188000000E+02  0.91188000000E+02 0.  0.
    9900012    2    3    3    0    0  0.14780401323E+02 -0.33723405470E+02 -0.22560903574E+00  0.54367092363E+02  0.40000018659E+02 0.  0.
         12    1    3    3    0    0 -0.14780401323E+02  0.33723405470E+02  0.22560903574E+00  0.36820907637E+02  0.00000000000E+00 0. -1.
         11    1    4    4    0    0 -0.12347364092E+01  0.28776738497E+00 -0.87296329621E+01  0.88212173753E+01  0.51100000000E-03 0. -1.
        -11    1    4    4    0    0  0.65711741302E+01 -0.39267783890E+01 -0.70317543597E+01  0.10394493138E+02  0.51100000000E-03 0.  1.
        -12    1    4    4    0    0  0.94439636024E+01 -0.30084394466E+02  0.15535778286E+02  0.35151381849E+02  0.00000000000E+00 0.  1.
</event>
<event>
 8    1  0.2504019E-006  0.9118800E+02  0.7816164E-02  0.1184000E+00
        -11   -1    0    0    0    0  0.00000000000E+00  0.00000000000E+00  0.45593999997E+02  0.45594000000E+02  0.51100000000E-03 0.  1.
         11   -1    0    0    0    0 -0.00000000000E+00 -0.00000000000E+00 -0.45593999997E+02  0.45594000000E+02  0.51100000000E-03 0. -1.
         23    2    1    2    0    0  0.35527136788E-14 -0.26645352591E-14  0.35527136788E-14  0.91188000000E+02  0.91188000000E+02 0.  0.
    9900012    2    3    3    0    0 -0.31713358856E+02  0.62146256824E+01 -0.17647110792E+02  0.54367092602E+02  0.40000019204E+02 0.  0.
         12    1    3    3    0    0  0.31713358856E+02 -0.62146256824E+01  0.17647110792E+02  0.36820907398E+02  0.00000000000E+00 0. -1.
         11    1    4    4    0    0  0.51893862719E+01 -0.90318516705E+01 -0.11574710003E+01  0.10480639954E+02  0.51100000000E-03 0. -1.
        -11    1    4    4    0    0 -0.13134216641E+01  0.99365189383E+00 -0.26648519649E+01  0.31327075845E+01  0.51100000000E-03 0.  1.
        -12    1    4    4    0    0 -0.35589323464E+02  0.14252825459E+02 -0.13824787827E+02  0.40753745063E+02  0.00000000000E+00 0.  1.
</event>
<event>
 8    1  0.2504019E-006  0.9118800E+02  0.7816164E-02  0.1184000E+00
        -11   -1    0    0    0    0  0.00000000000E+00  0.00000000000E+00  0.45593999997E+02  0.45594000000E+02  0.51100000000E-03 0.  1.
         11   -1    0    0    0    0 -0.00000000000E+00 -0.00000000000E+00 -0.45593999997E+02  0.45594000000E+02  0.51100000000E-03 0. -1.
         23    2    1    2    0    0  0.00000000000E+00 -0.35527136788E-14 -0.35527136788E-14  0.91188000000E+02  0.91188000000E+02 0.  0.
    9900012    2    3    3    0    0 -0.21128583384E+02  0.21861209478E+02  0.20771382226E+02  0.54367084270E+02  0.40000000209E+02 0.  0.
         12    1    3    3    0    0  0.21128583384E+02 -0.21861209478E+02 -0.20771382226E+02  0.36820915730E+02  0.00000000000E+00 0. -1.
         11    1    4    4    0    0  0.43831388744E+01 -0.11865909075E+01  0.40728940375E+01  0.60998664310E+01  0.51100000000E-03 0. -1.
        -11    1    4    4    0    0  0.59024050744E+01  0.14257691600E+01 -0.11186419744E+01  0.61743472115E+01  0.51100000000E-03 0.  1.
        -12    1    4    4    0    0 -0.31414127333E+02  0.21622031225E+02  0.17817130163E+02  0.42092870627E+02  0.00000000000E+00 0.  1.
</event>
<event>
 8    1  0.2504019E-006  0.9118800E+02  0.7816164E-02  0.1184000E+00
        -11   -1    0    0    0    0  0.00000000000E+00  0.00000000000E+00  0.45593999997E+02  0.45594000000E+02  0.51100000000E-03 0.  1.
         11   -1    0    0    0    0 -0.00000000000E+00 -0.00000000000E+00 -0.45593999997E+02  0.45594000000E+02  0.51100000000E-03 0. -1.
         23    2    1    2    0    0  0.35527136788E-14  0.71054273576E-14  0.00000000000E+00  0.91188000000E+02  0.91188000000E+02 0.  0.
    9900012    2    3    3    0    0 -0.20960057830E+02 -0.28155624843E+02 -0.11122799699E+02  0.54367083286E+02  0.39999997966E+02 0.  0.
         12    1    3    3    0    0  0.20960057830E+02  0.28155624843E+02  0.11122799699E+02  0.36820916714E+02  0.00000000000E+00 0. -1.
         11    1    4    4    0    0 -0.14080669434E+02 -0.56218248381E+00 -0.86787288534E+01  0.16549973886E+02  0.51100000000E-03 0. -1.
        -11    1    4    4    0    0 -0.15525559073E+02 -0.17688847342E+02 -0.58164715738E+01  0.24243961035E+02  0.51100000000E-03 0.  1.
         12    1    4    4    0    0  0.86461706778E+01 -0.99045950176E+01  0.33724007281E+01  0.13573148364E+02  0.00000000000E+00 0. -1.
</event>
<event>
 8    1  0.2504019E-006  0.9118800E+02  0.7816164E-02  0.1184000E+00
        -11   -1    0    0    0    0  0.00000000000E+00  0.00000000000E+00  0.45593999997E+02  0.45594000000E+02  0.51100000000E-03 0.  1.
         11   -1    0    0    0    0 -0.00000000000E+00 -0.00000000000E+00 -0.45593999997E+02  0.45594000000E+02  0.51100000000E-03 0. -1.
         23    2    1    2    0    0  0.26645352591E-14  0.17763568394E-14  0.00000000000E+00  0.91188000000E+02  0.91188000000E+02 0.  0.
    9900012    2    3    3    0    0 -0.64913121378E+01 -0.12188465161E+02  0.34133401780E+02  0.54367015041E+02  0.39999842389E+02 0.  0.
         12    1    3    3    0    0  0.64913121378E+01  0.12188465161E+02 -0.34133401780E+02  0.36820984959E+02  0.00000000000E+00 0. -1.
         11    1    4    4    0    0  0.18517334670E+01 -0.73653588594E+01  0.28015587391E+02  0.29026721569E+02  0.51100000000E-03 0.  1.
        -11    1    4    4    0    0  0.21392045728E+00 -0.10587132564E+02  0.97579867650E+01  0.14399702909E+02  0.51100000000E-03 0. -1.
         12    1    4    4    0    0 -0.85569660621E+01  0.57640262626E+01 -0.36401723755E+01  0.10940590563E+02  0.00000000000E+00 0. -1.
</event>
<event>
 8    1  0.2504019E-006  0.9118800E+02  0.7816164E-02  0.1184000E+00
        -11   -1    0    0    0    0  0.00000000000E+00  0.00000000000E+00  0.45593999997E+02  0.45594000000E+02  0.51100000000E-03 0.  1.
         11   -1    0    0    0    0 -0.00000000000E+00 -0.00000000000E+00 -0.45593999997E+02  0.45594000000E+02  0.51100000000E-03 0. -1.
         23    2    1    2    0    0  0.71054273576E-14  0.00000000000E+00 -0.35527136788E-14  0.91188000000E+02  0.91188000000E+02 0.  0.
    9900012    2    3    3    0    0 -0.31757265919E+02  0.57852209555E+01  0.17713976186E+02  0.54367113638E+02  0.40000067161E+02 0.  0.
         12    1    3    3    0    0  0.31757265919E+02 -0.57852209555E+01 -0.17713976186E+02  0.36820886362E+02  0.00000000000E+00 0. -1.
         11    1    4    4    0    0 -0.30254007838E+02 -0.94773953470E+00  0.49655146968E+01  0.30673433733E+02  0.51100000000E-03 0. -1.
        -11    1    4    4    0    0 -0.18302733373E+00  0.86046800094E+01  0.16892563909E+02  0.18958711263E+02  0.51100000000E-03 0.  1.
        -12    1    4    4    0    0 -0.13202307471E+01 -0.18717195192E+01 -0.41441024195E+01  0.47349686427E+01  0.00000000000E+00 0.  1.
</event>
<event>
 8    1  0.2504019E-006  0.9118800E+02  0.7816164E-02  0.1184000E+00
        -11   -1    0    0    0    0  0.00000000000E+00  0.00000000000E+00  0.45593999997E+02  0.45594000000E+02  0.51100000000E-03 0.  1.
         11   -1    0    0    0    0 -0.00000000000E+00 -0.00000000000E+00 -0.45593999997E+02  0.45594000000E+02  0.51100000000E-03 0. -1.
         23    2    1    2    0    0  0.44408920985E-15  0.00000000000E+00 -0.77715611724E-15  0.91188000000E+02  0.91188000000E+02 0.  0.
    9900012    2    3    3    0    0  0.20653925979E+01 -0.36762695977E+02 -0.13526600096E+00  0.54367082590E+02  0.39999996380E+02 0.  0.
         12    1    3    3    0    0 -0.20653925979E+01  0.36762695977E+02  0.13526600096E+00  0.36820917410E+02  0.00000000000E+00 0. -1.
         11    1    4    4    0    0  0.79003580285E+01 -0.12869588062E+02 -0.13955647582E+02  0.20562150996E+02  0.51100000000E-03 0. -1.
        -11    1    4    4    0    0 -0.39304053943E+01 -0.15421619131E+02 -0.17159791009E+01  0.16006842528E+02  0.51100000000E-03 0.  1.
        -12    1    4    4    0    0 -0.19045600363E+01 -0.84714887837E+01  0.15536360682E+02  0.17798089066E+02  0.00000000000E+00 0.  1.
</event>
<event>
 8    1  0.2504019E-006  0.9118800E+02  0.7816164E-02  0.1184000E+00
        -11   -1    0    0    0    0  0.00000000000E+00  0.00000000000E+00  0.45593999997E+02  0.45594000000E+02  0.51100000000E-03 0.  1.
         11   -1    0    0    0    0 -0.00000000000E+00 -0.00000000000E+00 -0.45593999997E+02  0.45594000000E+02  0.51100000000E-03 0. -1.
         23    2    1    2    0    0  0.71054273576E-14  0.35527136788E-14  0.44408920985E-15  0.91188000000E+02  0.91188000000E+02 0.  0.
    9900012    2    3    3    0    0  0.28058601378E+02  0.23507848395E+02 -0.39846318093E+01  0.54367063862E+02  0.39999953687E+02 0.  0.
        -12    1    3    3    0    0 -0.28058601378E+02 -0.23507848395E+02  0.39846318093E+01  0.36820936138E+02  0.00000000000E+00 0.  1.
         11    1    4    4    0    0  0.80140133907E+01  0.11509855820E+02  0.31084602640E+01  0.14365365192E+02  0.51100000000E-03 0. -1.
        -11    1    4    4    0    0 -0.34417433169E+01 -0.53605497855E+01  0.52895777469E+01  0.82801403409E+01  0.51100000000E-03 0.  1.
        -12    1    4    4    0    0  0.23486331304E+02  0.17358542360E+02 -0.12382669820E+02  0.31721558329E+02  0.00000000000E+00 0.  1.
</event>
<event>
 8    1  0.2504019E-006  0.9118800E+02  0.7816164E-02  0.1184000E+00
        -11   -1    0    0    0    0  0.00000000000E+00  0.00000000000E+00  0.45593999997E+02  0.45594000000E+02  0.51100000000E-03 0.  1.
         11   -1    0    0    0    0 -0.00000000000E+00 -0.00000000000E+00 -0.45593999997E+02  0.45594000000E+02  0.51100000000E-03 0. -1.
         23    2    1    2    0    0  0.00000000000E+00 -0.17763568394E-14 -0.17763568394E-14  0.91188000000E+02  0.91188000000E+02 0.  0.
    9900012    2    3    3    0    0 -0.34253467937E+02 -0.92549199280E+01 -0.98399822467E+01  0.54367097523E+02  0.40000030423E+02 0.  0.
        -12    1    3    3    0    0  0.34253467937E+02  0.92549199280E+01  0.98399822467E+01  0.36820902477E+02  0.00000000000E+00 0.  1.
         11    1    4    4    0    0 -0.13575486307E+01 -0.48151050127E+01 -0.72425783273E+01  0.88024494123E+01  0.51100000000E-03 0. -1.
        -11    1    4    4    0    0 -0.11931634569E+02 -0.11181715826E+02  0.10977443164E+02  0.19695149936E+02  0.51100000000E-03 0.  1.
         12    1    4    4    0    0 -0.20964284738E+02  0.67419009108E+01 -0.13574847084E+02  0.25869498175E+02  0.00000000000E+00 0. -1.
</event>
<event>
 8    1  0.2504019E-006  0.9118800E+02  0.7816164E-02  0.1184000E+00
        -11   -1    0    0    0    0  0.00000000000E+00  0.00000000000E+00  0.45593999997E+02  0.45594000000E+02  0.51100000000E-03 0.  1.
         11   -1    0    0    0    0 -0.00000000000E+00 -0.00000000000E+00 -0.45593999997E+02  0.45594000000E+02  0.51100000000E-03 0. -1.
         23    2    1    2    0    0  0.00000000000E+00  0.00000000000E+00  0.35527136788E-14  0.91188000000E+02  0.91188000000E+02 0.  0.
    9900012    2    3    3    0    0  0.21828465945E+02  0.19424990871E+02 -0.22404648810E+02  0.54367075458E+02  0.39999980122E+02 0.  0.
        -12    1    3    3    0    0 -0.21828465945E+02 -0.19424990871E+02  0.22404648810E+02  0.36820924542E+02  0.00000000000E+00 0.  1.
         11    1    4    4    0    0  0.17481933996E+01  0.40731516414E+01 -0.13951616743E+01  0.46468506341E+01  0.51100000000E-03 0.  1.
        -11    1    4    4    0    0  0.94520225311E+01  0.22889957679E+02  0.27242949023E+00  0.24766209047E+02  0.51100000000E-03 0. -1.
        -12    1    4    4    0    0  0.10628250014E+02 -0.75381184498E+01 -0.21281916626E+02  0.24954015777E+02  0.00000000000E+00 0.  1.
</event>
<event>
 8    1  0.2504019E-006  0.9118800E+02  0.7816164E-02  0.1184000E+00
        -11   -1    0    0    0    0  0.00000000000E+00  0.00000000000E+00  0.45593999997E+02  0.45594000000E+02  0.51100000000E-03 0.  1.
         11   -1    0    0    0    0 -0.00000000000E+00 -0.00000000000E+00 -0.45593999997E+02  0.45594000000E+02  0.51100000000E-03 0. -1.
         23    2    1    2    0    0  0.00000000000E+00  0.88817841970E-15  0.00000000000E+00  0.91188000000E+02  0.91188000000E+02 0.  0.
    9900012    2    3    3    0    0 -0.34956287867E+02  0.67389546963E+01 -0.94034337850E+01  0.54367080148E+02  0.39999990813E+02 0.  0.
         12    1    3    3    0    0  0.34956287867E+02 -0.67389546963E+01  0.94034337850E+01  0.36820919852E+02  0.00000000000E+00 0. -1.
         11    1    4    4    0    0 -0.31374780083E+01  0.14537236240E+02 -0.79379199821E+01  0.16857804710E+02  0.51100000000E-03 0. -1.
        -11    1    4    4    0    0 -0.80556838880E+00 -0.14829966946E+01  0.49378568380E+01  0.52182995352E+01  0.51100000000E-03 0.  1.
         12    1    4    4    0    0 -0.31013241470E+02 -0.63152848486E+01 -0.64033706409E+01  0.32290975903E+02  0.00000000000E+00 0. -1.
</event>
<event>
 8    1  0.2504019E-006  0.9118800E+02  0.7816164E-02  0.1184000E+00
        -11   -1    0    0    0    0  0.00000000000E+00  0.00000000000E+00  0.45593999997E+02  0.45594000000E+02  0.51100000000E-03 0. -1.
         11   -1    0    0    0    0 -0.00000000000E+00 -0.00000000000E+00 -0.45593999997E+02  0.45594000000E+02  0.51100000000E-03 0.  1.
         23    2    1    2    0    0  0.00000000000E+00  0.00000000000E+00 -0.71054273576E-14  0.91188000000E+02  0.91188000000E+02 0.  0.
    9900012    2    3    3    0    0  0.91328109220E+01 -0.13431702833E+02  0.33044879729E+02  0.54367041938E+02  0.39999903706E+02 0.  0.
        -12    1    3    3    0    0 -0.91328109220E+01  0.13431702833E+02 -0.33044879729E+02  0.36820958062E+02  0.00000000000E+00 0.  1.
         11    1    4    4    0    0  0.46610454703E+01  0.79812829992E+01  0.27632449961E+02  0.29137235873E+02  0.51100000000E-03 0. -1.
        -11    1    4    4    0    0  0.67778558075E+01 -0.97128156082E+01  0.60260324235E+01  0.13288761546E+02  0.51100000000E-03 0.  1.
        -12    1    4    4    0    0 -0.23060903558E+01 -0.11700170224E+02 -0.61360265604E+00  0.11941044520E+02  0.00000000000E+00 0.  1.
</event>
<event>
 8    1  0.2504019E-006  0.9118800E+02  0.7816164E-02  0.1184000E+00
        -11   -1    0    0    0    0  0.00000000000E+00  0.00000000000E+00  0.45593999997E+02  0.45594000000E+02  0.51100000000E-03 0. -1.
         11   -1    0    0    0    0 -0.00000000000E+00 -0.00000000000E+00 -0.45593999997E+02  0.45594000000E+02  0.51100000000E-03 0.  1.
         23    2    1    2    0    0  0.00000000000E+00  0.00000000000E+00  0.19359513992E-14  0.91188000000E+02  0.91188000000E+02 0.  0.
    9900012    2    3    3    0    0  0.69082806606E+01  0.36166977539E+02 -0.46264556982E-01  0.54367126214E+02  0.40000095829E+02 0.  0.
         12    1    3    3    0    0 -0.69082806606E+01 -0.36166977539E+02  0.46264556982E-01  0.36820873786E+02  0.00000000000E+00 0. -1.
         11    1    4    4    0    0  0.10583679252E+02  0.37313580424E+02  0.10656212173E+02  0.40222784695E+02  0.51100000000E-03 0. -1.
        -11    1    4    4    0    0 -0.23188934519E+01  0.32347128454E+01 -0.76843228032E+01  0.86538691484E+01  0.51100000000E-03 0.  1.
         12    1    4    4    0    0 -0.13565051393E+01 -0.43813157303E+01 -0.30181539263E+01  0.54904723699E+01  0.00000000000E+00 0. -1.
</event>
<event>
 8    1  0.2504019E-006  0.9118800E+02  0.7816164E-02  0.1184000E+00
        -11   -1    0    0    0    0  0.00000000000E+00  0.00000000000E+00  0.45593999997E+02  0.45594000000E+02  0.51100000000E-03 0.  1.
         11   -1    0    0    0    0 -0.00000000000E+00 -0.00000000000E+00 -0.45593999997E+02  0.45594000000E+02  0.51100000000E-03 0. -1.
         23    2    1    2    0    0  0.35527136788E-14 -0.35527136788E-14 -0.13322676296E-14  0.91188000000E+02  0.91188000000E+02 0.  0.
    9900012    2    3    3    0    0  0.23963808958E+02 -0.27885126024E+02  0.19837476246E+01  0.54367086815E+02  0.40000006012E+02 0.  0.
        -12    1    3    3    0    0 -0.23963808958E+02  0.27885126024E+02 -0.19837476246E+01  0.36820913185E+02  0.00000000000E+00 0.  1.
         11    1    4    4    0    0  0.49789292557E+01 -0.14101295611E+02  0.14528071078E+02  0.20849487379E+02  0.51100000000E-03 0. -1.
        -11    1    4    4    0    0  0.60899711792E+01  0.46864145609E+01 -0.68226440362E+01  0.10276122922E+02  0.51100000000E-03 0.  1.
         12    1    4    4    0    0  0.12894908523E+02 -0.18470244974E+02 -0.57216794172E+01  0.23241476514E+02  0.00000000000E+00 0. -1.
</event>
<event>
 8    1  0.2504019E-006  0.9118800E+02  0.7816164E-02  0.1184000E+00
        -11   -1    0    0    0    0  0.00000000000E+00  0.00000000000E+00  0.45593999997E+02  0.45594000000E+02  0.51100000000E-03 0.  1.
         11   -1    0    0    0    0 -0.00000000000E+00 -0.00000000000E+00 -0.45593999997E+02  0.45594000000E+02  0.51100000000E-03 0. -1.
         23    2    1    2    0    0  0.00000000000E+00  0.00000000000E+00  0.00000000000E+00  0.91188000000E+02  0.91188000000E+02 0.  0.
    9900012    2    3    3    0    0  0.17462568163E+02 -0.22840380623E+02  0.23003399378E+02  0.54367073113E+02  0.39999974776E+02 0.  0.
         12    1    3    3    0    0 -0.17462568163E+02  0.22840380623E+02 -0.23003399378E+02  0.36820926887E+02  0.00000000000E+00 0. -1.
         11    1    4    4    0    0  0.16395340642E+01 -0.31656493198E+01 -0.50787347735E+01  0.62050749169E+01  0.51100000000E-03 0. -1.
        -11    1    4    4    0    0  0.19776017973E+02 -0.24224023874E+01  0.21411164403E+02  0.29247168778E+02  0.51100000000E-03 0.  1.
        -12    1    4    4    0    0 -0.39529838740E+01 -0.17252328916E+02  0.66709697485E+01  0.18914829418E+02  0.00000000000E+00 0.  1.
</event>
<event>
 8    1  0.2504019E-006  0.9118800E+02  0.7816164E-02  0.1184000E+00
        -11   -1    0    0    0    0  0.00000000000E+00  0.00000000000E+00  0.45593999997E+02  0.45594000000E+02  0.51100000000E-03 0. -1.
         11   -1    0    0    0    0 -0.00000000000E+00 -0.00000000000E+00 -0.45593999997E+02  0.45594000000E+02  0.51100000000E-03 0.  1.
         23    2    1    2    0    0  0.00000000000E+00  0.00000000000E+00  0.00000000000E+00  0.91188000000E+02  0.91188000000E+02 0.  0.
    9900012    2    3    3    0    0  0.13708709600E+02  0.32489405467E+02 -0.10596686900E+02  0.54367082579E+02  0.39999996356E+02 0.  0.
        -12    1    3    3    0    0 -0.13708709600E+02 -0.32489405467E+02  0.10596686900E+02  0.36820917421E+02  0.00000000000E+00 0.  1.
         11    1    4    4    0    0  0.29670649747E+00  0.23893115098E+02 -0.29294370748E+01  0.24073856892E+02  0.51100000000E-03 0. -1.
        -11    1    4    4    0    0 -0.44460257204E+01  0.10431861722E+02 -0.34405895349E+01  0.11850254863E+02  0.51100000000E-03 0.  1.
        -12    1    4    4    0    0  0.17858028823E+02 -0.18355713535E+01 -0.42266602905E+01  0.18442970824E+02  0.00000000000E+00 0.  1.
</event>
<event>
 8    1  0.2504019E-006  0.9118800E+02  0.7816164E-02  0.1184000E+00
        -11   -1    0    0    0    0  0.00000000000E+00  0.00000000000E+00  0.45593999997E+02  0.45594000000E+02  0.51100000000E-03 0. -1.
         11   -1    0    0    0    0 -0.00000000000E+00 -0.00000000000E+00 -0.45593999997E+02  0.45594000000E+02  0.51100000000E-03 0.  1.
         23    2    1    2    0    0  0.00000000000E+00  0.00000000000E+00  0.00000000000E+00  0.91188000000E+02  0.91188000000E+02 0.  0.
    9900012    2    3    3    0    0 -0.12187525025E+02 -0.25452539483E+02  0.23651911389E+02  0.54367075992E+02  0.39999981340E+02 0.  0.
        -12    1    3    3    0    0  0.12187525025E+02  0.25452539483E+02 -0.23651911389E+02  0.36820924008E+02  0.00000000000E+00 0.  1.
         11    1    4    4    0    0 -0.56160224358E+01 -0.15289732398E+02  0.22093728072E+02  0.27449015377E+02  0.51100000000E-03 0. -1.
        -11    1    4    4    0    0 -0.23823736287E+01 -0.75850908928E+01  0.12561113653E+02  0.14865762154E+02  0.51100000000E-03 0.  1.
         12    1    4    4    0    0 -0.41891289607E+01 -0.25777161925E+01 -0.11002930336E+02  0.12052298461E+02  0.00000000000E+00 0. -1.
</event>
<event>
 8    1  0.2504019E-006  0.9118800E+02  0.7816164E-02  0.1184000E+00
        -11   -1    0    0    0    0  0.00000000000E+00  0.00000000000E+00  0.45593999997E+02  0.45594000000E+02  0.51100000000E-03 0.  1.
         11   -1    0    0    0    0 -0.00000000000E+00 -0.00000000000E+00 -0.45593999997E+02  0.45594000000E+02  0.51100000000E-03 0. -1.
         23    2    1    2    0    0  0.88817841970E-15  0.00000000000E+00  0.35527136788E-14  0.91188000000E+02  0.91188000000E+02 0.  0.
    9900012    2    3    3    0    0  0.76898559484E+01 -0.33557661887E+02  0.13058666557E+02  0.54367091156E+02  0.40000015908E+02 0.  0.
         12    1    3    3    0    0 -0.76898559484E+01  0.33557661887E+02 -0.13058666557E+02  0.36820908844E+02  0.00000000000E+00 0. -1.
         11    1    4    4    0    0 -0.28471182729E+00 -0.69814035471E+01 -0.57784771160E+01  0.90670752921E+01  0.51100000000E-03 0. -1.
        -11    1    4    4    0    0 -0.17809879856E+01  0.63643563759E+01  0.13292235551E+01  0.67412006204E+01  0.51100000000E-03 0.  1.
        -12    1    4    4    0    0  0.97555557613E+01 -0.32940614716E+02  0.17507920118E+02  0.38558815243E+02  0.00000000000E+00 0.  1.
</event>
<event>
 8    1  0.2504019E-006  0.9118800E+02  0.7816164E-02  0.1184000E+00
        -11   -1    0    0    0    0  0.00000000000E+00  0.00000000000E+00  0.45593999997E+02  0.45594000000E+02  0.51100000000E-03 0. -1.
         11   -1    0    0    0    0 -0.00000000000E+00 -0.00000000000E+00 -0.45593999997E+02  0.45594000000E+02  0.51100000000E-03 0.  1.
         23    2    1    2    0    0  0.00000000000E+00 -0.35527136788E-14 -0.35527136788E-14  0.91188000000E+02  0.91188000000E+02 0.  0.
    9900012    2    3    3    0    0 -0.23834035045E+02  0.13463358316E+02  0.24626312456E+02  0.54367102281E+02  0.40000041270E+02 0.  0.
        -12    1    3    3    0    0  0.23834035045E+02 -0.13463358316E+02 -0.24626312456E+02  0.36820897719E+02  0.00000000000E+00 0.  1.
         11    1    4    4    0    0  0.41556741925E+01 -0.36184373975E+01  0.23741133339E+00  0.55153496350E+01  0.51100000000E-03 0.  1.
        -11    1    4    4    0    0 -0.11996249643E+02  0.18430546166E+02  0.31270617595E+01  0.22212013708E+02  0.51100000000E-03 0. -1.
         12    1    4    4    0    0 -0.15993459594E+02 -0.13487504527E+01  0.21261839363E+02  0.26639738938E+02  0.00000000000E+00 0. -1.
</event>
<event>
 8    1  0.2504019E-006  0.9118800E+02  0.7816164E-02  0.1184000E+00
        -11   -1    0    0    0    0  0.00000000000E+00  0.00000000000E+00  0.45593999997E+02  0.45594000000E+02  0.51100000000E-03 0. -1.
         11   -1    0    0    0    0 -0.00000000000E+00 -0.00000000000E+00 -0.45593999997E+02  0.45594000000E+02  0.51100000000E-03 0.  1.
         23    2    1    2    0    0  0.00000000000E+00 -0.17763568394E-14  0.00000000000E+00  0.91188000000E+02  0.91188000000E+02 0.  0.
    9900012    2    3    3    0    0 -0.19184586742E+02  0.12159078838E+02 -0.28980817084E+02  0.54367091192E+02  0.40000015989E+02 0.  0.
         12    1    3    3    0    0  0.19184586742E+02 -0.12159078838E+02  0.28980817084E+02  0.36820908808E+02  0.00000000000E+00 0. -1.
         11    1    4    4    0    0 -0.30171141472E+01  0.52462682063E+01  0.35539473184E+01  0.70183224258E+01  0.51100000000E-03 0. -1.
        -11    1    4    4    0    0 -0.29863102432E+01 -0.27409599664E+01 -0.30633211971E+02  0.30900236024E+02  0.51100000000E-03 0.  1.
        -12    1    4    4    0    0 -0.13181162351E+02  0.96537705983E+01 -0.19015524306E+01  0.16448532741E+02  0.00000000000E+00 0.  1.
</event>
<event>
 8    1  0.2504019E-006  0.9118800E+02  0.7816164E-02  0.1184000E+00
        -11   -1    0    0    0    0  0.00000000000E+00  0.00000000000E+00  0.45593999997E+02  0.45594000000E+02  0.51100000000E-03 0.  1.
         11   -1    0    0    0    0 -0.00000000000E+00 -0.00000000000E+00 -0.45593999997E+02  0.45594000000E+02  0.51100000000E-03 0. -1.
         23    2    1    2    0    0  0.35527136788E-14 -0.17763568394E-14  0.35527136788E-14  0.91188000000E+02  0.91188000000E+02 0.  0.
    9900012    2    3    3    0    0  0.30881441753E+02 -0.92343608106E+01  0.17800099264E+02  0.54367076626E+02  0.39999982784E+02 0.  0.
         12    1    3    3    0    0 -0.30881441753E+02  0.92343608106E+01 -0.17800099264E+02  0.36820923374E+02  0.00000000000E+00 0. -1.
         11    1    4    4    0    0 -0.16242694761E+01 -0.61116791130E+01  0.47185863007E+01  0.78902426990E+01  0.51100000000E-03 0. -1.
        -11    1    4    4    0    0 -0.44082363461E+01  0.45408924854E+01 -0.62965235327E+00  0.63599303923E+01  0.51100000000E-03 0.  1.
        -12    1    4    4    0    0  0.36913947576E+02 -0.76635741830E+01  0.13711165316E+02  0.40116903534E+02  0.00000000000E+00 0.  1.
</event>
<event>
 8    1  0.2504019E-006  0.9118800E+02  0.7816164E-02  0.1184000E+00
        -11   -1    0    0    0    0  0.00000000000E+00  0.00000000000E+00  0.45593999997E+02  0.45594000000E+02  0.51100000000E-03 0. -1.
         11   -1    0    0    0    0 -0.00000000000E+00 -0.00000000000E+00 -0.45593999997E+02  0.45594000000E+02  0.51100000000E-03 0.  1.
         23    2    1    2    0    0  0.71054273576E-14  0.00000000000E+00  0.00000000000E+00  0.91188000000E+02  0.91188000000E+02 0.  0.
    9900012    2    3    3    0    0  0.32991067413E+02  0.16339170061E+02 -0.63314376392E+00  0.54367083684E+02  0.39999998874E+02 0.  0.
         12    1    3    3    0    0 -0.32991067413E+02 -0.16339170061E+02  0.63314376392E+00  0.36820916316E+02  0.00000000000E+00 0. -1.
         11    1    4    4    0    0  0.17448355662E+02  0.20828317485E+02  0.14712868439E+01  0.27210817882E+02  0.51100000000E-03 0. -1.
        -11    1    4    4    0    0  0.16173850008E+02  0.20366197522E+01  0.54174244058E+01  0.17178176026E+02  0.51100000000E-03 0.  1.
         12    1    4    4    0    0 -0.63113825730E+00 -0.65257671766E+01 -0.75218550136E+01  0.99780897766E+01  0.00000000000E+00 0. -1.
</event>
<event>
 8    1  0.2504019E-006  0.9118800E+02  0.7816164E-02  0.1184000E+00
        -11   -1    0    0    0    0  0.00000000000E+00  0.00000000000E+00  0.45593999997E+02  0.45594000000E+02  0.51100000000E-03 0.  1.
         11   -1    0    0    0    0 -0.00000000000E+00 -0.00000000000E+00 -0.45593999997E+02  0.45594000000E+02  0.51100000000E-03 0. -1.
         23    2    1    2    0    0  0.35527136788E-14  0.35527136788E-14 -0.35527136788E-14  0.91188000000E+02  0.91188000000E+02 0.  0.
    9900012    2    3    3    0    0 -0.24810870749E+02 -0.21252355534E+02  0.16986410346E+02  0.54367081224E+02  0.39999993266E+02 0.  0.
        -12    1    3    3    0    0  0.24810870749E+02  0.21252355534E+02 -0.16986410346E+02  0.36820918776E+02  0.00000000000E+00 0.  1.
         11    1    4    4    0    0 -0.98867144942E+01 -0.22769838794E+02  0.20719481865E+02  0.32334341051E+02  0.51100000000E-03 0.  1.
        -11    1    4    4    0    0 -0.10180235324E+01 -0.47398688506E+01  0.26229327696E+01  0.55120327655E+01  0.51100000000E-03 0. -1.
        -12    1    4    4    0    0 -0.13906132722E+02  0.62573521102E+01 -0.63560042886E+01  0.16520707407E+02  0.00000000000E+00 0.  1.
</event>
<event>
 8    1  0.2504019E-006  0.9118800E+02  0.7816164E-02  0.1184000E+00
        -11   -1    0    0    0    0  0.00000000000E+00  0.00000000000E+00  0.45593999997E+02  0.45594000000E+02  0.51100000000E-03 0.  1.
         11   -1    0    0    0    0 -0.00000000000E+00 -0.00000000000E+00 -0.45593999997E+02  0.45594000000E+02  0.51100000000E-03 0. -1.
         23    2    1    2    0    0  0.35527136788E-14  0.35527136788E-14  0.00000000000E+00  0.91188000000E+02  0.91188000000E+02 0.  0.
    9900012    2    3    3    0    0 -0.18252131798E+02  0.24393154938E+02 -0.20678787258E+02  0.54367101512E+02  0.40000039517E+02 0.  0.
        -12    1    3    3    0    0  0.18252131798E+02 -0.24393154938E+02  0.20678787258E+02  0.36820898488E+02  0.00000000000E+00 0.  1.
         11    1    4    4    0    0  0.69339416114E+01  0.53761235073E+01  0.65144367255E+00  0.87981037364E+01  0.51100000000E-03 0. -1.
        -11    1    4    4    0    0 -0.29921977303E+01  0.17478702370E+02 -0.67730778781E+01  0.18982435777E+02  0.51100000000E-03 0.  1.
         12    1    4    4    0    0 -0.22193875679E+02  0.15383290602E+01 -0.14557153053E+02  0.26586561999E+02  0.00000000000E+00 0. -1.
</event>
<event>
 8    1  0.2504019E-006  0.9118800E+02  0.7816164E-02  0.1184000E+00
        -11   -1    0    0    0    0  0.00000000000E+00  0.00000000000E+00  0.45593999997E+02  0.45594000000E+02  0.51100000000E-03 0. -1.
         11   -1    0    0    0    0 -0.00000000000E+00 -0.00000000000E+00 -0.45593999997E+02  0.45594000000E+02  0.51100000000E-03 0.  1.
         23    2    1    2    0    0  0.00000000000E+00  0.00000000000E+00  0.44408920985E-15  0.91188000000E+02  0.91188000000E+02 0.  0.
    9900012    2    3    3    0    0  0.12707430428E+02 -0.34331253126E+02  0.39578145593E+01  0.54367108846E+02  0.40000056236E+02 0.  0.
         12    1    3    3    0    0 -0.12707430428E+02  0.34331253126E+02 -0.39578145593E+01  0.36820891154E+02  0.00000000000E+00 0. -1.
         11    1    4    4    0    0  0.17600287758E+01 -0.64950267688E+01 -0.60961946598E+01  0.90800145160E+01  0.51100000000E-03 0. -1.
        -11    1    4    4    0    0  0.15797476562E+02 -0.19914832080E+02 -0.65604280694E+01  0.26252619282E+02  0.51100000000E-03 0.  1.
        -12    1    4    4    0    0 -0.48500749091E+01 -0.79213942775E+01  0.16614437289E+02  0.19034475048E+02  0.00000000000E+00 0.  1.
</event>
<event>
 8    1  0.2504019E-006  0.9118800E+02  0.7816164E-02  0.1184000E+00
        -11   -1    0    0    0    0  0.00000000000E+00  0.00000000000E+00  0.45593999997E+02  0.45594000000E+02  0.51100000000E-03 0. -1.
         11   -1    0    0    0    0 -0.00000000000E+00 -0.00000000000E+00 -0.45593999997E+02  0.45594000000E+02  0.51100000000E-03 0.  1.
         23    2    1    2    0    0 -0.35527136788E-14  0.00000000000E+00  0.00000000000E+00  0.91188000000E+02  0.91188000000E+02 0.  0.
    9900012    2    3    3    0    0  0.23668647495E+02  0.74714857404E+01  0.27198374940E+02  0.54367087833E+02  0.40000008333E+02 0.  0.
        -12    1    3    3    0    0 -0.23668647495E+02 -0.74714857404E+01 -0.27198374940E+02  0.36820912167E+02  0.00000000000E+00 0.  1.
         11    1    4    4    0    0  0.31896291976E+02  0.10638769052E+02  0.23767825408E+02  0.41176041257E+02  0.51100000000E-03 0. -1.
        -11    1    4    4    0    0 -0.14017532007E+01  0.30951192449E+01  0.29142976635E+00  0.34102209233E+01  0.51100000000E-03 0.  1.
         12    1    4    4    0    0 -0.68258912796E+01 -0.62624025567E+01  0.31391197654E+01  0.97808256525E+01  0.00000000000E+00 0. -1.
</event>
<event>
 8    1  0.2504019E-006  0.9118800E+02  0.7816164E-02  0.1184000E+00
        -11   -1    0    0    0    0  0.00000000000E+00  0.00000000000E+00  0.45593999997E+02  0.45594000000E+02  0.51100000000E-03 0.  1.
         11   -1    0    0    0    0 -0.00000000000E+00 -0.00000000000E+00 -0.45593999997E+02  0.45594000000E+02  0.51100000000E-03 0. -1.
         23    2    1    2    0    0 -0.71054273576E-14 -0.35527136788E-14  0.88817841970E-15  0.91188000000E+02  0.91188000000E+02 0.  0.
    9900012    2    3    3    0    0 -0.32809072173E+02 -0.16313469828E+02  0.36353091426E+01  0.54367082205E+02  0.39999995502E+02 0.  0.
         12    1    3    3    0    0  0.32809072173E+02  0.16313469828E+02 -0.36353091426E+01  0.36820917795E+02  0.00000000000E+00 0. -1.
         11    1    4    4    0    0  0.15955148584E+01 -0.22393267920E+01 -0.15106147449E+01  0.31372295601E+01  0.51100000000E-03 0. -1.
        -11    1    4    4    0    0 -0.19905801951E+02 -0.25564829610E+02  0.19817281453E+01  0.32461187763E+02  0.51100000000E-03 0.  1.
         12    1    4    4    0    0 -0.14498785081E+02  0.11490686573E+02  0.31641957422E+01  0.18768664881E+02  0.00000000000E+00 0. -1.
</event>
<event>
 8    1  0.2504019E-006  0.9118800E+02  0.7816164E-02  0.1184000E+00
        -11   -1    0    0    0    0  0.00000000000E+00  0.00000000000E+00  0.45593999997E+02  0.45594000000E+02  0.51100000000E-03 0. -1.
         11   -1    0    0    0    0 -0.00000000000E+00 -0.00000000000E+00 -0.45593999997E+02  0.45594000000E+02  0.51100000000E-03 0.  1.
         23    2    1    2    0    0  0.17763568394E-14  0.00000000000E+00  0.00000000000E+00  0.91188000000E+02  0.91188000000E+02 0.  0.
    9900012    2    3    3    0    0  0.96700919950E+01 -0.23882438338E+02  0.26303945636E+02  0.54367094305E+02  0.40000023087E+02 0.  0.
        -12    1    3    3    0    0 -0.96700919950E+01  0.23882438338E+02 -0.26303945636E+02  0.36820905695E+02  0.00000000000E+00 0.  1.
         11    1    4    4    0    0  0.39072908665E+01  0.62399234423E+01  0.18168721361E+02  0.19603724203E+02  0.51100000000E-03 0. -1.
        -11    1    4    4    0    0  0.81674643107E+01 -0.18253883790E+02 -0.30921118069E+00  0.20000183961E+02  0.51100000000E-03 0.  1.
         12    1    4    4    0    0 -0.24046631822E+01 -0.11868477991E+02  0.84444354559E+01  0.14763186140E+02  0.00000000000E+00 0. -1.
</event>
<event>
 8    1  0.2504019E-006  0.9118800E+02  0.7816164E-02  0.1184000E+00
        -11   -1    0    0    0    0  0.00000000000E+00  0.00000000000E+00  0.45593999997E+02  0.45594000000E+02  0.51100000000E-03 0.  1.
         11   -1    0    0    0    0 -0.00000000000E+00 -0.00000000000E+00 -0.45593999997E+02  0.45594000000E+02  0.51100000000E-03 0. -1.
         23    2    1    2    0    0 -0.22204460493E-15  0.00000000000E+00  0.00000000000E+00  0.91188000000E+02  0.91188000000E+02 0.  0.
    9900012    2    3    3    0    0  0.19850003739E+01  0.14388564632E+02 -0.33835047943E+02  0.54367061826E+02  0.39999949045E+02 0.  0.
        -12    1    3    3    0    0 -0.19850003739E+01 -0.14388564632E+02  0.33835047943E+02  0.36820938174E+02  0.00000000000E+00 0.  1.
         11    1    4    4    0    0 -0.58810980425E+01  0.59143172152E+01 -0.27871498199E+01  0.87940131162E+01  0.51100000000E-03 0. -1.
        -11    1    4    4    0    0  0.34036772037E+00 -0.32993871197E+01  0.55124234576E+01  0.64333986498E+01  0.51100000000E-03 0.  1.
        -12    1    4    4    0    0  0.75257306960E+01  0.11773634537E+02 -0.36560321581E+02  0.39139650060E+02  0.00000000000E+00 0.  1.
</event>
<event>
 8    1  0.2504019E-006  0.9118800E+02  0.7816164E-02  0.1184000E+00
        -11   -1    0    0    0    0  0.00000000000E+00  0.00000000000E+00  0.45593999997E+02  0.45594000000E+02  0.51100000000E-03 0.  1.
         11   -1    0    0    0    0 -0.00000000000E+00 -0.00000000000E+00 -0.45593999997E+02  0.45594000000E+02  0.51100000000E-03 0. -1.
         23    2    1    2    0    0  0.00000000000E+00 -0.35527136788E-14  0.00000000000E+00  0.91188000000E+02  0.91188000000E+02 0.  0.
    9900012    2    3    3    0    0 -0.80150453770E+01  0.31899500744E+02 -0.16551760948E+02  0.54367083518E+02  0.39999998496E+02 0.  0.
        -12    1    3    3    0    0  0.80150453770E+01 -0.31899500744E+02  0.16551760948E+02  0.36820916482E+02  0.00000000000E+00 0.  1.
         11    1    4    4    0    0 -0.13575699278E+02  0.19074565589E+02 -0.23413521518E+02  0.33110899315E+02  0.51100000000E-03 0. -1.
        -11    1    4    4    0    0 -0.48918925389E+01  0.36451891976E+01  0.31112697005E+01  0.68482126361E+01  0.51100000000E-03 0.  1.
         12    1    4    4    0    0  0.10452546440E+02  0.91797459572E+01  0.37504908695E+01  0.14407971567E+02  0.00000000000E+00 0. -1.
</event>
<event>
 8    1  0.2504019E-006  0.9118800E+02  0.7816164E-02  0.1184000E+00
        -11   -1    0    0    0    0  0.00000000000E+00  0.00000000000E+00  0.45593999997E+02  0.45594000000E+02  0.51100000000E-03 0.  1.
         11   -1    0    0    0    0 -0.00000000000E+00 -0.00000000000E+00 -0.45593999997E+02  0.45594000000E+02  0.51100000000E-03 0. -1.
         23    2    1    2    0    0  0.55511151231E-16  0.00000000000E+00 -0.17763568394E-14  0.91188000000E+02  0.91188000000E+02 0.  0.
    9900012    2    3    3    0    0  0.14008182586E+00  0.34815077563E+02 -0.11986260802E+02  0.54367086151E+02  0.40000004499E+02 0.  0.
        -12    1    3    3    0    0 -0.14008182586E+00 -0.34815077563E+02  0.11986260802E+02  0.36820913849E+02  0.00000000000E+00 0.  1.
         11    1    4    4    0    0 -0.87186004801E+01  0.31406701236E+02 -0.12726085689E+02  0.34990686391E+02  0.51100000000E-03 0. -1.
        -11    1    4    4    0    0  0.15021968479E+01  0.89783238192E+01 -0.27528271022E+01  0.95102550590E+01  0.51100000000E-03 0.  1.
        -12    1    4    4    0    0  0.73564854581E+01 -0.55699474922E+01  0.34926519892E+01  0.98661447019E+01  0.00000000000E+00 0.  1.
</event>
<event>
 8    1  0.2504019E-006  0.9118800E+02  0.7816164E-02  0.1184000E+00
        -11   -1    0    0    0    0  0.00000000000E+00  0.00000000000E+00  0.45593999997E+02  0.45594000000E+02  0.51100000000E-03 0.  1.
         11   -1    0    0    0    0 -0.00000000000E+00 -0.00000000000E+00 -0.45593999997E+02  0.45594000000E+02  0.51100000000E-03 0. -1.
         23    2    1    2    0    0 -0.17763568394E-14  0.88817841970E-15 -0.14210854715E-13  0.91188000000E+02  0.91188000000E+02 0.  0.
    9900012    2    3    3    0    0 -0.12647012930E+02 -0.27990905245E+01 -0.34467325671E+02  0.54367103993E+02  0.40000045174E+02 0.  0.
        -12    1    3    3    0    0  0.12647012930E+02  0.27990905245E+01  0.34467325671E+02  0.36820896007E+02  0.00000000000E+00 0.  1.
         11    1    4    4    0    0 -0.86142568474E+01  0.10273710641E+02 -0.96270288124E+01  0.16505581947E+02  0.51100000000E-03 0. -1.
        -11    1    4    4    0    0  0.27267496491E+01 -0.61424044816E+01  0.37365786411E+01  0.76893638662E+01  0.51100000000E-03 0.  1.
        -12    1    4    4    0    0 -0.67595057316E+01 -0.69303966843E+01 -0.28576875500E+02  0.30172158181E+02  0.00000000000E+00 0.  1.
</event>
<event>
 8    1  0.2504019E-006  0.9118800E+02  0.7816164E-02  0.1184000E+00
        -11   -1    0    0    0    0  0.00000000000E+00  0.00000000000E+00  0.45593999997E+02  0.45594000000E+02  0.51100000000E-03 0.  1.
         11   -1    0    0    0    0 -0.00000000000E+00 -0.00000000000E+00 -0.45593999997E+02  0.45594000000E+02  0.51100000000E-03 0. -1.
         23    2    1    2    0    0  0.00000000000E+00  0.00000000000E+00  0.00000000000E+00  0.91188000000E+02  0.91188000000E+02 0.  0.
    9900012    2    3    3    0    0 -0.23580357432E+02  0.19068461921E+02  0.20883938155E+02  0.54367104173E+02  0.40000045583E+02 0.  0.
         12    1    3    3    0    0  0.23580357432E+02 -0.19068461921E+02 -0.20883938155E+02  0.36820895827E+02  0.00000000000E+00 0. -1.
         11    1    4    4    0    0  0.84756741092E+01  0.12873224924E+02  0.12254335671E+01  0.15461521893E+02  0.51100000000E-03 0. -1.
        -11    1    4    4    0    0 -0.89310980337E+01  0.53277146700E+01  0.53055145686E+01  0.11674653776E+02  0.51100000000E-03 0.  1.
         12    1    4    4    0    0 -0.23124933507E+02  0.86752232714E+00  0.14352990019E+02  0.27230928504E+02  0.00000000000E+00 0. -1.
</event>
<event>
 8    1  0.2504019E-006  0.9118800E+02  0.7816164E-02  0.1184000E+00
        -11   -1    0    0    0    0  0.00000000000E+00  0.00000000000E+00  0.45593999997E+02  0.45594000000E+02  0.51100000000E-03 0.  1.
         11   -1    0    0    0    0 -0.00000000000E+00 -0.00000000000E+00 -0.45593999997E+02  0.45594000000E+02  0.51100000000E-03 0. -1.
         23    2    1    2    0    0 -0.17763568394E-14  0.71054273576E-14 -0.13322676296E-14  0.91188000000E+02  0.91188000000E+02 0.  0.
    9900012    2    3    3    0    0 -0.73669633185E+01 -0.36052311409E+02 -0.13184619053E+01  0.54367086808E+02  0.40000005996E+02 0.  0.
        -12    1    3    3    0    0  0.73669633185E+01  0.36052311409E+02  0.13184619053E+01  0.36820913192E+02  0.00000000000E+00 0.  1.
         11    1    4    4    0    0  0.30063235835E+01 -0.10562128477E+02 -0.34243650966E+01  0.11503165479E+02  0.51100000000E-03 0. -1.
        -11    1    4    4    0    0  0.93359320890E+01 -0.18245979144E+02  0.63176334053E+01  0.21447327922E+02  0.51100000000E-03 0.  1.
        -12    1    4    4    0    0 -0.19709218991E+02 -0.72442037882E+01 -0.42117302140E+01  0.21416593407E+02  0.00000000000E+00 0.  1.
</event>
<event>
 8    1  0.2504019E-006  0.9118800E+02  0.7816164E-02  0.1184000E+00
        -11   -1    0    0    0    0  0.00000000000E+00  0.00000000000E+00  0.45593999997E+02  0.45594000000E+02  0.51100000000E-03 0. -1.
         11   -1    0    0    0    0 -0.00000000000E+00 -0.00000000000E+00 -0.45593999997E+02  0.45594000000E+02  0.51100000000E-03 0.  1.
         23    2    1    2    0    0 -0.88817841970E-15  0.00000000000E+00  0.00000000000E+00  0.91188000000E+02  0.91188000000E+02 0.  0.
    9900012    2    3    3    0    0  0.73437131153E+01 -0.28229294601E+02  0.22471228443E+02  0.54367091487E+02  0.40000016663E+02 0.  0.
        -12    1    3    3    0    0 -0.73437131153E+01  0.28229294601E+02 -0.22471228443E+02  0.36820908513E+02  0.00000000000E+00 0.  1.
         11    1    4    4    0    0  0.27251253854E+01  0.59504517851E+01  0.17044935290E-01  0.65448052380E+01  0.51100000000E-03 0. -1.
        -11    1    4    4    0    0 -0.23581017792E+01 -0.34007749541E+02  0.13980814684E+02  0.36844956945E+02  0.51100000000E-03 0.  1.
        -12    1    4    4    0    0  0.69766895092E+01 -0.17199684540E+00  0.84733688237E+01  0.10977329304E+02  0.00000000000E+00 0.  1.
</event>
<event>
 8    1  0.2504019E-006  0.9118800E+02  0.7816164E-02  0.1184000E+00
        -11   -1    0    0    0    0  0.00000000000E+00  0.00000000000E+00  0.45593999997E+02  0.45594000000E+02  0.51100000000E-03 0.  1.
         11   -1    0    0    0    0 -0.00000000000E+00 -0.00000000000E+00 -0.45593999997E+02  0.45594000000E+02  0.51100000000E-03 0. -1.
         23    2    1    2    0    0  0.17763568394E-14  0.00000000000E+00  0.00000000000E+00  0.91188000000E+02  0.91188000000E+02 0.  0.
    9900012    2    3    3    0    0 -0.13990379519E+02 -0.14558665660E+02  0.30791158584E+02  0.54367069651E+02  0.39999966883E+02 0.  0.
         12    1    3    3    0    0  0.13990379519E+02  0.14558665660E+02 -0.30791158584E+02  0.36820930349E+02  0.00000000000E+00 0. -1.
         11    1    4    4    0    0 -0.11408375533E+02 -0.39073669039E+01  0.97981184860E+01  0.15537749983E+02  0.51100000000E-03 0. -1.
        -11    1    4    4    0    0 -0.28863662046E+01 -0.19170972021E+02  0.22990247849E+02  0.30073389808E+02  0.51100000000E-03 0.  1.
        -12    1    4    4    0    0  0.30436221904E+00  0.85196732649E+01 -0.19972077516E+01  0.87559298595E+01  0.00000000000E+00 0.  1.
</event>
<event>
 8    1  0.2504019E-006  0.9118800E+02  0.7816164E-02  0.1184000E+00
        -11   -1    0    0    0    0  0.00000000000E+00  0.00000000000E+00  0.45593999997E+02  0.45594000000E+02  0.51100000000E-03 0.  1.
         11   -1    0    0    0    0 -0.00000000000E+00 -0.00000000000E+00 -0.45593999997E+02  0.45594000000E+02  0.51100000000E-03 0. -1.
         23    2    1    2    0    0  0.00000000000E+00  0.00000000000E+00  0.35527136788E-14  0.91188000000E+02  0.91188000000E+02 0.  0.
    9900012    2    3    3    0    0  0.10728086103E+02  0.17963822954E+02 -0.30298328301E+02  0.54367089305E+02  0.40000011689E+02 0.  0.
        -12    1    3    3    0    0 -0.10728086103E+02 -0.17963822954E+02  0.30298328301E+02  0.36820910695E+02  0.00000000000E+00 0.  1.
         11    1    4    4    0    0  0.10125121458E+02  0.15922063384E+02 -0.70756289594E+01  0.20151791791E+02  0.51100000000E-03 0. -1.
        -11    1    4    4    0    0 -0.11224988880E+02 -0.10930750659E+01 -0.51705009345E+01  0.12406823471E+02  0.51100000000E-03 0.  1.
         12    1    4    4    0    0  0.11827953526E+02  0.31348346362E+01 -0.18052198407E+02  0.21808474044E+02  0.00000000000E+00 0. -1.
</event>
<event>
 8    1  0.2504019E-006  0.9118800E+02  0.7816164E-02  0.1184000E+00
        -11   -1    0    0    0    0  0.00000000000E+00  0.00000000000E+00  0.45593999997E+02  0.45594000000E+02  0.51100000000E-03 0.  1.
         11   -1    0    0    0    0 -0.00000000000E+00 -0.00000000000E+00 -0.45593999997E+02  0.45594000000E+02  0.51100000000E-03 0. -1.
         23    2    1    2    0    0 -0.71054273576E-14  0.35527136788E-14 -0.88817841970E-15  0.91188000000E+02  0.91188000000E+02 0.  0.
    9900012    2    3    3    0    0 -0.34375025694E+02  0.12712612166E+02 -0.35396399417E+01  0.54367055546E+02  0.39999934729E+02 0.  0.
        -12    1    3    3    0    0  0.34375025694E+02 -0.12712612166E+02  0.35396399417E+01  0.36820944454E+02  0.00000000000E+00 0.  1.
         11    1    4    4    0    0 -0.52948292855E+01 -0.62858547800E+01 -0.38845387018E+01  0.90904801119E+01  0.51100000000E-03 0. -1.
        -11    1    4    4    0    0 -0.30223091620E+01 -0.16541218216E+01 -0.99015609360E+01  0.10483862881E+02  0.51100000000E-03 0.  1.
        -12    1    4    4    0    0 -0.26057887246E+02  0.20652588768E+02  0.10246459696E+02  0.34792712554E+02  0.00000000000E+00 0.  1.
</event>
<event>
 8    1  0.2504019E-006  0.9118800E+02  0.7816164E-02  0.1184000E+00
        -11   -1    0    0    0    0  0.00000000000E+00  0.00000000000E+00  0.45593999997E+02  0.45594000000E+02  0.51100000000E-03 0.  1.
         11   -1    0    0    0    0 -0.00000000000E+00 -0.00000000000E+00 -0.45593999997E+02  0.45594000000E+02  0.51100000000E-03 0. -1.
         23    2    1    2    0    0 -0.35527136788E-14  0.00000000000E+00 -0.35527136788E-14  0.91188000000E+02  0.91188000000E+02 0.  0.
    9900012    2    3    3    0    0  0.18503815785E+02 -0.12136576756E+02 -0.29429453256E+02  0.54367076425E+02  0.39999982326E+02 0.  0.
        -12    1    3    3    0    0 -0.18503815785E+02  0.12136576756E+02  0.29429453256E+02  0.36820923575E+02  0.00000000000E+00 0.  1.
         11    1    4    4    0    0  0.10050822578E+02 -0.67867272179E+01 -0.25247976718E+02  0.28009623871E+02  0.51100000000E-03 0. -1.
        -11    1    4    4    0    0 -0.37174315070E+01 -0.10512010801E+02 -0.65433793524E+01  0.12928166216E+02  0.51100000000E-03 0.  1.
         12    1    4    4    0    0  0.12170424715E+02  0.51621612630E+01  0.23619028142E+01  0.13429286338E+02  0.00000000000E+00 0. -1.
</event>
<event>
 8    1  0.2504019E-006  0.9118800E+02  0.7816164E-02  0.1184000E+00
        -11   -1    0    0    0    0  0.00000000000E+00  0.00000000000E+00  0.45593999997E+02  0.45594000000E+02  0.51100000000E-03 0.  1.
         11   -1    0    0    0    0 -0.00000000000E+00 -0.00000000000E+00 -0.45593999997E+02  0.45594000000E+02  0.51100000000E-03 0. -1.
         23    2    1    2    0    0  0.00000000000E+00  0.00000000000E+00  0.35527136788E-14  0.91188000000E+02  0.91188000000E+02 0.  0.
    9900012    2    3    3    0    0 -0.73613928921E+01  0.18461180887E+02 -0.30996426073E+02  0.54367031322E+02  0.39999879506E+02 0.  0.
        -12    1    3    3    0    0  0.73613928921E+01 -0.18461180887E+02  0.30996426073E+02  0.36820968678E+02  0.00000000000E+00 0.  1.
         11    1    4    4    0    0  0.24921884380E+01 -0.68500405890E+01 -0.19272399307E+02  0.20604840077E+02  0.51100000000E-03 0. -1.
        -11    1    4    4    0    0  0.36944834060E+01  0.98842568790E+01 -0.70942514582E+01  0.12715193498E+02  0.51100000000E-03 0.  1.
        -12    1    4    4    0    0 -0.13548064736E+02  0.15426964597E+02 -0.46297753076E+01  0.21046997747E+02  0.00000000000E+00 0.  1.
</event>
<event>
 8    1  0.2504019E-006  0.9118800E+02  0.7816164E-02  0.1184000E+00
        -11   -1    0    0    0    0  0.00000000000E+00  0.00000000000E+00  0.45593999997E+02  0.45594000000E+02  0.51100000000E-03 0. -1.
         11   -1    0    0    0    0 -0.00000000000E+00 -0.00000000000E+00 -0.45593999997E+02  0.45594000000E+02  0.51100000000E-03 0.  1.
         23    2    1    2    0    0  0.00000000000E+00  0.35527136788E-14  0.00000000000E+00  0.91188000000E+02  0.91188000000E+02 0.  0.
    9900012    2    3    3    0    0 -0.55280810287E+01  0.28058732699E+02 -0.23193260048E+02  0.54367089199E+02  0.40000011447E+02 0.  0.
         12    1    3    3    0    0  0.55280810287E+01 -0.28058732699E+02  0.23193260048E+02  0.36820910801E+02  0.00000000000E+00 0. -1.
         11    1    4    4    0    0 -0.12175058315E+01  0.38193651432E+01  0.70925773705E+01  0.81470561901E+01  0.51100000000E-03 0. -1.
        -11    1    4    4    0    0  0.35196784999E+01  0.24710565819E+02 -0.29014522469E+02  0.38273263699E+02  0.51100000000E-03 0.  1.
        -12    1    4    4    0    0 -0.78302536971E+01 -0.47119826267E+00 -0.12713149496E+01  0.79467693099E+01  0.00000000000E+00 0.  1.
</event>
<event>
 8    1  0.2504019E-006  0.9118800E+02  0.7816164E-02  0.1184000E+00
        -11   -1    0    0    0    0  0.00000000000E+00  0.00000000000E+00  0.45593999997E+02  0.45594000000E+02  0.51100000000E-03 0. -1.
         11   -1    0    0    0    0 -0.00000000000E+00 -0.00000000000E+00 -0.45593999997E+02  0.45594000000E+02  0.51100000000E-03 0.  1.
         23    2    1    2    0    0  0.00000000000E+00 -0.17763568394E-14  0.00000000000E+00  0.91188000000E+02  0.91188000000E+02 0.  0.
    9900012    2    3    3    0    0 -0.23854541692E+02  0.11879692308E+02 -0.25408921277E+02  0.54367088427E+02  0.40000009686E+02 0.  0.
         12    1    3    3    0    0  0.23854541692E+02 -0.11879692308E+02  0.25408921277E+02  0.36820911573E+02  0.00000000000E+00 0. -1.
         11    1    4    4    0    0 -0.21628128729E+02  0.14907069631E+02 -0.19853265444E+02  0.32926415328E+02  0.51100000000E-03 0. -1.
        -11    1    4    4    0    0  0.19119612442E+01  0.28243914491E+01 -0.11583766356E+02  0.12075447243E+02  0.51100000000E-03 0.  1.
         12    1    4    4    0    0 -0.41383742065E+01 -0.58517687721E+01  0.60281105237E+01  0.93652258553E+01  0.00000000000E+00 0. -1.
</event>
<event>
 8    1  0.2504019E-006  0.9118800E+02  0.7816164E-02  0.1184000E+00
        -11   -1    0    0    0    0  0.00000000000E+00  0.00000000000E+00  0.45593999997E+02  0.45594000000E+02  0.51100000000E-03 0.  1.
         11   -1    0    0    0    0 -0.00000000000E+00 -0.00000000000E+00 -0.45593999997E+02  0.45594000000E+02  0.51100000000E-03 0. -1.
         23    2    1    2    0    0  0.71054273576E-14 -0.35527136788E-14  0.66613381478E-15  0.91188000000E+02  0.91188000000E+02 0.  0.
    9900012    2    3    3    0    0 -0.31684372894E+02  0.18692110522E+02  0.15763442006E+01  0.54367090961E+02  0.40000015463E+02 0.  0.
         12    1    3    3    0    0  0.31684372894E+02 -0.18692110522E+02 -0.15763442006E+01  0.36820909039E+02  0.00000000000E+00 0. -1.
         11    1    4    4    0    0 -0.97951557261E+00  0.19188354944E+02  0.73209858047E+01  0.20560866947E+02  0.51100000000E-03 0. -1.
        -11    1    4    4    0    0 -0.65709704547E+01 -0.21086375045E+01  0.37115399938E+01  0.78357854889E+01  0.51100000000E-03 0.  1.
        -12    1    4    4    0    0 -0.24133886867E+02  0.16123930828E+01 -0.94561815979E+01  0.25970438525E+02  0.00000000000E+00 0.  1.
</event>
<event>
 8    1  0.2504019E-006  0.9118800E+02  0.7816164E-02  0.1184000E+00
        -11   -1    0    0    0    0  0.00000000000E+00  0.00000000000E+00  0.45593999997E+02  0.45594000000E+02  0.51100000000E-03 0. -1.
         11   -1    0    0    0    0 -0.00000000000E+00 -0.00000000000E+00 -0.45593999997E+02  0.45594000000E+02  0.51100000000E-03 0.  1.
         23    2    1    2    0    0  0.00000000000E+00  0.00000000000E+00 -0.22204460493E-14  0.91188000000E+02  0.91188000000E+02 0.  0.
    9900012    2    3    3    0    0 -0.10317943222E+02 -0.35130609020E+02 -0.38936283718E+01  0.54367082245E+02  0.39999995593E+02 0.  0.
        -12    1    3    3    0    0  0.10317943222E+02  0.35130609020E+02  0.38936283718E+01  0.36820917755E+02  0.00000000000E+00 0.  1.
         11    1    4    4    0    0  0.18387782346E+01 -0.17847423393E+02 -0.10035580844E+02  0.20557833308E+02  0.51100000000E-03 0.  1.
        -11    1    4    4    0    0 -0.85434267968E+01  0.45235113842E+01  0.65918737609E+01  0.11700645137E+02  0.51100000000E-03 0. -1.
        -12    1    4    4    0    0 -0.36132946600E+01 -0.21806697011E+02 -0.44992128827E+00  0.22108603800E+02  0.00000000000E+00 0.  1.
</event>
<event>
 8    1  0.2504019E-006  0.9118800E+02  0.7816164E-02  0.1184000E+00
        -11   -1    0    0    0    0  0.00000000000E+00  0.00000000000E+00  0.45593999997E+02  0.45594000000E+02  0.51100000000E-03 0.  1.
         11   -1    0    0    0    0 -0.00000000000E+00 -0.00000000000E+00 -0.45593999997E+02  0.45594000000E+02  0.51100000000E-03 0. -1.
         23    2    1    2    0    0  0.00000000000E+00  0.00000000000E+00  0.00000000000E+00  0.91188000000E+02  0.91188000000E+02 0.  0.
    9900012    2    3    3    0    0 -0.97935129655E+01 -0.34061823971E+02 -0.99828745467E+01  0.54367101957E+02  0.40000040532E+02 0.  0.
        -12    1    3    3    0    0  0.97935129655E+01  0.34061823971E+02  0.99828745467E+01  0.36820898043E+02  0.00000000000E+00 0.  1.
         11    1    4    4    0    0  0.64792186079E+01  0.82067721326E+00 -0.12046636723E+02  0.13703110649E+02  0.51100000000E-03 0. -1.
        -11    1    4    4    0    0 -0.91446737315E+01 -0.30199662132E+02 -0.10853718552E+01  0.31572498838E+02  0.51100000000E-03 0.  1.
        -12    1    4    4    0    0 -0.71280578419E+01 -0.46828390527E+01  0.31491340316E+01  0.90914924705E+01  0.00000000000E+00 0.  1.
</event>
<event>
 8    1  0.2504019E-006  0.9118800E+02  0.7816164E-02  0.1184000E+00
        -11   -1    0    0    0    0  0.00000000000E+00  0.00000000000E+00  0.45593999997E+02  0.45594000000E+02  0.51100000000E-03 0. -1.
         11   -1    0    0    0    0 -0.00000000000E+00 -0.00000000000E+00 -0.45593999997E+02  0.45594000000E+02  0.51100000000E-03 0.  1.
         23    2    1    2    0    0  0.35527136788E-14  0.00000000000E+00  0.00000000000E+00  0.91188000000E+02  0.91188000000E+02 0.  0.
    9900012    2    3    3    0    0 -0.23409674559E+02 -0.27777334425E+02  0.60154801012E+01  0.54367093281E+02  0.40000020753E+02 0.  0.
        -12    1    3    3    0    0  0.23409674559E+02  0.27777334425E+02 -0.60154801012E+01  0.36820906719E+02  0.00000000000E+00 0.  1.
         11    1    4    4    0    0  0.13115931763E+01 -0.17240430030E+02  0.80318515802E+01  0.19064714641E+02  0.51100000000E-03 0. -1.
        -11    1    4    4    0    0 -0.70701228154E+01  0.72465072452E+01 -0.15479622236E+01  0.10241810933E+02  0.51100000000E-03 0.  1.
         12    1    4    4    0    0 -0.17651144920E+02 -0.17783411640E+02 -0.46840925536E+00  0.25060567707E+02  0.00000000000E+00 0. -1.
</event>
<event>
 8    1  0.2504019E-006  0.9118800E+02  0.7816164E-02  0.1184000E+00
        -11   -1    0    0    0    0  0.00000000000E+00  0.00000000000E+00  0.45593999997E+02  0.45594000000E+02  0.51100000000E-03 0.  1.
         11   -1    0    0    0    0 -0.00000000000E+00 -0.00000000000E+00 -0.45593999997E+02  0.45594000000E+02  0.51100000000E-03 0. -1.
         23    2    1    2    0    0  0.00000000000E+00  0.00000000000E+00  0.00000000000E+00  0.91188000000E+02  0.91188000000E+02 0.  0.
    9900012    2    3    3    0    0 -0.10741213277E+02 -0.74281859297E+01  0.34427149504E+02  0.54367078884E+02  0.39999987932E+02 0.  0.
         12    1    3    3    0    0  0.10741213277E+02  0.74281859297E+01 -0.34427149504E+02  0.36820921116E+02  0.00000000000E+00 0. -1.
         11    1    4    4    0    0  0.60505894489E+01 -0.42806665023E+01  0.25734308513E+02  0.26780372912E+02  0.51100000000E-03 0. -1.
        -11    1    4    4    0    0  0.11334125362E+01 -0.49684667820E+01 -0.31820398852E+01  0.60079667303E+01  0.51100000000E-03 0.  1.
        -12    1    4    4    0    0 -0.17925215262E+02  0.18209473546E+01  0.11874880876E+02  0.21578739242E+02  0.00000000000E+00 0.  1.
</event>
<event>
 8    1  0.2504019E-006  0.9118800E+02  0.7816164E-02  0.1184000E+00
        -11   -1    0    0    0    0  0.00000000000E+00  0.00000000000E+00  0.45593999997E+02  0.45594000000E+02  0.51100000000E-03 0. -1.
         11   -1    0    0    0    0 -0.00000000000E+00 -0.00000000000E+00 -0.45593999997E+02  0.45594000000E+02  0.51100000000E-03 0.  1.
         23    2    1    2    0    0  0.00000000000E+00 -0.17763568394E-14  0.97144514655E-16  0.91188000000E+02  0.91188000000E+02 0.  0.
    9900012    2    3    3    0    0  0.35212339573E+02  0.10763811253E+02  0.85246268029E-01  0.54367139637E+02  0.40000126431E+02 0.  0.
        -12    1    3    3    0    0 -0.35212339573E+02 -0.10763811253E+02 -0.85246268029E-01  0.36820860363E+02  0.00000000000E+00 0.  1.
         11    1    4    4    0    0  0.29363207441E+02 -0.17132808423E+01  0.10612852885E+02  0.31269248937E+02  0.51100000000E-03 0. -1.
        -11    1    4    4    0    0  0.40090768668E+00  0.33019113889E+01  0.39173339130E+01  0.51389542750E+01  0.51100000000E-03 0.  1.
        -12    1    4    4    0    0  0.54482244454E+01  0.91751807064E+01 -0.14444940530E+02  0.17958936425E+02  0.00000000000E+00 0.  1.
</event>
<event>
 8    1  0.2504019E-006  0.9118800E+02  0.7816164E-02  0.1184000E+00
        -11   -1    0    0    0    0  0.00000000000E+00  0.00000000000E+00  0.45593999997E+02  0.45594000000E+02  0.51100000000E-03 0.  1.
         11   -1    0    0    0    0 -0.00000000000E+00 -0.00000000000E+00 -0.45593999997E+02  0.45594000000E+02  0.51100000000E-03 0. -1.
         23    2    1    2    0    0 -0.66613381478E-15  0.00000000000E+00  0.00000000000E+00  0.91188000000E+02  0.91188000000E+02 0.  0.
    9900012    2    3    3    0    0 -0.16901815686E+01 -0.36088700119E+02  0.71078511266E+01  0.54367183365E+02  0.40000226116E+02 0.  0.
        -12    1    3    3    0    0  0.16901815686E+01  0.36088700119E+02 -0.71078511266E+01  0.36820816635E+02  0.00000000000E+00 0.  1.
         11    1    4    4    0    0 -0.11260763702E+02  0.24021474166E+01 -0.48929439349E+01  0.12510635954E+02  0.51100000000E-03 0.  1.
        -11    1    4    4    0    0  0.52866813528E+01 -0.24692639602E+02  0.47645658859E+01  0.25697792485E+02  0.51100000000E-03 0. -1.
        -12    1    4    4    0    0  0.42839007806E+01 -0.13798207934E+02  0.72362291757E+01  0.16158754926E+02  0.00000000000E+00 0.  1.
</event>
<event>
 8    1  0.2504019E-006  0.9118800E+02  0.7816164E-02  0.1184000E+00
        -11   -1    0    0    0    0  0.00000000000E+00  0.00000000000E+00  0.45593999997E+02  0.45594000000E+02  0.51100000000E-03 0. -1.
         11   -1    0    0    0    0 -0.00000000000E+00 -0.00000000000E+00 -0.45593999997E+02  0.45594000000E+02  0.51100000000E-03 0.  1.
         23    2    1    2    0    0  0.00000000000E+00  0.00000000000E+00 -0.71054273576E-14  0.91188000000E+02  0.91188000000E+02 0.  0.
    9900012    2    3    3    0    0 -0.23086773574E+02  0.75416206904E+01  0.27674994717E+02  0.54367075388E+02  0.39999979961E+02 0.  0.
        -12    1    3    3    0    0  0.23086773574E+02 -0.75416206904E+01 -0.27674994717E+02  0.36820924612E+02  0.00000000000E+00 0.  1.
         11    1    4    4    0    0 -0.75783861624E+01 -0.21407545561E+01  0.29517301796E+01  0.84099630326E+01  0.51100000000E-03 0. -1.
        -11    1    4    4    0    0 -0.36385373804E+01  0.11164965535E+02 -0.58555424948E+01  0.13121843919E+02  0.51100000000E-03 0.  1.
        -12    1    4    4    0    0 -0.11869850031E+02 -0.14825902886E+01  0.30578807033E+02  0.32835268436E+02  0.00000000000E+00 0.  1.
</event>
<event>
 8    1  0.2504019E-006  0.9118800E+02  0.7816164E-02  0.1184000E+00
        -11   -1    0    0    0    0  0.00000000000E+00  0.00000000000E+00  0.45593999997E+02  0.45594000000E+02  0.51100000000E-03 0.  1.
         11   -1    0    0    0    0 -0.00000000000E+00 -0.00000000000E+00 -0.45593999997E+02  0.45594000000E+02  0.51100000000E-03 0. -1.
         23    2    1    2    0    0 -0.88817841970E-15 -0.35527136788E-14  0.00000000000E+00  0.91188000000E+02  0.91188000000E+02 0.  0.
    9900012    2    3    3    0    0 -0.60538144084E+01  0.23825541759E+02  0.27413047388E+02  0.54367078283E+02  0.39999986561E+02 0.  0.
         12    1    3    3    0    0  0.60538144084E+01 -0.23825541759E+02 -0.27413047388E+02  0.36820921717E+02  0.00000000000E+00 0. -1.
         11    1    4    4    0    0 -0.12644463774E+02  0.81087854519E+01  0.80714784063E+01  0.17052379000E+02  0.51100000000E-03 0.  1.
        -11    1    4    4    0    0  0.91121894230E+01 -0.40702611157E+01  0.12989541807E+02  0.16380696513E+02  0.51100000000E-03 0. -1.
        -12    1    4    4    0    0 -0.25215400577E+01  0.19787017423E+02  0.63520271750E+01  0.20934002770E+02  0.00000000000E+00 0.  1.
</event>
<event>
 8    1  0.2504019E-006  0.9118800E+02  0.7816164E-02  0.1184000E+00
        -11   -1    0    0    0    0  0.00000000000E+00  0.00000000000E+00  0.45593999997E+02  0.45594000000E+02  0.51100000000E-03 0.  1.
         11   -1    0    0    0    0 -0.00000000000E+00 -0.00000000000E+00 -0.45593999997E+02  0.45594000000E+02  0.51100000000E-03 0. -1.
         23    2    1    2    0    0  0.15543122345E-14  0.00000000000E+00  0.00000000000E+00  0.91188000000E+02  0.91188000000E+02 0.  0.
    9900012    2    3    3    0    0  0.12537597588E+01  0.27418169150E+01  0.36697273664E+02  0.54367090616E+02  0.40000014676E+02 0.  0.
         12    1    3    3    0    0 -0.12537597588E+01 -0.27418169150E+01 -0.36697273664E+02  0.36820909384E+02  0.00000000000E+00 0. -1.
         11    1    4    4    0    0  0.12308773068E+02 -0.19981262638E+01  0.53001906553E+01  0.13549554393E+02  0.51100000000E-03 0. -1.
        -11    1    4    4    0    0 -0.14077224147E+02  0.10577244044E+02  0.28786669739E+02  0.33744906077E+02  0.51100000000E-03 0.  1.
        -12    1    4    4    0    0  0.30222108377E+01 -0.58373008649E+01  0.26104132701E+01  0.70726301456E+01  0.00000000000E+00 0.  1.
</event>
<event>
 8    1  0.2504019E-006  0.9118800E+02  0.7816164E-02  0.1184000E+00
        -11   -1    0    0    0    0  0.00000000000E+00  0.00000000000E+00  0.45593999997E+02  0.45594000000E+02  0.51100000000E-03 0.  1.
         11   -1    0    0    0    0 -0.00000000000E+00 -0.00000000000E+00 -0.45593999997E+02  0.45594000000E+02  0.51100000000E-03 0. -1.
         23    2    1    2    0    0  0.35527136788E-14  0.35527136788E-14 -0.88817841970E-15  0.91188000000E+02  0.91188000000E+02 0.  0.
    9900012    2    3    3    0    0 -0.20874843615E+02 -0.29673049034E+02  0.62872839253E+01  0.54367097321E+02  0.40000029964E+02 0.  0.
        -12    1    3    3    0    0  0.20874843615E+02  0.29673049034E+02 -0.62872839253E+01  0.36820902679E+02  0.00000000000E+00 0.  1.
         11    1    4    4    0    0  0.43203780824E+01 -0.64025492593E+01 -0.62968173932E+01  0.99653506379E+01  0.51100000000E-03 0. -1.
        -11    1    4    4    0    0 -0.15355999896E+01 -0.14730233552E+02 -0.25763685366E+01  0.15032482261E+02  0.51100000000E-03 0.  1.
         12    1    4    4    0    0 -0.23659621708E+02 -0.85402662225E+01  0.15160469855E+02  0.29369264423E+02  0.00000000000E+00 0. -1.
</event>
<event>
 8    1  0.2504019E-006  0.9118800E+02  0.7816164E-02  0.1184000E+00
        -11   -1    0    0    0    0  0.00000000000E+00  0.00000000000E+00  0.45593999997E+02  0.45594000000E+02  0.51100000000E-03 0.  1.
         11   -1    0    0    0    0 -0.00000000000E+00 -0.00000000000E+00 -0.45593999997E+02  0.45594000000E+02  0.51100000000E-03 0. -1.
         23    2    1    2    0    0 -0.35527136788E-14  0.00000000000E+00 -0.88817841970E-15  0.91188000000E+02  0.91188000000E+02 0.  0.
    9900012    2    3    3    0    0  0.16373632957E+02 -0.32220896444E+02  0.70355521672E+01  0.54367068206E+02  0.39999963589E+02 0.  0.
         12    1    3    3    0    0 -0.16373632957E+02  0.32220896444E+02 -0.70355521672E+01  0.36820931794E+02  0.00000000000E+00 0. -1.
         11    1    4    4    0    0  0.10158980448E+02 -0.11644902401E+00 -0.15950563295E+01  0.10284096901E+02  0.51100000000E-03 0. -1.
        -11    1    4    4    0    0  0.85543228065E+01 -0.28770559615E+02  0.17200476359E+02  0.34594478265E+02  0.51100000000E-03 0.  1.
        -12    1    4    4    0    0 -0.23396702970E+01 -0.33338878055E+01 -0.85698678620E+01  0.94884930400E+01  0.00000000000E+00 0.  1.
</event>
<event>
 8    1  0.2504019E-006  0.9118800E+02  0.7816164E-02  0.1184000E+00
        -11   -1    0    0    0    0  0.00000000000E+00  0.00000000000E+00  0.45593999997E+02  0.45594000000E+02  0.51100000000E-03 0.  1.
         11   -1    0    0    0    0 -0.00000000000E+00 -0.00000000000E+00 -0.45593999997E+02  0.45594000000E+02  0.51100000000E-03 0. -1.
         23    2    1    2    0    0  0.00000000000E+00 -0.66613381478E-15  0.00000000000E+00  0.91188000000E+02  0.91188000000E+02 0.  0.
    9900012    2    3    3    0    0  0.15808674118E+02  0.60864727426E+00 -0.33248997527E+02  0.54367075712E+02  0.39999980701E+02 0.  0.
        -12    1    3    3    0    0 -0.15808674118E+02 -0.60864727426E+00  0.33248997527E+02  0.36820924288E+02  0.00000000000E+00 0.  1.
         11    1    4    4    0    0  0.12114318596E+02 -0.10371682882E+02 -0.14982133995E+02  0.21881335886E+02  0.51100000000E-03 0. -1.
        -11    1    4    4    0    0  0.43582286316E+01 -0.50226544442E+01  0.17241579039E+01  0.68697842186E+01  0.51100000000E-03 0.  1.
         12    1    4    4    0    0 -0.66387310971E+00  0.16002984601E+02 -0.19991021436E+02  0.25615955608E+02  0.00000000000E+00 0. -1.
</event>
<event>
 8    1  0.2504019E-006  0.9118800E+02  0.7816164E-02  0.1184000E+00
        -11   -1    0    0    0    0  0.00000000000E+00  0.00000000000E+00  0.45593999997E+02  0.45594000000E+02  0.51100000000E-03 0. -1.
         11   -1    0    0    0    0 -0.00000000000E+00 -0.00000000000E+00 -0.45593999997E+02  0.45594000000E+02  0.51100000000E-03 0.  1.
         23    2    1    2    0    0  0.71054273576E-14  0.00000000000E+00 -0.35527136788E-14  0.91188000000E+02  0.91188000000E+02 0.  0.
    9900012    2    3    3    0    0 -0.25161521874E+02 -0.99709934216E+01  0.24965150815E+02  0.54367059653E+02  0.39999944090E+02 0.  0.
        -12    1    3    3    0    0  0.25161521874E+02  0.99709934216E+01 -0.24965150815E+02  0.36820940347E+02  0.00000000000E+00 0.  1.
         11    1    4    4    0    0 -0.32069313689E+01  0.14595573178E+01 -0.33156745469E+01  0.48382242952E+01  0.51100000000E-03 0. -1.
        -11    1    4    4    0    0 -0.45726897973E+01  0.89998921506E+01 -0.59988584353E+00  0.10112735238E+02  0.51100000000E-03 0.  1.
         12    1    4    4    0    0 -0.17381900708E+02 -0.20430442890E+02  0.28880711206E+02  0.39416100120E+02  0.00000000000E+00 0. -1.
</event>
<event>
 8    1  0.2504019E-006  0.9118800E+02  0.7816164E-02  0.1184000E+00
        -11   -1    0    0    0    0  0.00000000000E+00  0.00000000000E+00  0.45593999997E+02  0.45594000000E+02  0.51100000000E-03 0. -1.
         11   -1    0    0    0    0 -0.00000000000E+00 -0.00000000000E+00 -0.45593999997E+02  0.45594000000E+02  0.51100000000E-03 0.  1.
         23    2    1    2    0    0  0.71054273576E-14  0.00000000000E+00 -0.17763568394E-14  0.91188000000E+02  0.91188000000E+02 0.  0.
    9900012    2    3    3    0    0  0.34657175515E+02  0.65002723984E+01 -0.10602241427E+02  0.54367070093E+02  0.39999967891E+02 0.  0.
        -12    1    3    3    0    0 -0.34657175515E+02 -0.65002723984E+01  0.10602241427E+02  0.36820929907E+02  0.00000000000E+00 0.  1.
         11    1    4    4    0    0  0.54661889545E+00 -0.26160329638E+00  0.27716487610E+01  0.28371227709E+01  0.51100000000E-03 0. -1.
        -11    1    4    4    0    0 -0.41347936577E+01  0.10498692903E+02 -0.40411577876E+01  0.11985408954E+02  0.51100000000E-03 0.  1.
        -12    1    4    4    0    0  0.38245350278E+02 -0.37368172084E+01 -0.93327324002E+01  0.39544538368E+02  0.00000000000E+00 0.  1.
</event>
<event>
 8    1  0.2504019E-006  0.9118800E+02  0.7816164E-02  0.1184000E+00
        -11   -1    0    0    0    0  0.00000000000E+00  0.00000000000E+00  0.45593999997E+02  0.45594000000E+02  0.51100000000E-03 0.  1.
         11   -1    0    0    0    0 -0.00000000000E+00 -0.00000000000E+00 -0.45593999997E+02  0.45594000000E+02  0.51100000000E-03 0. -1.
         23    2    1    2    0    0 -0.17763568394E-14  0.00000000000E+00 -0.35527136788E-14  0.91188000000E+02  0.91188000000E+02 0.  0.
    9900012    2    3    3    0    0  0.13600834312E+02 -0.16774906628E+02 -0.29822835148E+02  0.54367059183E+02  0.39999943019E+02 0.  0.
        -12    1    3    3    0    0 -0.13600834312E+02  0.16774906628E+02  0.29822835148E+02  0.36820940817E+02  0.00000000000E+00 0.  1.
         11    1    4    4    0    0  0.90604659820E-01 -0.20066506739E+02 -0.22498805179E+02  0.30147456554E+02  0.51100000000E-03 0. -1.
        -11    1    4    4    0    0 -0.12513966285E+01 -0.54180189140E+01 -0.37624817024E+01  0.67139549668E+01  0.51100000000E-03 0.  1.
        -12    1    4    4    0    0  0.14761626281E+02  0.87096190245E+01 -0.35615482665E+01  0.17505647662E+02  0.00000000000E+00 0.  1.
</event>
<event>
 8    1  0.2504019E-006  0.9118800E+02  0.7816164E-02  0.1184000E+00
        -11   -1    0    0    0    0  0.00000000000E+00  0.00000000000E+00  0.45593999997E+02  0.45594000000E+02  0.51100000000E-03 0. -1.
         11   -1    0    0    0    0 -0.00000000000E+00 -0.00000000000E+00 -0.45593999997E+02  0.45594000000E+02  0.51100000000E-03 0.  1.
         23    2    1    2    0    0  0.00000000000E+00  0.11102230246E-15  0.00000000000E+00  0.91188000000E+02  0.91188000000E+02 0.  0.
    9900012    2    3    3    0    0 -0.11426732069E+02  0.42112679195E+00  0.35000465341E+02  0.54367080299E+02  0.39999991157E+02 0.  0.
        -12    1    3    3    0    0  0.11426732069E+02 -0.42112679195E+00 -0.35000465341E+02  0.36820919701E+02  0.00000000000E+00 0.  1.
         11    1    4    4    0    0 -0.11286693747E+02  0.39518696089E+01  0.17553969320E+02  0.21240258197E+02  0.51100000000E-03 0. -1.
        -11    1    4    4    0    0 -0.11389783605E+02 -0.97097612168E+00 -0.88671088072E+00  0.11465435955E+02  0.51100000000E-03 0.  1.
         12    1    4    4    0    0  0.11249745283E+02 -0.25597666953E+01  0.18333206902E+02  0.21661386146E+02  0.00000000000E+00 0. -1.
</event>
<event>
 8    1  0.2504019E-006  0.9118800E+02  0.7816164E-02  0.1184000E+00
        -11   -1    0    0    0    0  0.00000000000E+00  0.00000000000E+00  0.45593999997E+02  0.45594000000E+02  0.51100000000E-03 0.  1.
         11   -1    0    0    0    0 -0.00000000000E+00 -0.00000000000E+00 -0.45593999997E+02  0.45594000000E+02  0.51100000000E-03 0. -1.
         23    2    1    2    0    0  0.00000000000E+00  0.00000000000E+00  0.00000000000E+00  0.91188000000E+02  0.91188000000E+02 0.  0.
    9900012    2    3    3    0    0  0.11122724724E+02  0.12687564519E+02 -0.32727410233E+02  0.54367181441E+02  0.40000221732E+02 0.  0.
        -12    1    3    3    0    0 -0.11122724724E+02 -0.12687564519E+02  0.32727410233E+02  0.36820818559E+02  0.00000000000E+00 0.  1.
         11    1    4    4    0    0  0.43187025976E+00  0.29874712515E+01 -0.26331750166E+02  0.26504198978E+02  0.51100000000E-03 0. -1.
        -11    1    4    4    0    0  0.35099441793E+01  0.15682730738E+02  0.76476305287E+00  0.16088897238E+02  0.51100000000E-03 0.  1.
        -12    1    4    4    0    0  0.71809102854E+01 -0.59826374705E+01 -0.71604231203E+01  0.11774085225E+02  0.00000000000E+00 0.  1.
</event>
<event>
 8    1  0.2504019E-006  0.9118800E+02  0.7816164E-02  0.1184000E+00
        -11   -1    0    0    0    0  0.00000000000E+00  0.00000000000E+00  0.45593999997E+02  0.45594000000E+02  0.51100000000E-03 0.  1.
         11   -1    0    0    0    0 -0.00000000000E+00 -0.00000000000E+00 -0.45593999997E+02  0.45594000000E+02  0.51100000000E-03 0. -1.
         23    2    1    2    0    0  0.00000000000E+00  0.00000000000E+00  0.71054273576E-14  0.91188000000E+02  0.91188000000E+02 0.  0.
    9900012    2    3    3    0    0  0.18624932942E+02  0.16516429482E+02 -0.27131155655E+02  0.54367079627E+02  0.39999989626E+02 0.  0.
        -12    1    3    3    0    0 -0.18624932942E+02 -0.16516429482E+02  0.27131155655E+02  0.36820920373E+02  0.00000000000E+00 0.  1.
         11    1    4    4    0    0  0.19535393195E+02  0.70600527187E+01 -0.95443711691E+01  0.22859810869E+02  0.51100000000E-03 0. -1.
        -11    1    4    4    0    0  0.84323084343E+01  0.24744963598E+01  0.17165240853E+01  0.89539607416E+01  0.51100000000E-03 0.  1.
        -12    1    4    4    0    0 -0.93427686871E+01  0.69818804033E+01 -0.19303308571E+02  0.22553308017E+02  0.00000000000E+00 0.  1.
</event>
<event>
 8    1  0.2504019E-006  0.9118800E+02  0.7816164E-02  0.1184000E+00
        -11   -1    0    0    0    0  0.00000000000E+00  0.00000000000E+00  0.45593999997E+02  0.45594000000E+02  0.51100000000E-03 0. -1.
         11   -1    0    0    0    0 -0.00000000000E+00 -0.00000000000E+00 -0.45593999997E+02  0.45594000000E+02  0.51100000000E-03 0.  1.
         23    2    1    2    0    0  0.00000000000E+00  0.00000000000E+00  0.00000000000E+00  0.91188000000E+02  0.91188000000E+02 0.  0.
    9900012    2    3    3    0    0  0.34374068318E+02  0.12349623635E+02 -0.46572439262E+01  0.54367086138E+02  0.40000004468E+02 0.  0.
        -12    1    3    3    0    0 -0.34374068318E+02 -0.12349623635E+02  0.46572439262E+01  0.36820913862E+02  0.00000000000E+00 0.  1.
         11    1    4    4    0    0 -0.26790471250E+01 -0.16465501270E+01  0.55338575110E+00  0.31929072754E+01  0.51100000000E-03 0. -1.
        -11    1    4    4    0    0  0.29329866082E+02  0.68598708277E+01  0.10817117492E+02  0.32004826250E+02  0.51100000000E-03 0.  1.
        -12    1    4    4    0    0  0.77232493611E+01  0.71363029344E+01 -0.16027747169E+02  0.19169352613E+02  0.00000000000E+00 0.  1.
</event>
<event>
 8    1  0.2504019E-006  0.9118800E+02  0.7816164E-02  0.1184000E+00
        -11   -1    0    0    0    0  0.00000000000E+00  0.00000000000E+00  0.45593999997E+02  0.45594000000E+02  0.51100000000E-03 0.  1.
         11   -1    0    0    0    0 -0.00000000000E+00 -0.00000000000E+00 -0.45593999997E+02  0.45594000000E+02  0.51100000000E-03 0. -1.
         23    2    1    2    0    0  0.00000000000E+00  0.88817841970E-15  0.00000000000E+00  0.91188000000E+02  0.91188000000E+02 0.  0.
    9900012    2    3    3    0    0 -0.28620756681E+02 -0.28244272137E+01 -0.22992515752E+02  0.54367070046E+02  0.39999967783E+02 0.  0.
        -12    1    3    3    0    0  0.28620756681E+02  0.28244272137E+01  0.22992515752E+02  0.36820929954E+02  0.00000000000E+00 0.  1.
         11    1    4    4    0    0 -0.50222901625E+01 -0.86291317325E+01  0.22760531327E+01  0.10240397017E+02  0.51100000000E-03 0. -1.
        -11    1    4    4    0    0  0.14352694252E+01  0.62865494567E+01  0.23359022713E+01  0.68583629298E+01  0.51100000000E-03 0.  1.
         12    1    4    4    0    0 -0.25033735944E+02 -0.48184493789E+00 -0.27604471156E+02  0.37268310099E+02  0.00000000000E+00 0. -1.
</event>
<event>
 8    1  0.2504019E-006  0.9118800E+02  0.7816164E-02  0.1184000E+00
        -11   -1    0    0    0    0  0.00000000000E+00  0.00000000000E+00  0.45593999997E+02  0.45594000000E+02  0.51100000000E-03 0.  1.
         11   -1    0    0    0    0 -0.00000000000E+00 -0.00000000000E+00 -0.45593999997E+02  0.45594000000E+02  0.51100000000E-03 0. -1.
         23    2    1    2    0    0  0.00000000000E+00  0.44408920985E-15  0.00000000000E+00  0.91188000000E+02  0.91188000000E+02 0.  0.
    9900012    2    3    3    0    0  0.17242826632E+02  0.38396093544E+01  0.32306693400E+02  0.54367080556E+02  0.39999991744E+02 0.  0.
         12    1    3    3    0    0 -0.17242826632E+02 -0.38396093544E+01 -0.32306693400E+02  0.36820919444E+02  0.00000000000E+00 0. -1.
         11    1    4    4    0    0  0.54825768918E+01  0.10302011429E+02  0.31514152380E+02  0.33605533612E+02  0.51100000000E-03 0. -1.
        -11    1    4    4    0    0  0.60582547397E+01  0.11763857718E+01  0.70418223513E+01  0.93634179798E+01  0.51100000000E-03 0.  1.
         12    1    4    4    0    0  0.57019950003E+01 -0.76387878464E+01 -0.62492813311E+01  0.11398128965E+02  0.00000000000E+00 0. -1.
</event>
<event>
 8    1  0.2504019E-006  0.9118800E+02  0.7816164E-02  0.1184000E+00
        -11   -1    0    0    0    0  0.00000000000E+00  0.00000000000E+00  0.45593999997E+02  0.45594000000E+02  0.51100000000E-03 0. -1.
         11   -1    0    0    0    0 -0.00000000000E+00 -0.00000000000E+00 -0.45593999997E+02  0.45594000000E+02  0.51100000000E-03 0.  1.
         23    2    1    2    0    0  0.35527136788E-14 -0.17763568394E-14  0.00000000000E+00  0.91188000000E+02  0.91188000000E+02 0.  0.
    9900012    2    3    3    0    0  0.28284979331E+02 -0.10803656867E+02 -0.20952811215E+02  0.54367090787E+02  0.40000015068E+02 0.  0.
         12    1    3    3    0    0 -0.28284979331E+02  0.10803656867E+02  0.20952811215E+02  0.36820909213E+02  0.00000000000E+00 0. -1.
         11    1    4    4    0    0  0.59804945857E+01 -0.73159045742E+01 -0.18690684865E+02  0.20943506779E+02  0.51100000000E-03 0. -1.
        -11    1    4    4    0    0  0.14691649079E+02  0.50198557000E+01 -0.11016515475E+02  0.19036993391E+02  0.51100000000E-03 0.  1.
         12    1    4    4    0    0  0.76128356659E+01 -0.85076079925E+01  0.87543891250E+01  0.14386590617E+02  0.00000000000E+00 0. -1.
</event>
<event>
 8    1  0.2504019E-006  0.9118800E+02  0.7816164E-02  0.1184000E+00
        -11   -1    0    0    0    0  0.00000000000E+00  0.00000000000E+00  0.45593999997E+02  0.45594000000E+02  0.51100000000E-03 0. -1.
         11   -1    0    0    0    0 -0.00000000000E+00 -0.00000000000E+00 -0.45593999997E+02  0.45594000000E+02  0.51100000000E-03 0.  1.
         23    2    1    2    0    0  0.00000000000E+00  0.00000000000E+00  0.00000000000E+00  0.91188000000E+02  0.91188000000E+02 0.  0.
    9900012    2    3    3    0    0 -0.14650165395E+02  0.18672450967E+02  0.28151236047E+02  0.54367083903E+02  0.39999999374E+02 0.  0.
        -12    1    3    3    0    0  0.14650165395E+02 -0.18672450967E+02 -0.28151236047E+02  0.36820916097E+02  0.00000000000E+00 0.  1.
         11    1    4    4    0    0 -0.21278367871E+02  0.10360363683E+02  0.34090531784E+01  0.23910828483E+02  0.51100000000E-03 0. -1.
        -11    1    4    4    0    0  0.66892018041E+00  0.25068041226E+01 -0.14516165466E+01  0.29729971369E+01  0.51100000000E-03 0.  1.
        -12    1    4    4    0    0  0.59592822958E+01  0.58052831612E+01  0.26193799415E+02  0.27483258283E+02  0.00000000000E+00 0.  1.
</event>
<event>
 8    1  0.2504019E-006  0.9118800E+02  0.7816164E-02  0.1184000E+00
        -11   -1    0    0    0    0  0.00000000000E+00  0.00000000000E+00  0.45593999997E+02  0.45594000000E+02  0.51100000000E-03 0.  1.
         11   -1    0    0    0    0 -0.00000000000E+00 -0.00000000000E+00 -0.45593999997E+02  0.45594000000E+02  0.51100000000E-03 0. -1.
         23    2    1    2    0    0  0.26645352591E-14  0.71054273576E-14 -0.88817841970E-15  0.91188000000E+02  0.91188000000E+02 0.  0.
    9900012    2    3    3    0    0  0.54412925469E+01  0.35767819933E+02 -0.68436753190E+01  0.54367075253E+02  0.39999979654E+02 0.  0.
         12    1    3    3    0    0 -0.54412925469E+01 -0.35767819933E+02  0.68436753190E+01  0.36820924747E+02  0.00000000000E+00 0. -1.
         11    1    4    4    0    0 -0.69826478172E+01 -0.14160620861E+01  0.62632653538E+01  0.94863636618E+01  0.51100000000E-03 0. -1.
        -11    1    4    4    0    0 -0.27875180663E+01  0.58176997896E+01  0.21892054427E+01  0.68123790663E+01  0.51100000000E-03 0.  1.
        -12    1    4    4    0    0  0.15211458430E+02  0.31366182230E+02 -0.15296146115E+02  0.38068332525E+02  0.00000000000E+00 0.  1.
</event>
<event>
 8    1  0.2504019E-006  0.9118800E+02  0.7816164E-02  0.1184000E+00
        -11   -1    0    0    0    0  0.00000000000E+00  0.00000000000E+00  0.45593999997E+02  0.45594000000E+02  0.51100000000E-03 0.  1.
         11   -1    0    0    0    0 -0.00000000000E+00 -0.00000000000E+00 -0.45593999997E+02  0.45594000000E+02  0.51100000000E-03 0. -1.
         23    2    1    2    0    0  0.35527136788E-14  0.00000000000E+00  0.17763568394E-14  0.91188000000E+02  0.91188000000E+02 0.  0.
    9900012    2    3    3    0    0  0.28025402962E+02 -0.19657064541E+02 -0.13563043557E+02  0.54367088169E+02  0.40000009099E+02 0.  0.
        -12    1    3    3    0    0 -0.28025402962E+02  0.19657064541E+02  0.13563043557E+02  0.36820911831E+02  0.00000000000E+00 0.  1.
         11    1    4    4    0    0  0.31252935149E+02 -0.25249332188E+02 -0.24886170511E+01  0.40255036287E+02  0.51100000000E-03 0. -1.
        -11    1    4    4    0    0  0.72242105647E+00  0.27074425389E+00  0.39414517932E+00  0.86634018569E+00  0.51100000000E-03 0.  1.
         12    1    4    4    0    0 -0.39499532437E+01  0.53215233926E+01 -0.11468571685E+02  0.13245711697E+02  0.00000000000E+00 0. -1.
</event>
<event>
 8    1  0.2504019E-006  0.9118800E+02  0.7816164E-02  0.1184000E+00
        -11   -1    0    0    0    0  0.00000000000E+00  0.00000000000E+00  0.45593999997E+02  0.45594000000E+02  0.51100000000E-03 0.  1.
         11   -1    0    0    0    0 -0.00000000000E+00 -0.00000000000E+00 -0.45593999997E+02  0.45594000000E+02  0.51100000000E-03 0. -1.
         23    2    1    2    0    0  0.00000000000E+00 -0.35527136788E-14  0.00000000000E+00  0.91188000000E+02  0.91188000000E+02 0.  0.
    9900012    2    3    3    0    0 -0.29261970972E+02  0.20412297794E+02  0.91023505226E+01  0.54367114195E+02  0.40000068431E+02 0.  0.
         12    1    3    3    0    0  0.29261970972E+02 -0.20412297794E+02 -0.91023505226E+01  0.36820885805E+02  0.00000000000E+00 0. -1.
         11    1    4    4    0    0 -0.25636901027E+02  0.93349815920E+01  0.17331482248E+02  0.32322946227E+02  0.51100000000E-03 0. -1.
        -11    1    4    4    0    0 -0.24633553682E+01 -0.43293897286E+01 -0.16019721206E+01  0.52324038479E+01  0.51100000000E-03 0.  1.
         12    1    4    4    0    0 -0.11617145765E+01  0.15406705931E+02 -0.66271596051E+01  0.16811764120E+02  0.00000000000E+00 0. -1.
</event>
<event>
 8    1  0.2504019E-006  0.9118800E+02  0.7816164E-02  0.1184000E+00
        -11   -1    0    0    0    0  0.00000000000E+00  0.00000000000E+00  0.45593999997E+02  0.45594000000E+02  0.51100000000E-03 0.  1.
         11   -1    0    0    0    0 -0.00000000000E+00 -0.00000000000E+00 -0.45593999997E+02  0.45594000000E+02  0.51100000000E-03 0. -1.
         23    2    1    2    0    0  0.00000000000E+00  0.00000000000E+00  0.00000000000E+00  0.91188000000E+02  0.91188000000E+02 0.  0.
    9900012    2    3    3    0    0  0.16668389625E+02 -0.32826072517E+02 -0.62802541156E+00  0.54367072995E+02  0.39999974507E+02 0.  0.
         12    1    3    3    0    0 -0.16668389625E+02  0.32826072517E+02  0.62802541156E+00  0.36820927005E+02  0.00000000000E+00 0. -1.
         11    1    4    4    0    0  0.14445721830E+02 -0.78874053045E+01 -0.81499651589E+01  0.18366054938E+02  0.51100000000E-03 0. -1.
        -11    1    4    4    0    0  0.13196750922E+02 -0.15354741689E+02  0.69975755317E+01  0.21421680392E+02  0.51100000000E-03 0.  1.
         12    1    4    4    0    0 -0.10974083127E+02 -0.95839255243E+01  0.52436421557E+00  0.14579337666E+02  0.00000000000E+00 0. -1.
</event>
<event>
 8    1  0.2504019E-006  0.9118800E+02  0.7816164E-02  0.1184000E+00
        -11   -1    0    0    0    0  0.00000000000E+00  0.00000000000E+00  0.45593999997E+02  0.45594000000E+02  0.51100000000E-03 0. -1.
         11   -1    0    0    0    0 -0.00000000000E+00 -0.00000000000E+00 -0.45593999997E+02  0.45594000000E+02  0.51100000000E-03 0.  1.
         23    2    1    2    0    0  0.00000000000E+00 -0.35527136788E-14  0.00000000000E+00  0.91188000000E+02  0.91188000000E+02 0.  0.
    9900012    2    3    3    0    0  0.32746039696E+02  0.96272517164E+01  0.13812720463E+02  0.54367104601E+02  0.40000046559E+02 0.  0.
        -12    1    3    3    0    0 -0.32746039696E+02 -0.96272517164E+01 -0.13812720463E+02  0.36820895399E+02  0.00000000000E+00 0.  1.
         11    1    4    4    0    0  0.15491573698E+02 -0.59739172106E+01 -0.26947123798E+01  0.16820761504E+02  0.51100000000E-03 0. -1.
        -11    1    4    4    0    0  0.50074670345E+01 -0.66259460616E+01  0.48661358655E+01  0.96258592258E+01  0.51100000000E-03 0.  1.
         12    1    4    4    0    0  0.12246998963E+02  0.22227114989E+02  0.11641296977E+02  0.27920483872E+02  0.00000000000E+00 0. -1.
</event>
<event>
 8    1  0.2504019E-006  0.9118800E+02  0.7816164E-02  0.1184000E+00
        -11   -1    0    0    0    0  0.00000000000E+00  0.00000000000E+00  0.45593999997E+02  0.45594000000E+02  0.51100000000E-03 0.  1.
         11   -1    0    0    0    0 -0.00000000000E+00 -0.00000000000E+00 -0.45593999997E+02  0.45594000000E+02  0.51100000000E-03 0. -1.
         23    2    1    2    0    0  0.88817841970E-15 -0.71054273576E-14  0.00000000000E+00  0.91188000000E+02  0.91188000000E+02 0.  0.
    9900012    2    3    3    0    0 -0.54565868799E+01  0.32240864966E+02 -0.16927294639E+02  0.54367068210E+02  0.39999963598E+02 0.  0.
        -12    1    3    3    0    0  0.54565868799E+01 -0.32240864966E+02  0.16927294639E+02  0.36820931790E+02  0.00000000000E+00 0.  1.
         11    1    4    4    0    0  0.23979528801E+01 -0.56504288228E+01 -0.95661626669E+01  0.11366133570E+02  0.51100000000E-03 0. -1.
        -11    1    4    4    0    0 -0.24362220538E+01  0.24767244419E+02  0.34905210529E+01  0.25130366323E+02  0.51100000000E-03 0.  1.
         12    1    4    4    0    0 -0.54183177063E+01  0.13124049369E+02 -0.10851653025E+02  0.17870568317E+02  0.00000000000E+00 0. -1.
</event>
<event>
 8    1  0.2504019E-006  0.9118800E+02  0.7816164E-02  0.1184000E+00
        -11   -1    0    0    0    0  0.00000000000E+00  0.00000000000E+00  0.45593999997E+02  0.45594000000E+02  0.51100000000E-03 0.  1.
         11   -1    0    0    0    0 -0.00000000000E+00 -0.00000000000E+00 -0.45593999997E+02  0.45594000000E+02  0.51100000000E-03 0. -1.
         23    2    1    2    0    0  0.17763568394E-14  0.00000000000E+00 -0.71054273576E-14  0.91188000000E+02  0.91188000000E+02 0.  0.
    9900012    2    3    3    0    0 -0.12103267633E+02 -0.19421776675E+02  0.28845951987E+02  0.54367035283E+02  0.39999888535E+02 0.  0.
         12    1    3    3    0    0  0.12103267633E+02  0.19421776675E+02 -0.28845951987E+02  0.36820964717E+02  0.00000000000E+00 0. -1.
         11    1    4    4    0    0 -0.99382748381E+01 -0.97774064357E+01  0.16203272863E+01  0.14035399679E+02  0.51100000000E-03 0. -1.
        -11    1    4    4    0    0 -0.34376562748E+01 -0.16138428461E+02  0.51500579459E+01  0.17285527211E+02  0.51100000000E-03 0.  1.
         12    1    4    4    0    0  0.12726634799E+01  0.64940582216E+01  0.22075566755E+02  0.23046108393E+02  0.00000000000E+00 0. -1.
</event>
<event>
 8    1  0.2504019E-006  0.9118800E+02  0.7816164E-02  0.1184000E+00
        -11   -1    0    0    0    0  0.00000000000E+00  0.00000000000E+00  0.45593999997E+02  0.45594000000E+02  0.51100000000E-03 0.  1.
         11   -1    0    0    0    0 -0.00000000000E+00 -0.00000000000E+00 -0.45593999997E+02  0.45594000000E+02  0.51100000000E-03 0. -1.
         23    2    1    2    0    0  0.00000000000E+00 -0.13322676296E-14  0.00000000000E+00  0.91188000000E+02  0.91188000000E+02 0.  0.
    9900012    2    3    3    0    0  0.23024349498E+01  0.18266698910E+01  0.36703445648E+02  0.54367070463E+02  0.39999968734E+02 0.  0.
         12    1    3    3    0    0 -0.23024349498E+01 -0.18266698910E+01 -0.36703445648E+02  0.36820929537E+02  0.00000000000E+00 0. -1.
         11    1    4    4    0    0 -0.43190074587E+01  0.96517963276E+01  0.34883419096E+02  0.36450842595E+02  0.51100000000E-03 0. -1.
        -11    1    4    4    0    0  0.47690357727E+01 -0.43968728113E+00  0.71614627575E+01  0.86153105686E+01  0.51100000000E-03 0.  1.
         12    1    4    4    0    0  0.18524066357E+01 -0.73854391555E+01 -0.53414362060E+01  0.93009172992E+01  0.00000000000E+00 0. -1.
</event>
<event>
 8    1  0.2504019E-006  0.9118800E+02  0.7816164E-02  0.1184000E+00
        -11   -1    0    0    0    0  0.00000000000E+00  0.00000000000E+00  0.45593999997E+02  0.45594000000E+02  0.51100000000E-03 0.  1.
         11   -1    0    0    0    0 -0.00000000000E+00 -0.00000000000E+00 -0.45593999997E+02  0.45594000000E+02  0.51100000000E-03 0. -1.
         23    2    1    2    0    0  0.72164496601E-15  0.00000000000E+00  0.00000000000E+00  0.91188000000E+02  0.91188000000E+02 0.  0.
    9900012    2    3    3    0    0  0.18460237541E+00 -0.36764570583E+02 -0.20279239383E+01  0.54367079266E+02  0.39999988802E+02 0.  0.
         12    1    3    3    0    0 -0.18460237541E+00  0.36764570583E+02  0.20279239383E+01  0.36820920734E+02  0.00000000000E+00 0. -1.
         11    1    4    4    0    0  0.73610411591E+01 -0.22319389345E+02 -0.20956963398E+01  0.23595169232E+02  0.51100000000E-03 0. -1.
        -11    1    4    4    0    0 -0.18395111038E+01 -0.43172782776E+01  0.12809893663E+02  0.13642436320E+02  0.51100000000E-03 0.  1.
         12    1    4    4    0    0 -0.53369276798E+01 -0.10127902961E+02 -0.12742121262E+02  0.17129473713E+02  0.00000000000E+00 0. -1.
</event>
<event>
 8    1  0.2504019E-006  0.9118800E+02  0.7816164E-02  0.1184000E+00
        -11   -1    0    0    0    0  0.00000000000E+00  0.00000000000E+00  0.45593999997E+02  0.45594000000E+02  0.51100000000E-03 0.  1.
         11   -1    0    0    0    0 -0.00000000000E+00 -0.00000000000E+00 -0.45593999997E+02  0.45594000000E+02  0.51100000000E-03 0. -1.
         23    2    1    2    0    0 -0.35527136788E-14  0.35527136788E-14  0.00000000000E+00  0.91188000000E+02  0.91188000000E+02 0.  0.
    9900012    2    3    3    0    0 -0.24294204209E+02  0.21177953096E+02  0.17806375443E+02  0.54367067612E+02  0.39999962235E+02 0.  0.
         12    1    3    3    0    0  0.24294204209E+02 -0.21177953096E+02 -0.17806375443E+02  0.36820932388E+02  0.00000000000E+00 0. -1.
         11    1    4    4    0    0 -0.60706667250E+00  0.19760180670E+02  0.31163019373E+01  0.20013610570E+02  0.51100000000E-03 0. -1.
        -11    1    4    4    0    0 -0.18502742111E+02  0.98086634525E+01  0.79163755442E+01  0.22388174253E+02  0.51100000000E-03 0.  1.
         12    1    4    4    0    0 -0.51843954255E+01 -0.83908910262E+01  0.67736979614E+01  0.11965282789E+02  0.00000000000E+00 0. -1.
</event>
<event>
 8    1  0.2504019E-006  0.9118800E+02  0.7816164E-02  0.1184000E+00
        -11   -1    0    0    0    0  0.00000000000E+00  0.00000000000E+00  0.45593999997E+02  0.45594000000E+02  0.51100000000E-03 0.  1.
         11   -1    0    0    0    0 -0.00000000000E+00 -0.00000000000E+00 -0.45593999997E+02  0.45594000000E+02  0.51100000000E-03 0. -1.
         23    2    1    2    0    0  0.00000000000E+00  0.00000000000E+00 -0.35527136788E-14  0.91188000000E+02  0.91188000000E+02 0.  0.
    9900012    2    3    3    0    0 -0.58433586663E+01  0.24331604252E+02  0.27011265485E+02  0.54367078379E+02  0.39999986780E+02 0.  0.
         12    1    3    3    0    0  0.58433586663E+01 -0.24331604252E+02 -0.27011265485E+02  0.36820921621E+02  0.00000000000E+00 0. -1.
         11    1    4    4    0    0  0.85792925034E+01  0.37482357401E+01  0.10876115925E+02  0.14350729211E+02  0.51100000000E-03 0. -1.
        -11    1    4    4    0    0 -0.87289791735E+01  0.25776272641E+02  0.70683122485E+01  0.28117118397E+02  0.51100000000E-03 0.  1.
        -12    1    4    4    0    0 -0.56936719962E+01 -0.51929041291E+01  0.90668373111E+01  0.11899230770E+02  0.00000000000E+00 0.  1.
</event>
<event>
 8    1  0.2504019E-006  0.9118800E+02  0.7816164E-02  0.1184000E+00
        -11   -1    0    0    0    0  0.00000000000E+00  0.00000000000E+00  0.45593999997E+02  0.45594000000E+02  0.51100000000E-03 0. -1.
         11   -1    0    0    0    0 -0.00000000000E+00 -0.00000000000E+00 -0.45593999997E+02  0.45594000000E+02  0.51100000000E-03 0.  1.
         23    2    1    2    0    0  0.00000000000E+00  0.00000000000E+00 -0.71054273576E-14  0.91188000000E+02  0.91188000000E+02 0.  0.
    9900012    2    3    3    0    0  0.10580775431E+02 -0.16210314245E+02 -0.31321768159E+02  0.54367078539E+02  0.39999987145E+02 0.  0.
         12    1    3    3    0    0 -0.10580775431E+02  0.16210314245E+02  0.31321768159E+02  0.36820921461E+02  0.00000000000E+00 0. -1.
         11    1    4    4    0    0 -0.57010145502E+01  0.40058419287E+01 -0.33917570020E+01  0.77493452808E+01  0.51100000000E-03 0. -1.
        -11    1    4    4    0    0  0.51630784275E+01 -0.14593034747E+02  0.59429467812E+00  0.15490875650E+02  0.51100000000E-03 0.  1.
        -12    1    4    4    0    0  0.11118711554E+02 -0.56231214269E+01 -0.28524305835E+02  0.31126857608E+02  0.00000000000E+00 0.  1.
</event>
<event>
 8    1  0.2504019E-006  0.9118800E+02  0.7816164E-02  0.1184000E+00
        -11   -1    0    0    0    0  0.00000000000E+00  0.00000000000E+00  0.45593999997E+02  0.45594000000E+02  0.51100000000E-03 0. -1.
         11   -1    0    0    0    0 -0.00000000000E+00 -0.00000000000E+00 -0.45593999997E+02  0.45594000000E+02  0.51100000000E-03 0.  1.
         23    2    1    2    0    0  0.17763568394E-14 -0.35527136788E-14  0.00000000000E+00  0.91188000000E+02  0.91188000000E+02 0.  0.
    9900012    2    3    3    0    0  0.29136064760E+01 -0.23303167032E+02  0.28359363516E+02  0.54367079378E+02  0.39999989058E+02 0.  0.
        -12    1    3    3    0    0 -0.29136064760E+01  0.23303167032E+02 -0.28359363516E+02  0.36820920622E+02  0.00000000000E+00 0.  1.
         11    1    4    4    0    0 -0.28925750329E+01 -0.50565751591E+01  0.77104994240E+01  0.96637334550E+01  0.51100000000E-03 0. -1.
        -11    1    4    4    0    0  0.17550680862E+02 -0.12674477768E+01  0.15442899365E+02  0.23411876551E+02  0.51100000000E-03 0.  1.
        -12    1    4    4    0    0 -0.11744499353E+02 -0.16979144096E+02  0.52059647278E+01  0.21291469372E+02  0.00000000000E+00 0.  1.
</event>
<event>
 8    1  0.2504019E-006  0.9118800E+02  0.7816164E-02  0.1184000E+00
        -11   -1    0    0    0    0  0.00000000000E+00  0.00000000000E+00  0.45593999997E+02  0.45594000000E+02  0.51100000000E-03 0. -1.
         11   -1    0    0    0    0 -0.00000000000E+00 -0.00000000000E+00 -0.45593999997E+02  0.45594000000E+02  0.51100000000E-03 0.  1.
         23    2    1    2    0    0  0.35527136788E-14  0.00000000000E+00  0.35527136788E-14  0.91188000000E+02  0.91188000000E+02 0.  0.
    9900012    2    3    3    0    0  0.10287046493E+02  0.31431033519E+02  0.16187942964E+02  0.54367045490E+02  0.39999911803E+02 0.  0.
        -12    1    3    3    0    0 -0.10287046493E+02 -0.31431033519E+02 -0.16187942964E+02  0.36820954510E+02  0.00000000000E+00 0.  1.
         11    1    4    4    0    0 -0.81821177202E+01  0.11781556012E+02  0.56875800945E+01  0.15430511335E+02  0.51100000000E-03 0. -1.
        -11    1    4    4    0    0  0.91359748783E-01 -0.51467394136E+01 -0.21525481037E+01  0.55794925212E+01  0.51100000000E-03 0.  1.
         12    1    4    4    0    0  0.18377804464E+02  0.24796216920E+02  0.12652910973E+02  0.33357041634E+02  0.00000000000E+00 0. -1.
</event>
<event>
 8    1  0.2504019E-006  0.9118800E+02  0.7816164E-02  0.1184000E+00
        -11   -1    0    0    0    0  0.00000000000E+00  0.00000000000E+00  0.45593999997E+02  0.45594000000E+02  0.51100000000E-03 0. -1.
         11   -1    0    0    0    0 -0.00000000000E+00 -0.00000000000E+00 -0.45593999997E+02  0.45594000000E+02  0.51100000000E-03 0.  1.
         23    2    1    2    0    0  0.17763568394E-14 -0.35527136788E-14 -0.35527136788E-14  0.91188000000E+02  0.91188000000E+02 0.  0.
    9900012    2    3    3    0    0  0.12547367000E+02 -0.25458198361E+02 -0.23456808162E+02  0.54367107404E+02  0.40000052948E+02 0.  0.
         12    1    3    3    0    0 -0.12547367000E+02  0.25458198361E+02  0.23456808162E+02  0.36820892596E+02  0.00000000000E+00 0. -1.
         11    1    4    4    0    0 -0.24451762616E+01  0.14631638838E+01  0.82044285315E+01  0.86851818225E+01  0.51100000000E-03 0. -1.
        -11    1    4    4    0    0  0.12124529260E+02 -0.17260783048E+02 -0.13901874307E+02  0.25262639425E+02  0.51100000000E-03 0.  1.
         12    1    4    4    0    0  0.28680140017E+01 -0.96605791966E+01 -0.17759362386E+02  0.20419286156E+02  0.00000000000E+00 0. -1.
</event>
<event>
 8    1  0.2504019E-006  0.9118800E+02  0.7816164E-02  0.1184000E+00
        -11   -1    0    0    0    0  0.00000000000E+00  0.00000000000E+00  0.45593999997E+02  0.45594000000E+02  0.51100000000E-03 0. -1.
         11   -1    0    0    0    0 -0.00000000000E+00 -0.00000000000E+00 -0.45593999997E+02  0.45594000000E+02  0.51100000000E-03 0.  1.
         23    2    1    2    0    0  0.00000000000E+00  0.00000000000E+00 -0.71054273576E-14  0.91188000000E+02  0.91188000000E+02 0.  0.
    9900012    2    3    3    0    0 -0.21178466541E+02 -0.97562857684E+01 -0.28496806543E+02  0.54367074697E+02  0.39999978387E+02 0.  0.
         12    1    3    3    0    0  0.21178466541E+02  0.97562857684E+01  0.28496806543E+02  0.36820925303E+02  0.00000000000E+00 0. -1.
         11    1    4    4    0    0  0.74318220070E+01 -0.15867333440E+01 -0.31236237260E+01  0.82162477136E+01  0.51100000000E-03 0. -1.
        -11    1    4    4    0    0 -0.13556920864E+02 -0.78534084627E+01 -0.26782308801E+02  0.31028344989E+02  0.51100000000E-03 0.  1.
         12    1    4    4    0    0 -0.15053367684E+02 -0.31614396177E+00  0.14091259835E+01  0.15122481995E+02  0.00000000000E+00 0. -1.
</event>
<event>
 8    1  0.2504019E-006  0.9118800E+02  0.7816164E-02  0.1184000E+00
        -11   -1    0    0    0    0  0.00000000000E+00  0.00000000000E+00  0.45593999997E+02  0.45594000000E+02  0.51100000000E-03 0. -1.
         11   -1    0    0    0    0 -0.00000000000E+00 -0.00000000000E+00 -0.45593999997E+02  0.45594000000E+02  0.51100000000E-03 0.  1.
         23    2    1    2    0    0  0.00000000000E+00  0.00000000000E+00  0.00000000000E+00  0.91188000000E+02  0.91188000000E+02 0.  0.
    9900012    2    3    3    0    0 -0.23474537437E+02  0.22246578883E+02 -0.17601585729E+02  0.54367082032E+02  0.39999995108E+02 0.  0.
         12    1    3    3    0    0  0.23474537437E+02 -0.22246578883E+02  0.17601585729E+02  0.36820917968E+02  0.00000000000E+00 0. -1.
         11    1    4    4    0    0 -0.12134090791E+02  0.53993405777E+01  0.10535362261E+02  0.16952371405E+02  0.51100000000E-03 0. -1.
        -11    1    4    4    0    0  0.46360309867E+00  0.46687656744E+01 -0.15691993744E+02  0.16378368926E+02  0.51100000000E-03 0.  1.
         12    1    4    4    0    0 -0.11804049744E+02  0.12178472631E+02 -0.12444954246E+02  0.21036341701E+02  0.00000000000E+00 0. -1.
</event>
<event>
 8    1  0.2504019E-006  0.9118800E+02  0.7816164E-02  0.1184000E+00
        -11   -1    0    0    0    0  0.00000000000E+00  0.00000000000E+00  0.45593999997E+02  0.45594000000E+02  0.51100000000E-03 0. -1.
         11   -1    0    0    0    0 -0.00000000000E+00 -0.00000000000E+00 -0.45593999997E+02  0.45594000000E+02  0.51100000000E-03 0.  1.
         23    2    1    2    0    0  0.00000000000E+00  0.17763568394E-14 -0.11102230246E-15  0.91188000000E+02  0.91188000000E+02 0.  0.
    9900012    2    3    3    0    0  0.35288865802E+02  0.10487930216E+02 -0.69053092448E+00  0.54367115128E+02  0.40000070557E+02 0.  0.
         12    1    3    3    0    0 -0.35288865802E+02 -0.10487930216E+02  0.69053092448E+00  0.36820884872E+02  0.00000000000E+00 0. -1.
         11    1    4    4    0    0  0.22659415982E+02  0.11852596808E+01  0.22325973374E+01  0.22799966322E+02  0.51100000000E-03 0. -1.
        -11    1    4    4    0    0  0.17927404050E+02  0.95354169827E+01 -0.10071830868E+02  0.22666225321E+02  0.51100000000E-03 0.  1.
         12    1    4    4    0    0 -0.52979542298E+01 -0.23274644770E+00  0.71487026062E+01  0.89009234848E+01  0.00000000000E+00 0. -1.
</event>
<event>
 8    1  0.2504019E-006  0.9118800E+02  0.7816164E-02  0.1184000E+00
        -11   -1    0    0    0    0  0.00000000000E+00  0.00000000000E+00  0.45593999997E+02  0.45594000000E+02  0.51100000000E-03 0.  1.
         11   -1    0    0    0    0 -0.00000000000E+00 -0.00000000000E+00 -0.45593999997E+02  0.45594000000E+02  0.51100000000E-03 0. -1.
         23    2    1    2    0    0  0.00000000000E+00  0.35527136788E-14  0.00000000000E+00  0.91188000000E+02  0.91188000000E+02 0.  0.
    9900012    2    3    3    0    0 -0.16924672935E+02  0.21255406017E+02 -0.24850411469E+02  0.54367084896E+02  0.40000001637E+02 0.  0.
        -12    1    3    3    0    0  0.16924672935E+02 -0.21255406017E+02  0.24850411469E+02  0.36820915104E+02  0.00000000000E+00 0.  1.
         11    1    4    4    0    0  0.15038812060E+01  0.11678280267E+01 -0.62065330128E+01  0.64920361430E+01  0.51100000000E-03 0. -1.
        -11    1    4    4    0    0 -0.15948910876E+01  0.10959209139E+02 -0.25287237303E+02  0.27606019510E+02  0.51100000000E-03 0.  1.
        -12    1    4    4    0    0 -0.16833663053E+02  0.91283688519E+01  0.66433588463E+01  0.20269029243E+02  0.00000000000E+00 0.  1.
</event>
<event>
 8    1  0.2504019E-006  0.9118800E+02  0.7816164E-02  0.1184000E+00
        -11   -1    0    0    0    0  0.00000000000E+00  0.00000000000E+00  0.45593999997E+02  0.45594000000E+02  0.51100000000E-03 0.  1.
         11   -1    0    0    0    0 -0.00000000000E+00 -0.00000000000E+00 -0.45593999997E+02  0.45594000000E+02  0.51100000000E-03 0. -1.
         23    2    1    2    0    0  0.35527136788E-14  0.17763568394E-14  0.00000000000E+00  0.91188000000E+02  0.91188000000E+02 0.  0.
    9900012    2    3    3    0    0 -0.31109604349E+02  0.67252614489E+01  0.18513323356E+02  0.54367085210E+02  0.40000002353E+02 0.  0.
         12    1    3    3    0    0  0.31109604349E+02 -0.67252614489E+01 -0.18513323356E+02  0.36820914790E+02  0.00000000000E+00 0. -1.
         11    1    4    4    0    0 -0.10094632862E+02 -0.25198979235E+01  0.96181162738E+01  0.14168968172E+02  0.51100000000E-03 0. -1.
        -11    1    4    4    0    0 -0.25582507235E+02 -0.32232727610E+01  0.74590095090E+01  0.26841963170E+02  0.51100000000E-03 0.  1.
         12    1    4    4    0    0  0.45675357471E+01  0.12468432133E+02  0.14361975731E+01  0.13356153868E+02  0.00000000000E+00 0. -1.
</event>
<event>
 8    1  0.2504019E-006  0.9118800E+02  0.7816164E-02  0.1184000E+00
        -11   -1    0    0    0    0  0.00000000000E+00  0.00000000000E+00  0.45593999997E+02  0.45594000000E+02  0.51100000000E-03 0. -1.
         11   -1    0    0    0    0 -0.00000000000E+00 -0.00000000000E+00 -0.45593999997E+02  0.45594000000E+02  0.51100000000E-03 0.  1.
         23    2    1    2    0    0  0.00000000000E+00 -0.35527136788E-14  0.88817841970E-15  0.91188000000E+02  0.91188000000E+02 0.  0.
    9900012    2    3    3    0    0 -0.17917801588E+02 -0.31623216454E+02 -0.58911230254E+01  0.54367071669E+02  0.39999971485E+02 0.  0.
         12    1    3    3    0    0  0.17917801588E+02  0.31623216454E+02  0.58911230254E+01  0.36820928331E+02  0.00000000000E+00 0. -1.
         11    1    4    4    0    0 -0.87043983718E+01  0.26263683153E+01  0.82176929022E+01  0.12255400379E+02  0.51100000000E-03 0. -1.
        -11    1    4    4    0    0 -0.13514987592E+02 -0.17025309004E+02 -0.57270486843E+01  0.22479215359E+02  0.51100000000E-03 0.  1.
         12    1    4    4    0    0  0.43015843758E+01 -0.17224275765E+02 -0.83817672433E+01  0.19632455932E+02  0.00000000000E+00 0. -1.
</event>
<event>
 8    1  0.2504019E-006  0.9118800E+02  0.7816164E-02  0.1184000E+00
        -11   -1    0    0    0    0  0.00000000000E+00  0.00000000000E+00  0.45593999997E+02  0.45594000000E+02  0.51100000000E-03 0.  1.
         11   -1    0    0    0    0 -0.00000000000E+00 -0.00000000000E+00 -0.45593999997E+02  0.45594000000E+02  0.51100000000E-03 0. -1.
         23    2    1    2    0    0  0.35527136788E-14  0.88817841970E-15  0.71054273576E-14  0.91188000000E+02  0.91188000000E+02 0.  0.
    9900012    2    3    3    0    0  0.28335189768E+02 -0.62557892577E+01  0.22666324498E+02  0.54367080068E+02  0.39999990631E+02 0.  0.
        -12    1    3    3    0    0 -0.28335189768E+02  0.62557892577E+01 -0.22666324498E+02  0.36820919932E+02  0.00000000000E+00 0.  1.
         11    1    4    4    0    0 -0.17725956571E+00 -0.22467583242E+01  0.44667424350E+01  0.50031122477E+01  0.51100000000E-03 0. -1.
        -11    1    4    4    0    0  0.54783541074E+01  0.14923256756E+02  0.83926180427E+01  0.17976428839E+02  0.51100000000E-03 0.  1.
         12    1    4    4    0    0  0.23034095226E+02 -0.18932287689E+02  0.98069640199E+01  0.31387538981E+02  0.00000000000E+00 0. -1.
</event>
<event>
 8    1  0.2504019E-006  0.9118800E+02  0.7816164E-02  0.1184000E+00
        -11   -1    0    0    0    0  0.00000000000E+00  0.00000000000E+00  0.45593999997E+02  0.45594000000E+02  0.51100000000E-03 0.  1.
         11   -1    0    0    0    0 -0.00000000000E+00 -0.00000000000E+00 -0.45593999997E+02  0.45594000000E+02  0.51100000000E-03 0. -1.
         23    2    1    2    0    0  0.71054273576E-14  0.00000000000E+00  0.00000000000E+00  0.91188000000E+02  0.91188000000E+02 0.  0.
    9900012    2    3    3    0    0  0.19031313256E+02 -0.21755974259E+02  0.22809431213E+02  0.54367035150E+02  0.39999888232E+02 0.  0.
         12    1    3    3    0    0 -0.19031313256E+02  0.21755974259E+02 -0.22809431213E+02  0.36820964850E+02  0.00000000000E+00 0. -1.
         11    1    4    4    0    0  0.82696226114E+01 -0.13070227972E+02  0.20681702362E+01  0.15604321381E+02  0.51100000000E-03 0. -1.
        -11    1    4    4    0    0 -0.55964681071E+01 -0.14368330103E+02  0.92947305782E+01  0.18004482276E+02  0.51100000000E-03 0.  1.
        -12    1    4    4    0    0  0.16358158752E+02  0.56825838166E+01  0.11446530398E+02  0.20758231493E+02  0.00000000000E+00 0.  1.
</event>
<event>
 8    1  0.2504019E-006  0.9118800E+02  0.7816164E-02  0.1184000E+00
        -11   -1    0    0    0    0  0.00000000000E+00  0.00000000000E+00  0.45593999997E+02  0.45594000000E+02  0.51100000000E-03 0.  1.
         11   -1    0    0    0    0 -0.00000000000E+00 -0.00000000000E+00 -0.45593999997E+02  0.45594000000E+02  0.51100000000E-03 0. -1.
         23    2    1    2    0    0  0.00000000000E+00  0.35527136788E-14  0.00000000000E+00  0.91188000000E+02  0.91188000000E+02 0.  0.
    9900012    2    3    3    0    0  0.30166588465E+02 -0.19360137607E+02 -0.84227039375E+01  0.54367082991E+02  0.39999997294E+02 0.  0.
         12    1    3    3    0    0 -0.30166588465E+02  0.19360137607E+02  0.84227039375E+01  0.36820917009E+02  0.00000000000E+00 0. -1.
         11    1    4    4    0    0  0.12753391540E+00 -0.85811613526E+01  0.63106036727E+01  0.10652526181E+02  0.51100000000E-03 0. -1.
        -11    1    4    4    0    0  0.19713104907E+02 -0.19349127176E+02 -0.11437142101E+02  0.29896545741E+02  0.51100000000E-03 0.  1.
        -12    1    4    4    0    0  0.10325949643E+02  0.85701509212E+01 -0.32961655091E+01  0.13818011069E+02  0.00000000000E+00 0.  1.
</event>
<event>
 8    1  0.2504019E-006  0.9118800E+02  0.7816164E-02  0.1184000E+00
        -11   -1    0    0    0    0  0.00000000000E+00  0.00000000000E+00  0.45593999997E+02  0.45594000000E+02  0.51100000000E-03 0. -1.
         11   -1    0    0    0    0 -0.00000000000E+00 -0.00000000000E+00 -0.45593999997E+02  0.45594000000E+02  0.51100000000E-03 0.  1.
         23    2    1    2    0    0 -0.35527136788E-14  0.00000000000E+00  0.17763568394E-14  0.91188000000E+02  0.91188000000E+02 0.  0.
    9900012    2    3    3    0    0  0.31825386107E+02 -0.18038906779E+02 -0.41862555612E+01  0.54367053594E+02  0.39999930278E+02 0.  0.
         12    1    3    3    0    0 -0.31825386107E+02  0.18038906779E+02  0.41862555612E+01  0.36820946406E+02  0.00000000000E+00 0. -1.
         11    1    4    4    0    0  0.29511935473E+01 -0.14544274589E+02 -0.86175428183E+01  0.17161221144E+02  0.51100000000E-03 0. -1.
        -11    1    4    4    0    0  0.75047514538E+01 -0.28817912384E+01 -0.89144576276E+01  0.12003898124E+02  0.51100000000E-03 0.  1.
         12    1    4    4    0    0  0.21369441106E+02 -0.61284095144E+00  0.13345744885E+02  0.25201934325E+02  0.00000000000E+00 0. -1.
</event>
<event>
 8    1  0.2504019E-006  0.9118800E+02  0.7816164E-02  0.1184000E+00
        -11   -1    0    0    0    0  0.00000000000E+00  0.00000000000E+00  0.45593999997E+02  0.45594000000E+02  0.51100000000E-03 0.  1.
         11   -1    0    0    0    0 -0.00000000000E+00 -0.00000000000E+00 -0.45593999997E+02  0.45594000000E+02  0.51100000000E-03 0. -1.
         23    2    1    2    0    0 -0.71054273576E-14 -0.35527136788E-14 -0.71054273576E-14  0.91188000000E+02  0.91188000000E+02 0.  0.
    9900012    2    3    3    0    0 -0.22136078352E+02 -0.21357123073E+02 -0.20239740603E+02  0.54367085150E+02  0.40000002216E+02 0.  0.
        -12    1    3    3    0    0  0.22136078352E+02  0.21357123073E+02  0.20239740603E+02  0.36820914850E+02  0.00000000000E+00 0.  1.
         11    1    4    4    0    0 -0.17059848718E+02 -0.49146196875E+01 -0.25155912348E+02  0.30789801092E+02  0.51100000000E-03 0. -1.
        -11    1    4    4    0    0 -0.27813936090E+01  0.92467129378E+00 -0.31400619597E+01  0.42954809722E+01  0.51100000000E-03 0.  1.
        -12    1    4    4    0    0 -0.22948360253E+01 -0.17367174679E+02  0.80562337054E+01  0.19281803086E+02  0.00000000000E+00 0.  1.
</event>
<event>
 8    1  0.2504019E-006  0.9118800E+02  0.7816164E-02  0.1184000E+00
        -11   -1    0    0    0    0  0.00000000000E+00  0.00000000000E+00  0.45593999997E+02  0.45594000000E+02  0.51100000000E-03 0.  1.
         11   -1    0    0    0    0 -0.00000000000E+00 -0.00000000000E+00 -0.45593999997E+02  0.45594000000E+02  0.51100000000E-03 0. -1.
         23    2    1    2    0    0 -0.35527136788E-14  0.88817841970E-15  0.35527136788E-14  0.91188000000E+02  0.91188000000E+02 0.  0.
    9900012    2    3    3    0    0  0.24005618342E+02 -0.23723471547E+01  0.27818706874E+02  0.54367106541E+02  0.40000050981E+02 0.  0.
         12    1    3    3    0    0 -0.24005618342E+02  0.23723471547E+01 -0.27818706874E+02  0.36820893459E+02  0.00000000000E+00 0. -1.
         11    1    4    4    0    0  0.85246346585E+01  0.11874121221E+02  0.92682423039E+01  0.17307930740E+02  0.51100000000E-03 0. -1.
        -11    1    4    4    0    0 -0.32956229767E+00  0.59321464798E+01  0.10839620482E+01  0.60393664526E+01  0.51100000000E-03 0.  1.
        -12    1    4    4    0    0  0.15810545981E+02 -0.20178614855E+02  0.17466502522E+02  0.31019809349E+02  0.00000000000E+00 0.  1.
</event>
<event>
 8    1  0.2504019E-006  0.9118800E+02  0.7816164E-02  0.1184000E+00
        -11   -1    0    0    0    0  0.00000000000E+00  0.00000000000E+00  0.45593999997E+02  0.45594000000E+02  0.51100000000E-03 0.  1.
         11   -1    0    0    0    0 -0.00000000000E+00 -0.00000000000E+00 -0.45593999997E+02  0.45594000000E+02  0.51100000000E-03 0. -1.
         23    2    1    2    0    0  0.00000000000E+00 -0.35527136788E-14  0.00000000000E+00  0.91188000000E+02  0.91188000000E+02 0.  0.
    9900012    2    3    3    0    0  0.28267245410E+02  0.20756808531E+02 -0.11220497939E+02  0.54367057081E+02  0.39999938228E+02 0.  0.
        -12    1    3    3    0    0 -0.28267245410E+02 -0.20756808531E+02  0.11220497939E+02  0.36820942919E+02  0.00000000000E+00 0.  1.
         11    1    4    4    0    0  0.18152436630E+02  0.15646195980E+02 -0.77269110662E+01  0.25179745017E+02  0.51100000000E-03 0. -1.
        -11    1    4    4    0    0  0.17194667330E+02  0.38804555890E+01  0.47455739941E+01  0.18254725223E+02  0.51100000000E-03 0.  1.
         12    1    4    4    0    0 -0.70798585505E+01  0.12301569617E+01 -0.82391608671E+01  0.10932586841E+02  0.00000000000E+00 0. -1.
</event>
<event>
 8    1  0.2504019E-006  0.9118800E+02  0.7816164E-02  0.1184000E+00
        -11   -1    0    0    0    0  0.00000000000E+00  0.00000000000E+00  0.45593999997E+02  0.45594000000E+02  0.51100000000E-03 0.  1.
         11   -1    0    0    0    0 -0.00000000000E+00 -0.00000000000E+00 -0.45593999997E+02  0.45594000000E+02  0.51100000000E-03 0. -1.
         23    2    1    2    0    0 -0.35527136788E-14 -0.11102230246E-14  0.71054273576E-14  0.91188000000E+02  0.91188000000E+02 0.  0.
    9900012    2    3    3    0    0 -0.12276369538E+02 -0.18979169948E+01  0.34662194041E+02  0.54367095153E+02  0.40000025021E+02 0.  0.
         12    1    3    3    0    0  0.12276369538E+02  0.18979169948E+01 -0.34662194041E+02  0.36820904847E+02  0.00000000000E+00 0. -1.
         11    1    4    4    0    0 -0.35896067775E+01  0.39966714092E+01 -0.78718300226E+01  0.95301819152E+01  0.51100000000E-03 0. -1.
        -11    1    4    4    0    0 -0.52687923218E+00 -0.56246940827E+01  0.22608158413E+02  0.23303296169E+02  0.51100000000E-03 0.  1.
         12    1    4    4    0    0 -0.81598835283E+01 -0.26989432131E+00  0.19925865651E+02  0.21533617069E+02  0.00000000000E+00 0. -1.
</event>
<event>
 8    1  0.2504019E-006  0.9118800E+02  0.7816164E-02  0.1184000E+00
        -11   -1    0    0    0    0  0.00000000000E+00  0.00000000000E+00  0.45593999997E+02  0.45594000000E+02  0.51100000000E-03 0. -1.
         11   -1    0    0    0    0 -0.00000000000E+00 -0.00000000000E+00 -0.45593999997E+02  0.45594000000E+02  0.51100000000E-03 0.  1.
         23    2    1    2    0    0  0.00000000000E+00  0.17763568394E-14  0.71054273576E-14  0.91188000000E+02  0.91188000000E+02 0.  0.
    9900012    2    3    3    0    0 -0.94250733132E+01  0.14767060333E+02 -0.32386447976E+02  0.54367080806E+02  0.39999992313E+02 0.  0.
         12    1    3    3    0    0  0.94250733132E+01 -0.14767060333E+02  0.32386447976E+02  0.36820919194E+02  0.00000000000E+00 0. -1.
         11    1    4    4    0    0  0.11108579298E+02  0.71646505399E+01 -0.91338685511E+01  0.16067367748E+02  0.51100000000E-03 0. -1.
        -11    1    4    4    0    0 -0.10119584725E+02 -0.71142209530E+01 -0.10364028205E+02  0.16137881387E+02  0.51100000000E-03 0.  1.
        -12    1    4    4    0    0 -0.10414067887E+02  0.14716630746E+02 -0.12888551219E+02  0.22161831671E+02  0.00000000000E+00 0.  1.
</event>
<event>
 8    1  0.2504019E-006  0.9118800E+02  0.7816164E-02  0.1184000E+00
        -11   -1    0    0    0    0  0.00000000000E+00  0.00000000000E+00  0.45593999997E+02  0.45594000000E+02  0.51100000000E-03 0. -1.
         11   -1    0    0    0    0 -0.00000000000E+00 -0.00000000000E+00 -0.45593999997E+02  0.45594000000E+02  0.51100000000E-03 0.  1.
         23    2    1    2    0    0  0.00000000000E+00 -0.17763568394E-14 -0.35527136788E-14  0.91188000000E+02  0.91188000000E+02 0.  0.
    9900012    2    3    3    0    0  0.19636234149E+02 -0.85051442898E+01 -0.29964316347E+02  0.54367089839E+02  0.40000012906E+02 0.  0.
         12    1    3    3    0    0 -0.19636234149E+02  0.85051442898E+01  0.29964316347E+02  0.36820910161E+02  0.00000000000E+00 0. -1.
         11    1    4    4    0    0  0.41860663855E+01 -0.22272024283E+01  0.31227288268E+01  0.56775891034E+01  0.51100000000E-03 0. -1.
        -11    1    4    4    0    0  0.18351395871E+00 -0.17039263640E+02 -0.16004531767E+02  0.23377664984E+02  0.51100000000E-03 0.  1.
         12    1    4    4    0    0  0.15266653805E+02  0.10761321778E+02 -0.17082513407E+02  0.25311835751E+02  0.00000000000E+00 0. -1.
</event>
<event>
 8    1  0.2504019E-006  0.9118800E+02  0.7816164E-02  0.1184000E+00
        -11   -1    0    0    0    0  0.00000000000E+00  0.00000000000E+00  0.45593999997E+02  0.45594000000E+02  0.51100000000E-03 0.  1.
         11   -1    0    0    0    0 -0.00000000000E+00 -0.00000000000E+00 -0.45593999997E+02  0.45594000000E+02  0.51100000000E-03 0. -1.
         23    2    1    2    0    0  0.00000000000E+00  0.00000000000E+00  0.00000000000E+00  0.91188000000E+02  0.91188000000E+02 0.  0.
    9900012    2    3    3    0    0  0.14318342828E+02 -0.17563510528E+02  0.29022189467E+02  0.54367091200E+02  0.40000016009E+02 0.  0.
         12    1    3    3    0    0 -0.14318342828E+02  0.17563510528E+02 -0.29022189467E+02  0.36820908800E+02  0.00000000000E+00 0. -1.
         11    1    4    4    0    0 -0.63493198942E+01 -0.12050833658E+01 -0.40484356107E+01  0.76260028975E+01  0.51100000000E-03 0. -1.
        -11    1    4    4    0    0  0.20364503675E+02 -0.49589342644E+01  0.16745478850E+02  0.26827506428E+02  0.51100000000E-03 0.  1.
         12    1    4    4    0    0  0.30315904677E+00 -0.11399492898E+02  0.16325146227E+02  0.19913581875E+02  0.00000000000E+00 0. -1.
</event>
<event>
 8    1  0.2504019E-006  0.9118800E+02  0.7816164E-02  0.1184000E+00
        -11   -1    0    0    0    0  0.00000000000E+00  0.00000000000E+00  0.45593999997E+02  0.45594000000E+02  0.51100000000E-03 0.  1.
         11   -1    0    0    0    0 -0.00000000000E+00 -0.00000000000E+00 -0.45593999997E+02  0.45594000000E+02  0.51100000000E-03 0. -1.
         23    2    1    2    0    0  0.35527136788E-14 -0.88817841970E-15  0.35527136788E-14  0.91188000000E+02  0.91188000000E+02 0.  0.
    9900012    2    3    3    0    0  0.27690467660E+02 -0.55865108980E+00 -0.24263282107E+02  0.54367069147E+02  0.39999965735E+02 0.  0.
        -12    1    3    3    0    0 -0.27690467660E+02  0.55865108980E+00  0.24263282107E+02  0.36820930853E+02  0.00000000000E+00 0.  1.
         11    1    4    4    0    0  0.20665605019E+02 -0.13222858275E+01 -0.19763572501E+02  0.28625416484E+02  0.51100000000E-03 0. -1.
        -11    1    4    4    0    0  0.71840475672E+01  0.11980879368E+02 -0.39156824433E+01  0.14508086681E+02  0.51100000000E-03 0.  1.
        -12    1    4    4    0    0 -0.15918492658E+00 -0.11217244631E+02 -0.58402716281E+00  0.11233565982E+02  0.00000000000E+00 0.  1.
</event>
<event>
 8    1  0.2504019E-006  0.9118800E+02  0.7816164E-02  0.1184000E+00
        -11   -1    0    0    0    0  0.00000000000E+00  0.00000000000E+00  0.45593999997E+02  0.45594000000E+02  0.51100000000E-03 0.  1.
         11   -1    0    0    0    0 -0.00000000000E+00 -0.00000000000E+00 -0.45593999997E+02  0.45594000000E+02  0.51100000000E-03 0. -1.
         23    2    1    2    0    0 -0.26645352591E-14  0.00000000000E+00  0.00000000000E+00  0.91188000000E+02  0.91188000000E+02 0.  0.
    9900012    2    3    3    0    0  0.67419508288E+01  0.28310205300E+02 -0.22557878677E+02  0.54367088611E+02  0.40000010107E+02 0.  0.
        -12    1    3    3    0    0 -0.67419508288E+01 -0.28310205300E+02  0.22557878677E+02  0.36820911389E+02  0.00000000000E+00 0.  1.
         11    1    4    4    0    0  0.20462406643E+02  0.17611288567E+02 -0.16254423660E+02  0.31513074420E+02  0.51100000000E-03 0. -1.
        -11    1    4    4    0    0 -0.84810591695E+01  0.32138206409E+01  0.32505249701E+01  0.96344652467E+01  0.51100000000E-03 0.  1.
         12    1    4    4    0    0 -0.52393966446E+01  0.74850960913E+01 -0.95539799875E+01  0.13219548945E+02  0.00000000000E+00 0. -1.
</event>
<event>
 8    1  0.2504019E-006  0.9118800E+02  0.7816164E-02  0.1184000E+00
        -11   -1    0    0    0    0  0.00000000000E+00  0.00000000000E+00  0.45593999997E+02  0.45594000000E+02  0.51100000000E-03 0.  1.
         11   -1    0    0    0    0 -0.00000000000E+00 -0.00000000000E+00 -0.45593999997E+02  0.45594000000E+02  0.51100000000E-03 0. -1.
         23    2    1    2    0    0  0.71054273576E-14  0.17763568394E-14 -0.17763568394E-14  0.91188000000E+02  0.91188000000E+02 0.  0.
    9900012    2    3    3    0    0 -0.31194724475E+02 -0.15081625987E+02  0.12458501605E+02  0.54367074703E+02  0.39999978401E+02 0.  0.
         12    1    3    3    0    0  0.31194724475E+02  0.15081625987E+02 -0.12458501605E+02  0.36820925297E+02  0.00000000000E+00 0. -1.
         11    1    4    4    0    0  0.47318807070E+01  0.42708441443E+00  0.58566611504E+00  0.47870764754E+01  0.51100000000E-03 0. -1.
        -11    1    4    4    0    0 -0.64843379289E+01 -0.15351835828E+02 -0.24399147663E+01  0.16842763609E+02  0.51100000000E-03 0.  1.
        -12    1    4    4    0    0 -0.29442267253E+02 -0.15687457440E+00  0.14312750256E+02  0.32737234619E+02  0.00000000000E+00 0.  1.
</event>
<event>
 8    1  0.2504019E-006  0.9118800E+02  0.7816164E-02  0.1184000E+00
        -11   -1    0    0    0    0  0.00000000000E+00  0.00000000000E+00  0.45593999997E+02  0.45594000000E+02  0.51100000000E-03 0. -1.
         11   -1    0    0    0    0 -0.00000000000E+00 -0.00000000000E+00 -0.45593999997E+02  0.45594000000E+02  0.51100000000E-03 0.  1.
         23    2    1    2    0    0  0.35527136788E-14  0.35527136788E-14  0.00000000000E+00  0.91188000000E+02  0.91188000000E+02 0.  0.
    9900012    2    3    3    0    0 -0.25158830721E+02 -0.26540494138E+02 -0.42913101137E+01  0.54367082917E+02  0.39999997127E+02 0.  0.
         12    1    3    3    0    0  0.25158830721E+02  0.26540494138E+02  0.42913101137E+01  0.36820917083E+02  0.00000000000E+00 0. -1.
         11    1    4    4    0    0  0.44888464170E+01  0.32262492101E+01  0.19525078293E+01  0.58626541094E+01  0.51100000000E-03 0. -1.
        -11    1    4    4    0    0 -0.28039696334E+02 -0.12469422328E+02 -0.49551522891E+01  0.31084796898E+02  0.51100000000E-03 0.  1.
         12    1    4    4    0    0 -0.16079808039E+01 -0.17297321019E+02 -0.12886656539E+01  0.17419631910E+02  0.00000000000E+00 0. -1.
</event>
<event>
 8    1  0.2504019E-006  0.9118800E+02  0.7816164E-02  0.1184000E+00
        -11   -1    0    0    0    0  0.00000000000E+00  0.00000000000E+00  0.45593999997E+02  0.45594000000E+02  0.51100000000E-03 0.  1.
         11   -1    0    0    0    0 -0.00000000000E+00 -0.00000000000E+00 -0.45593999997E+02  0.45594000000E+02  0.51100000000E-03 0. -1.
         23    2    1    2    0    0 -0.35527136788E-14 -0.17763568394E-14 -0.35527136788E-14  0.91188000000E+02  0.91188000000E+02 0.  0.
    9900012    2    3    3    0    0  0.27569738922E+02  0.11279617887E+02  0.21643595809E+02  0.54367278613E+02  0.40000443251E+02 0.  0.
        -12    1    3    3    0    0 -0.27569738922E+02 -0.11279617887E+02 -0.21643595809E+02  0.36820721387E+02  0.00000000000E+00 0.  1.
         11    1    4    4    0    0 -0.31467678771E+01  0.28496435647E+01 -0.88964000464E+01  0.98574109463E+01  0.51100000000E-03 0. -1.
        -11    1    4    4    0    0  0.18513555955E+02  0.33948708716E+01  0.14648863822E+02  0.23850914319E+02  0.51100000000E-03 0.  1.
         12    1    4    4    0    0  0.12202950845E+02  0.50351034510E+01  0.15891132034E+02  0.20658953347E+02  0.00000000000E+00 0. -1.
</event>
<event>
 8    1  0.2504019E-006  0.9118800E+02  0.7816164E-02  0.1184000E+00
        -11   -1    0    0    0    0  0.00000000000E+00  0.00000000000E+00  0.45593999997E+02  0.45594000000E+02  0.51100000000E-03 0.  1.
         11   -1    0    0    0    0 -0.00000000000E+00 -0.00000000000E+00 -0.45593999997E+02  0.45594000000E+02  0.51100000000E-03 0. -1.
         23    2    1    2    0    0 -0.88817841970E-15  0.00000000000E+00 -0.17763568394E-14  0.91188000000E+02  0.91188000000E+02 0.  0.
    9900012    2    3    3    0    0  0.27725712060E+01  0.35647747723E+02 -0.87939412565E+01  0.54367048469E+02  0.39999918595E+02 0.  0.
        -12    1    3    3    0    0 -0.27725712060E+01 -0.35647747723E+02  0.87939412565E+01  0.36820951531E+02  0.00000000000E+00 0.  1.
         11    1    4    4    0    0  0.26167286766E+01  0.29971891260E+02 -0.54125626365E+01  0.30568895453E+02  0.51100000000E-03 0. -1.
        -11    1    4    4    0    0  0.83657329709E+01  0.96233296028E+01 -0.63130379390E+01  0.14228436635E+02  0.51100000000E-03 0.  1.
         12    1    4    4    0    0 -0.82098904415E+01 -0.39474731400E+01  0.29316593190E+01  0.95697163811E+01  0.00000000000E+00 0. -1.
</event>
<event>
 8    1  0.2504019E-006  0.9118800E+02  0.7816164E-02  0.1184000E+00
        -11   -1    0    0    0    0  0.00000000000E+00  0.00000000000E+00  0.45593999997E+02  0.45594000000E+02  0.51100000000E-03 0.  1.
         11   -1    0    0    0    0 -0.00000000000E+00 -0.00000000000E+00 -0.45593999997E+02  0.45594000000E+02  0.51100000000E-03 0. -1.
         23    2    1    2    0    0  0.19984014443E-14 -0.35527136788E-14  0.00000000000E+00  0.91188000000E+02  0.91188000000E+02 0.  0.
    9900012    2    3    3    0    0  0.13801828741E+01  0.29231884097E+02 -0.22346616493E+02  0.54367092606E+02  0.40000019214E+02 0.  0.
        -12    1    3    3    0    0 -0.13801828741E+01 -0.29231884097E+02  0.22346616493E+02  0.36820907394E+02  0.00000000000E+00 0.  1.
         11    1    4    4    0    0 -0.66505106520E+01  0.13209970354E+02 -0.19670380518E+01  0.14919847440E+02  0.51100000000E-03 0. -1.
        -11    1    4    4    0    0  0.40386130637E+01 -0.70159354498E+01  0.48555386967E+00  0.81098402287E+01  0.51100000000E-03 0.  1.
         12    1    4    4    0    0  0.39920804625E+01  0.23037849193E+02 -0.20865132311E+02  0.31337404937E+02  0.00000000000E+00 0. -1.
</event>
<event>
 8    1  0.2504019E-006  0.9118800E+02  0.7816164E-02  0.1184000E+00
        -11   -1    0    0    0    0  0.00000000000E+00  0.00000000000E+00  0.45593999997E+02  0.45594000000E+02  0.51100000000E-03 0.  1.
         11   -1    0    0    0    0 -0.00000000000E+00 -0.00000000000E+00 -0.45593999997E+02  0.45594000000E+02  0.51100000000E-03 0. -1.
         23    2    1    2    0    0 -0.17763568394E-14  0.00000000000E+00  0.00000000000E+00  0.91188000000E+02  0.91188000000E+02 0.  0.
    9900012    2    3    3    0    0 -0.40826184728E+01  0.26233362482E+02  0.25513098598E+02  0.54367146116E+02  0.40000141200E+02 0.  0.
         12    1    3    3    0    0  0.40826184728E+01 -0.26233362482E+02 -0.25513098598E+02  0.36820853884E+02  0.00000000000E+00 0. -1.
         11    1    4    4    0    0 -0.14050685439E+01  0.26281498782E+01 -0.44074526950E+01  0.53204350307E+01  0.51100000000E-03 0. -1.
        -11    1    4    4    0    0 -0.97021111513E+01  0.28330450529E+01  0.24435458905E+02  0.26443312146E+02  0.51100000000E-03 0.  1.
         12    1    4    4    0    0  0.70245612224E+01  0.20772167551E+02  0.54850923873E+01  0.22603398940E+02  0.00000000000E+00 0. -1.
</event>
<event>
 8    1  0.2504019E-006  0.9118800E+02  0.7816164E-02  0.1184000E+00
        -11   -1    0    0    0    0  0.00000000000E+00  0.00000000000E+00  0.45593999997E+02  0.45594000000E+02  0.51100000000E-03 0. -1.
         11   -1    0    0    0    0 -0.00000000000E+00 -0.00000000000E+00 -0.45593999997E+02  0.45594000000E+02  0.51100000000E-03 0.  1.
         23    2    1    2    0    0  0.00000000000E+00 -0.17763568394E-14 -0.17763568394E-14  0.91188000000E+02  0.91188000000E+02 0.  0.
    9900012    2    3    3    0    0  0.35716700172E+02 -0.29942305200E+01  0.84339455955E+01  0.54367088470E+02  0.40000009786E+02 0.  0.
        -12    1    3    3    0    0 -0.35716700172E+02  0.29942305200E+01 -0.84339455955E+01  0.36820911530E+02  0.00000000000E+00 0.  1.
         11    1    4    4    0    0  0.18017924758E+02 -0.23794913997E+01  0.67583166161E+01  0.19390266519E+02  0.51100000000E-03 0. -1.
        -11    1    4    4    0    0  0.12009965306E+02  0.11000585196E+02  0.10447202444E+02  0.19349319897E+02  0.51100000000E-03 0.  1.
        -12    1    4    4    0    0  0.56888101070E+01 -0.11615324317E+02 -0.87715734645E+01  0.15627502054E+02  0.00000000000E+00 0.  1.
</event>
<event>
 8    1  0.2504019E-006  0.9118800E+02  0.7816164E-02  0.1184000E+00
        -11   -1    0    0    0    0  0.00000000000E+00  0.00000000000E+00  0.45593999997E+02  0.45594000000E+02  0.51100000000E-03 0.  1.
         11   -1    0    0    0    0 -0.00000000000E+00 -0.00000000000E+00 -0.45593999997E+02  0.45594000000E+02  0.51100000000E-03 0. -1.
         23    2    1    2    0    0 -0.17763568394E-14 -0.35527136788E-14  0.00000000000E+00  0.91188000000E+02  0.91188000000E+02 0.  0.
    9900012    2    3    3    0    0  0.81108874201E+01 -0.29178676634E+02  0.20942780604E+02  0.54367058618E+02  0.39999941732E+02 0.  0.
        -12    1    3    3    0    0 -0.81108874201E+01  0.29178676634E+02 -0.20942780604E+02  0.36820941382E+02  0.00000000000E+00 0.  1.
         11    1    4    4    0    0 -0.40568201104E+01 -0.13727955242E+02  0.75964557132E+01  0.16205575714E+02  0.51100000000E-03 0. -1.
        -11    1    4    4    0    0  0.17749243182E+02 -0.13001018249E+02  0.19573196044E+02  0.29447786210E+02  0.51100000000E-03 0.  1.
        -12    1    4    4    0    0 -0.55815356518E+01 -0.24497031425E+01 -0.62268711535E+01  0.87136966944E+01  0.00000000000E+00 0.  1.
</event>
<event>
 8    1  0.2504019E-006  0.9118800E+02  0.7816164E-02  0.1184000E+00
        -11   -1    0    0    0    0  0.00000000000E+00  0.00000000000E+00  0.45593999997E+02  0.45594000000E+02  0.51100000000E-03 0.  1.
         11   -1    0    0    0    0 -0.00000000000E+00 -0.00000000000E+00 -0.45593999997E+02  0.45594000000E+02  0.51100000000E-03 0. -1.
         23    2    1    2    0    0 -0.22204460493E-15  0.00000000000E+00  0.00000000000E+00  0.91188000000E+02  0.91188000000E+02 0.  0.
    9900012    2    3    3    0    0 -0.18045203299E+01 -0.35300482908E+02  0.10315029336E+02  0.54367079080E+02  0.39999988380E+02 0.  0.
         12    1    3    3    0    0  0.18045203299E+01  0.35300482908E+02 -0.10315029336E+02  0.36820920920E+02  0.00000000000E+00 0. -1.
         11    1    4    4    0    0  0.79064940643E+01 -0.16317858303E+02 -0.11625412623E+02  0.21539158919E+02  0.51100000000E-03 0. -1.
        -11    1    4    4    0    0 -0.46996589140E+01 -0.10099808178E+02  0.19313954800E+02  0.22296227695E+02  0.51100000000E-03 0.  1.
         12    1    4    4    0    0 -0.50113554803E+01 -0.88828164267E+01  0.26264871594E+01  0.10531692467E+02  0.00000000000E+00 0. -1.
</event>
<event>
 8    1  0.2504019E-006  0.9118800E+02  0.7816164E-02  0.1184000E+00
        -11   -1    0    0    0    0  0.00000000000E+00  0.00000000000E+00  0.45593999997E+02  0.45594000000E+02  0.51100000000E-03 0. -1.
         11   -1    0    0    0    0 -0.00000000000E+00 -0.00000000000E+00 -0.45593999997E+02  0.45594000000E+02  0.51100000000E-03 0.  1.
         23    2    1    2    0    0  0.00000000000E+00  0.00000000000E+00  0.00000000000E+00  0.91188000000E+02  0.91188000000E+02 0.  0.
    9900012    2    3    3    0    0 -0.19543765361E+02 -0.50249454930E+01 -0.30798920048E+02  0.54367050558E+02  0.39999923357E+02 0.  0.
         12    1    3    3    0    0  0.19543765361E+02  0.50249454930E+01  0.30798920048E+02  0.36820949442E+02  0.00000000000E+00 0. -1.
         11    1    4    4    0    0 -0.12694862532E+02  0.62967303478E+01  0.58065531220E+01  0.15314189734E+02  0.51100000000E-03 0. -1.
        -11    1    4    4    0    0 -0.56347534031E+01 -0.83906888553E+01 -0.31071296721E+02  0.32673836407E+02  0.51100000000E-03 0.  1.
         12    1    4    4    0    0 -0.12141494255E+01 -0.29309869856E+01 -0.55341764496E+01  0.63790244170E+01  0.00000000000E+00 0. -1.
</event>
<event>
 8    1  0.2504019E-006  0.9118800E+02  0.7816164E-02  0.1184000E+00
        -11   -1    0    0    0    0  0.00000000000E+00  0.00000000000E+00  0.45593999997E+02  0.45594000000E+02  0.51100000000E-03 0. -1.
         11   -1    0    0    0    0 -0.00000000000E+00 -0.00000000000E+00 -0.45593999997E+02  0.45594000000E+02  0.51100000000E-03 0.  1.
         23    2    1    2    0    0  0.00000000000E+00 -0.17763568394E-14  0.35527136788E-14  0.91188000000E+02  0.91188000000E+02 0.  0.
    9900012    2    3    3    0    0 -0.19420243564E+02  0.15227760754E+02  0.27326709842E+02  0.54367087077E+02  0.40000006610E+02 0.  0.
        -12    1    3    3    0    0  0.19420243564E+02 -0.15227760754E+02 -0.27326709842E+02  0.36820912923E+02  0.00000000000E+00 0.  1.
         11    1    4    4    0    0 -0.56120273481E+01  0.30886437317E+01 -0.66541542633E+01  0.92364679547E+01  0.51100000000E-03 0. -1.
        -11    1    4    4    0    0  0.33946789571E+00  0.59419908875E+01 -0.17505853443E+01  0.62037926680E+01  0.51100000000E-03 0.  1.
         12    1    4    4    0    0 -0.14147684111E+02  0.61971261343E+01  0.35731449450E+02  0.38926826455E+02  0.00000000000E+00 0. -1.
</event>
<event>
 8    1  0.2504019E-006  0.9118800E+02  0.7816164E-02  0.1184000E+00
        -11   -1    0    0    0    0  0.00000000000E+00  0.00000000000E+00  0.45593999997E+02  0.45594000000E+02  0.51100000000E-03 0.  1.
         11   -1    0    0    0    0 -0.00000000000E+00 -0.00000000000E+00 -0.45593999997E+02  0.45594000000E+02  0.51100000000E-03 0. -1.
         23    2    1    2    0    0  0.11102230246E-15  0.17763568394E-14  0.00000000000E+00  0.91188000000E+02  0.91188000000E+02 0.  0.
    9900012    2    3    3    0    0  0.40058229117E+00 -0.14539243775E+02  0.33826522757E+02  0.54367031551E+02  0.39999880026E+02 0.  0.
         12    1    3    3    0    0 -0.40058229117E+00  0.14539243775E+02 -0.33826522757E+02  0.36820968449E+02  0.00000000000E+00 0. -1.
         11    1    4    4    0    0 -0.66701056795E+01  0.10298423558E+02  0.50308996878E+01  0.13261138318E+02  0.51100000000E-03 0. -1.
        -11    1    4    4    0    0  0.16746377093E+01 -0.66799248167E+01  0.18069464273E+02  0.19337304527E+02  0.51100000000E-03 0.  1.
         12    1    4    4    0    0  0.53960502614E+01 -0.18157742517E+02  0.10726158796E+02  0.21768588706E+02  0.00000000000E+00 0. -1.
</event>
<event>
 8    1  0.2504019E-006  0.9118800E+02  0.7816164E-02  0.1184000E+00
        -11   -1    0    0    0    0  0.00000000000E+00  0.00000000000E+00  0.45593999997E+02  0.45594000000E+02  0.51100000000E-03 0.  1.
         11   -1    0    0    0    0 -0.00000000000E+00 -0.00000000000E+00 -0.45593999997E+02  0.45594000000E+02  0.51100000000E-03 0. -1.
         23    2    1    2    0    0  0.00000000000E+00  0.00000000000E+00  0.35527136788E-14  0.91188000000E+02  0.91188000000E+02 0.  0.
    9900012    2    3    3    0    0 -0.17946231669E+02  0.45880064632E+01  0.31822352238E+02  0.54367093760E+02  0.40000021844E+02 0.  0.
         12    1    3    3    0    0  0.17946231669E+02 -0.45880064632E+01 -0.31822352238E+02  0.36820906240E+02  0.00000000000E+00 0. -1.
         11    1    4    4    0    0  0.82463138391E+00 -0.11497896123E+02  0.16836111732E+02  0.20404320393E+02  0.51100000000E-03 0. -1.
        -11    1    4    4    0    0 -0.63706338127E+01  0.14658176715E+02  0.14325484844E+02  0.21463145996E+02  0.51100000000E-03 0.  1.
        -12    1    4    4    0    0 -0.12400229240E+02  0.14277258712E+01  0.66075566123E+00  0.12499627371E+02  0.00000000000E+00 0.  1.
</event>
<event>
 8    1  0.2504019E-006  0.9118800E+02  0.7816164E-02  0.1184000E+00
        -11   -1    0    0    0    0  0.00000000000E+00  0.00000000000E+00  0.45593999997E+02  0.45594000000E+02  0.51100000000E-03 0. -1.
         11   -1    0    0    0    0 -0.00000000000E+00 -0.00000000000E+00 -0.45593999997E+02  0.45594000000E+02  0.51100000000E-03 0.  1.
         23    2    1    2    0    0  0.00000000000E+00  0.00000000000E+00  0.00000000000E+00  0.91188000000E+02  0.91188000000E+02 0.  0.
    9900012    2    3    3    0    0  0.12661237396E+02  0.30943837176E+02 -0.15425725310E+02  0.54367068549E+02  0.39999964371E+02 0.  0.
         12    1    3    3    0    0 -0.12661237396E+02 -0.30943837176E+02  0.15425725310E+02  0.36820931451E+02  0.00000000000E+00 0. -1.
         11    1    4    4    0    0  0.73498901224E+01 -0.35765672565E+01 -0.11563325280E+02  0.14160621807E+02  0.51100000000E-03 0. -1.
        -11    1    4    4    0    0  0.10889571233E+02  0.31648293950E+02 -0.15023264572E+01  0.33503048468E+02  0.51100000000E-03 0.  1.
        -12    1    4    4    0    0 -0.55782239590E+01  0.28721104830E+01 -0.23600735722E+01  0.67033982747E+01  0.00000000000E+00 0.  1.
</event>
<event>
 8    1  0.2504019E-006  0.9118800E+02  0.7816164E-02  0.1184000E+00
        -11   -1    0    0    0    0  0.00000000000E+00  0.00000000000E+00  0.45593999997E+02  0.45594000000E+02  0.51100000000E-03 0.  1.
         11   -1    0    0    0    0 -0.00000000000E+00 -0.00000000000E+00 -0.45593999997E+02  0.45594000000E+02  0.51100000000E-03 0. -1.
         23    2    1    2    0    0  0.00000000000E+00 -0.35527136788E-14 -0.17763568394E-14  0.91188000000E+02  0.91188000000E+02 0.  0.
    9900012    2    3    3    0    0 -0.27984934776E+02  0.20037188038E+02  0.13081748600E+02  0.54367114278E+02  0.40000068621E+02 0.  0.
         12    1    3    3    0    0  0.27984934776E+02 -0.20037188038E+02 -0.13081748600E+02  0.36820885722E+02  0.00000000000E+00 0. -1.
         11    1    4    4    0    0  0.52105900425E+01  0.85295684591E+01  0.23956267337E+01  0.10278269037E+02  0.51100000000E-03 0. -1.
        -11    1    4    4    0    0  0.27185485019E+01  0.57794925612E+01  0.11279596893E+01  0.64857793320E+01  0.51100000000E-03 0.  1.
         12    1    4    4    0    0 -0.35914073320E+02  0.57281270181E+01  0.95581621765E+01  0.37603065909E+02  0.00000000000E+00 0. -1.
</event>
<event>
 8    1  0.2504019E-006  0.9118800E+02  0.7816164E-02  0.1184000E+00
        -11   -1    0    0    0    0  0.00000000000E+00  0.00000000000E+00  0.45593999997E+02  0.45594000000E+02  0.51100000000E-03 0.  1.
         11   -1    0    0    0    0 -0.00000000000E+00 -0.00000000000E+00 -0.45593999997E+02  0.45594000000E+02  0.51100000000E-03 0. -1.
         23    2    1    2    0    0  0.22204460493E-15  0.00000000000E+00  0.00000000000E+00  0.91188000000E+02  0.91188000000E+02 0.  0.
    9900012    2    3    3    0    0 -0.24091851893E+00 -0.16272371709E+02  0.33029260235E+02  0.54367079935E+02  0.39999990328E+02 0.  0.
         12    1    3    3    0    0  0.24091851893E+00  0.16272371709E+02 -0.33029260235E+02  0.36820920065E+02  0.00000000000E+00 0. -1.
         11    1    4    4    0    0  0.54640584512E+00  0.18268190307E+01 -0.35396634498E+01  0.40205776596E+01  0.51100000000E-03 0. -1.
        -11    1    4    4    0    0 -0.76619617011E+01  0.25732916397E+01  0.23708194031E+02  0.25048072809E+02  0.51100000000E-03 0.  1.
        -12    1    4    4    0    0  0.68746373371E+01 -0.20672482379E+02  0.12860729654E+02  0.25298429466E+02  0.00000000000E+00 0.  1.
</event>
<event>
 8    1  0.2504019E-006  0.9118800E+02  0.7816164E-02  0.1184000E+00
        -11   -1    0    0    0    0  0.00000000000E+00  0.00000000000E+00  0.45593999997E+02  0.45594000000E+02  0.51100000000E-03 0.  1.
         11   -1    0    0    0    0 -0.00000000000E+00 -0.00000000000E+00 -0.45593999997E+02  0.45594000000E+02  0.51100000000E-03 0. -1.
         23    2    1    2    0    0  0.17763568394E-14  0.00000000000E+00  0.00000000000E+00  0.91188000000E+02  0.91188000000E+02 0.  0.
    9900012    2    3    3    0    0  0.13473287058E+02 -0.84950351243E+01 -0.33197658239E+02  0.54367087485E+02  0.40000007539E+02 0.  0.
        -12    1    3    3    0    0 -0.13473287058E+02  0.84950351243E+01  0.33197658239E+02  0.36820912515E+02  0.00000000000E+00 0.  1.
         11    1    4    4    0    0  0.16159722678E+02 -0.33083871660E+01 -0.27650095364E+01  0.16725051290E+02  0.51100000000E-03 0. -1.
        -11    1    4    4    0    0 -0.68958291744E+01 -0.50902170060E+01 -0.18725143397E+01  0.87732023449E+01  0.51100000000E-03 0.  1.
         12    1    4    4    0    0  0.42093935545E+01 -0.96430952298E-01 -0.28560134363E+02  0.28868833850E+02  0.00000000000E+00 0. -1.
</event>
<event>
 8    1  0.2504019E-006  0.9118800E+02  0.7816164E-02  0.1184000E+00
        -11   -1    0    0    0    0  0.00000000000E+00  0.00000000000E+00  0.45593999997E+02  0.45594000000E+02  0.51100000000E-03 0. -1.
         11   -1    0    0    0    0 -0.00000000000E+00 -0.00000000000E+00 -0.45593999997E+02  0.45594000000E+02  0.51100000000E-03 0.  1.
         23    2    1    2    0    0 -0.17763568394E-14 -0.88817841970E-15  0.00000000000E+00  0.91188000000E+02  0.91188000000E+02 0.  0.
    9900012    2    3    3    0    0 -0.13219559742E+02  0.76696925693E+01  0.33499233418E+02  0.54367087688E+02  0.40000008002E+02 0.  0.
        -12    1    3    3    0    0  0.13219559742E+02 -0.76696925693E+01 -0.33499233418E+02  0.36820912312E+02  0.00000000000E+00 0.  1.
         11    1    4    4    0    0  0.42504769873E+01 -0.92505917661E+01  0.33338945842E+01  0.10712369299E+02  0.51100000000E-03 0. -1.
        -11    1    4    4    0    0  0.41959014329E+01  0.18850456212E+01  0.18425028339E+01  0.49551793896E+01  0.51100000000E-03 0.  1.
        -12    1    4    4    0    0 -0.21665938163E+02  0.15035238714E+02  0.28322836000E+02  0.38699538999E+02  0.00000000000E+00 0.  1.
</event>
<event>
 8    1  0.2504019E-006  0.9118800E+02  0.7816164E-02  0.1184000E+00
        -11   -1    0    0    0    0  0.00000000000E+00  0.00000000000E+00  0.45593999997E+02  0.45594000000E+02  0.51100000000E-03 0.  1.
         11   -1    0    0    0    0 -0.00000000000E+00 -0.00000000000E+00 -0.45593999997E+02  0.45594000000E+02  0.51100000000E-03 0. -1.
         23    2    1    2    0    0  0.00000000000E+00  0.00000000000E+00  0.00000000000E+00  0.91188000000E+02  0.91188000000E+02 0.  0.
    9900012    2    3    3    0    0 -0.34543645198E+02 -0.49421775269E+01  0.11751234929E+02  0.54367081155E+02  0.39999993109E+02 0.  0.
         12    1    3    3    0    0  0.34543645198E+02  0.49421775269E+01 -0.11751234929E+02  0.36820918845E+02  0.00000000000E+00 0. -1.
         11    1    4    4    0    0 -0.27780232771E+02 -0.61921407552E+01  0.16884105430E+01  0.28512009231E+02  0.51100000000E-03 0. -1.
        -11    1    4    4    0    0  0.79518165455E+00 -0.53787161228E+01  0.14030364581E+02  0.15047060561E+02  0.51100000000E-03 0.  1.
         12    1    4    4    0    0 -0.75585940808E+01  0.66286793511E+01 -0.39675401952E+01  0.10808011363E+02  0.00000000000E+00 0. -1.
</event>
<event>
 8    1  0.2504019E-006  0.9118800E+02  0.7816164E-02  0.1184000E+00
        -11   -1    0    0    0    0  0.00000000000E+00  0.00000000000E+00  0.45593999997E+02  0.45594000000E+02  0.51100000000E-03 0.  1.
         11   -1    0    0    0    0 -0.00000000000E+00 -0.00000000000E+00 -0.45593999997E+02  0.45594000000E+02  0.51100000000E-03 0. -1.
         23    2    1    2    0    0 -0.17763568394E-14  0.00000000000E+00  0.00000000000E+00  0.91188000000E+02  0.91188000000E+02 0.  0.
    9900012    2    3    3    0    0  0.14258534339E+02  0.28269028783E+02  0.18797263308E+02  0.54367069842E+02  0.39999967318E+02 0.  0.
         12    1    3    3    0    0 -0.14258534339E+02 -0.28269028783E+02 -0.18797263308E+02  0.36820930158E+02  0.00000000000E+00 0. -1.
         11    1    4    4    0    0  0.12552034357E+02  0.16103097310E+02  0.23443170207E+02  0.31087707203E+02  0.51100000000E-03 0. -1.
        -11    1    4    4    0    0 -0.62828236985E+01  0.11529941213E+01  0.36371689405E+01  0.73506644076E+01  0.51100000000E-03 0.  1.
         12    1    4    4    0    0  0.79893236807E+01  0.11012937351E+02 -0.82830758396E+01  0.15928698231E+02  0.00000000000E+00 0. -1.
</event>
<event>
 8    1  0.2504019E-006  0.9118800E+02  0.7816164E-02  0.1184000E+00
        -11   -1    0    0    0    0  0.00000000000E+00  0.00000000000E+00  0.45593999997E+02  0.45594000000E+02  0.51100000000E-03 0.  1.
         11   -1    0    0    0    0 -0.00000000000E+00 -0.00000000000E+00 -0.45593999997E+02  0.45594000000E+02  0.51100000000E-03 0. -1.
         23    2    1    2    0    0  0.35527136788E-14  0.17763568394E-14  0.10658141036E-13  0.91188000000E+02  0.91188000000E+02 0.  0.
    9900012    2    3    3    0    0  0.22565206928E+02  0.10199277946E+02  0.27249994752E+02  0.54367135694E+02  0.40000117440E+02 0.  0.
         12    1    3    3    0    0 -0.22565206928E+02 -0.10199277946E+02 -0.27249994752E+02  0.36820864306E+02  0.00000000000E+00 0. -1.
         11    1    4    4    0    0  0.24319708494E+01 -0.54769315449E+01 -0.50058950278E+01  0.78083446806E+01  0.51100000000E-03 0. -1.
        -11    1    4    4    0    0  0.91192738144E+01  0.17956433462E+01 -0.51019391216E+00  0.93083719316E+01  0.51100000000E-03 0.  1.
        -12    1    4    4    0    0  0.11013962264E+02  0.13880566145E+02  0.32766083692E+02  0.37250419081E+02  0.00000000000E+00 0.  1.
</event>
<event>
 8    1  0.2504019E-006  0.9118800E+02  0.7816164E-02  0.1184000E+00
        -11   -1    0    0    0    0  0.00000000000E+00  0.00000000000E+00  0.45593999997E+02  0.45594000000E+02  0.51100000000E-03 0. -1.
         11   -1    0    0    0    0 -0.00000000000E+00 -0.00000000000E+00 -0.45593999997E+02  0.45594000000E+02  0.51100000000E-03 0.  1.
         23    2    1    2    0    0  0.00000000000E+00  0.17763568394E-14  0.00000000000E+00  0.91188000000E+02  0.91188000000E+02 0.  0.
    9900012    2    3    3    0    0  0.13620514457E+02  0.11751338229E+02 -0.32127371135E+02  0.54367077411E+02  0.39999984573E+02 0.  0.
         12    1    3    3    0    0 -0.13620514457E+02 -0.11751338229E+02  0.32127371135E+02  0.36820922589E+02  0.00000000000E+00 0. -1.
         11    1    4    4    0    0  0.93308790495E+01  0.59547433952E+01 -0.16343029706E+01  0.11189066949E+02  0.51100000000E-03 0. -1.
        -11    1    4    4    0    0 -0.78101110870E+01  0.10797888176E+02 -0.44858154139E+01  0.14061108222E+02  0.51100000000E-03 0.  1.
        -12    1    4    4    0    0  0.12099746495E+02 -0.50012933424E+01 -0.26007252751E+02  0.29116902239E+02  0.00000000000E+00 0.  1.
</event>
<event>
 8    1  0.2504019E-006  0.9118800E+02  0.7816164E-02  0.1184000E+00
        -11   -1    0    0    0    0  0.00000000000E+00  0.00000000000E+00  0.45593999997E+02  0.45594000000E+02  0.51100000000E-03 0.  1.
         11   -1    0    0    0    0 -0.00000000000E+00 -0.00000000000E+00 -0.45593999997E+02  0.45594000000E+02  0.51100000000E-03 0. -1.
         23    2    1    2    0    0  0.35527136788E-14 -0.97144514655E-15  0.00000000000E+00  0.91188000000E+02  0.91188000000E+02 0.  0.
    9900012    2    3    3    0    0  0.19946980057E+02  0.16511902822E+00  0.30949474762E+02  0.54367092003E+02  0.40000017839E+02 0.  0.
         12    1    3    3    0    0 -0.19946980057E+02 -0.16511902822E+00 -0.30949474762E+02  0.36820907997E+02  0.00000000000E+00 0. -1.
         11    1    4    4    0    0 -0.82694796706E+00 -0.33853225507E+01 -0.39082212666E+01  0.52362625452E+01  0.51100000000E-03 0. -1.
        -11    1    4    4    0    0  0.88501553531E-01  0.98952443015E+01  0.25014124227E+01  0.10206897505E+02  0.51100000000E-03 0.  1.
         12    1    4    4    0    0  0.20685426471E+02 -0.63448027226E+01  0.32356283606E+02  0.38923931953E+02  0.00000000000E+00 0. -1.
</event>
<event>
 8    1  0.2504019E-006  0.9118800E+02  0.7816164E-02  0.1184000E+00
        -11   -1    0    0    0    0  0.00000000000E+00  0.00000000000E+00  0.45593999997E+02  0.45594000000E+02  0.51100000000E-03 0.  1.
         11   -1    0    0    0    0 -0.00000000000E+00 -0.00000000000E+00 -0.45593999997E+02  0.45594000000E+02  0.51100000000E-03 0. -1.
         23    2    1    2    0    0  0.00000000000E+00  0.00000000000E+00 -0.27755575616E-16  0.91188000000E+02  0.91188000000E+02 0.  0.
    9900012    2    3    3    0    0 -0.18082573704E+02  0.32074002061E+02  0.24241365955E+00  0.54367084146E+02  0.39999999927E+02 0.  0.
         12    1    3    3    0    0  0.18082573704E+02 -0.32074002061E+02 -0.24241365955E+00  0.36820915854E+02  0.00000000000E+00 0. -1.
         11    1    4    4    0    0  0.56752291916E+01  0.19297074883E+02 -0.88518745280E+01  0.21975918828E+02  0.51100000000E-03 0. -1.
        -11    1    4    4    0    0 -0.18124475559E+02  0.16250825242E+02  0.83298836939E+01  0.25728833980E+02  0.51100000000E-03 0.  1.
         12    1    4    4    0    0 -0.56333273363E+01 -0.34738980635E+01  0.76440449363E+00  0.66623313384E+01  0.00000000000E+00 0. -1.
</event>
<event>
 8    1  0.2504019E-006  0.9118800E+02  0.7816164E-02  0.1184000E+00
        -11   -1    0    0    0    0  0.00000000000E+00  0.00000000000E+00  0.45593999997E+02  0.45594000000E+02  0.51100000000E-03 0.  1.
         11   -1    0    0    0    0 -0.00000000000E+00 -0.00000000000E+00 -0.45593999997E+02  0.45594000000E+02  0.51100000000E-03 0. -1.
         23    2    1    2    0    0 -0.35527136788E-14  0.00000000000E+00  0.00000000000E+00  0.91188000000E+02  0.91188000000E+02 0.  0.
    9900012    2    3    3    0    0 -0.16692517014E+02 -0.86575892490E+01  0.31657316246E+02  0.54367086815E+02  0.40000006013E+02 0.  0.
         12    1    3    3    0    0  0.16692517014E+02  0.86575892490E+01 -0.31657316246E+02  0.36820913185E+02  0.00000000000E+00 0. -1.
         11    1    4    4    0    0 -0.40335427542E+01 -0.75865046672E+01  0.36555678985E+01  0.93374352548E+01  0.51100000000E-03 0. -1.
        -11    1    4    4    0    0  0.88519793991E+01 -0.85766163169E+01  0.11888554337E+02  0.17124649229E+02  0.51100000000E-03 0.  1.
         12    1    4    4    0    0 -0.21510953658E+02  0.75055317350E+01  0.16113194010E+02  0.27905002332E+02  0.00000000000E+00 0. -1.
</event>
<event>
 8    1  0.2504019E-006  0.9118800E+02  0.7816164E-02  0.1184000E+00
        -11   -1    0    0    0    0  0.00000000000E+00  0.00000000000E+00  0.45593999997E+02  0.45594000000E+02  0.51100000000E-03 0.  1.
         11   -1    0    0    0    0 -0.00000000000E+00 -0.00000000000E+00 -0.45593999997E+02  0.45594000000E+02  0.51100000000E-03 0. -1.
         23    2    1    2    0    0  0.00000000000E+00 -0.17763568394E-14  0.00000000000E+00  0.91188000000E+02  0.91188000000E+02 0.  0.
    9900012    2    3    3    0    0 -0.83140277399E+01 -0.12695568358E+02 -0.33548199507E+02  0.54367052112E+02  0.39999926901E+02 0.  0.
        -12    1    3    3    0    0  0.83140277399E+01  0.12695568358E+02  0.33548199507E+02  0.36820947888E+02  0.00000000000E+00 0.  1.
         11    1    4    4    0    0  0.55455172803E+01  0.55008743601E+01  0.24168419480E+01  0.81763993234E+01  0.51100000000E-03 0. -1.
        -11    1    4    4    0    0  0.21449666631E+01 -0.11377749476E+02 -0.14957684303E+02  0.18915242137E+02  0.51100000000E-03 0.  1.
         12    1    4    4    0    0 -0.16004511683E+02 -0.68186932422E+01 -0.21007357151E+02  0.27275410652E+02  0.00000000000E+00 0. -1.
</event>
<event>
 8    1  0.2504019E-006  0.9118800E+02  0.7816164E-02  0.1184000E+00
        -11   -1    0    0    0    0  0.00000000000E+00  0.00000000000E+00  0.45593999997E+02  0.45594000000E+02  0.51100000000E-03 0.  1.
         11   -1    0    0    0    0 -0.00000000000E+00 -0.00000000000E+00 -0.45593999997E+02  0.45594000000E+02  0.51100000000E-03 0. -1.
         23    2    1    2    0    0  0.00000000000E+00  0.00000000000E+00  0.00000000000E+00  0.91188000000E+02  0.91188000000E+02 0.  0.
    9900012    2    3    3    0    0  0.41885914202E+01 -0.18757158906E+02  0.31407083338E+02  0.54367079424E+02  0.39999989162E+02 0.  0.
         12    1    3    3    0    0 -0.41885914202E+01  0.18757158906E+02 -0.31407083338E+02  0.36820920576E+02  0.00000000000E+00 0. -1.
         11    1    4    4    0    0  0.88249371698E+01 -0.20036325479E+00 -0.19209091443E+01  0.90338006225E+01  0.51100000000E-03 0. -1.
        -11    1    4    4    0    0  0.43454122088E+01 -0.14937880199E+02  0.65890352522E+01  0.16894918110E+02  0.51100000000E-03 0.  1.
        -12    1    4    4    0    0 -0.89817579584E+01 -0.36189154513E+01  0.26738957230E+02  0.28438360691E+02  0.00000000000E+00 0.  1.
</event>
<event>
 8    1  0.2504019E-006  0.9118800E+02  0.7816164E-02  0.1184000E+00
        -11   -1    0    0    0    0  0.00000000000E+00  0.00000000000E+00  0.45593999997E+02  0.45594000000E+02  0.51100000000E-03 0. -1.
         11   -1    0    0    0    0 -0.00000000000E+00 -0.00000000000E+00 -0.45593999997E+02  0.45594000000E+02  0.51100000000E-03 0.  1.
         23    2    1    2    0    0  0.00000000000E+00 -0.35527136788E-14  0.00000000000E+00  0.91188000000E+02  0.91188000000E+02 0.  0.
    9900012    2    3    3    0    0  0.10948426051E+02 -0.31181259845E+02  0.16237034458E+02  0.54367078141E+02  0.39999986239E+02 0.  0.
         12    1    3    3    0    0 -0.10948426051E+02  0.31181259845E+02 -0.16237034458E+02  0.36820921859E+02  0.00000000000E+00 0. -1.
         11    1    4    4    0    0  0.18754717530E+02 -0.15353024802E+02  0.13792156910E+02  0.27886885675E+02  0.51100000000E-03 0. -1.
        -11    1    4    4    0    0  0.36964601767E+01 -0.52552678556E+01 -0.59387030564E+01  0.87492772459E+01  0.51100000000E-03 0.  1.
        -12    1    4    4    0    0 -0.11502751655E+02 -0.10572967188E+02  0.83835806045E+01  0.17730915220E+02  0.00000000000E+00 0.  1.
</event>
<event>
 8    1  0.2504019E-006  0.9118800E+02  0.7816164E-02  0.1184000E+00
        -11   -1    0    0    0    0  0.00000000000E+00  0.00000000000E+00  0.45593999997E+02  0.45594000000E+02  0.51100000000E-03 0.  1.
         11   -1    0    0    0    0 -0.00000000000E+00 -0.00000000000E+00 -0.45593999997E+02  0.45594000000E+02  0.51100000000E-03 0. -1.
         23    2    1    2    0    0  0.35527136788E-14  0.00000000000E+00  0.35527136788E-14  0.91188000000E+02  0.91188000000E+02 0.  0.
    9900012    2    3    3    0    0 -0.23711746707E+02  0.58986041166E+01  0.27545256067E+02  0.54367060384E+02  0.39999945758E+02 0.  0.
         12    1    3    3    0    0  0.23711746707E+02 -0.58986041166E+01 -0.27545256067E+02  0.36820939616E+02  0.00000000000E+00 0. -1.
         11    1    4    4    0    0 -0.23257547642E+02  0.11581214692E+02  0.10911480157E+02  0.28179752581E+02  0.51100000000E-03 0. -1.
        -11    1    4    4    0    0  0.32494651273E+01  0.35392443300E+01  0.15449283864E+02  0.16179173224E+02  0.51100000000E-03 0.  1.
        -12    1    4    4    0    0 -0.37036641923E+01 -0.92218549058E+01  0.11844920458E+01  0.10008134579E+02  0.00000000000E+00 0.  1.
</event>
<event>
 8    1  0.2504019E-006  0.9118800E+02  0.7816164E-02  0.1184000E+00
        -11   -1    0    0    0    0  0.00000000000E+00  0.00000000000E+00  0.45593999997E+02  0.45594000000E+02  0.51100000000E-03 0. -1.
         11   -1    0    0    0    0 -0.00000000000E+00 -0.00000000000E+00 -0.45593999997E+02  0.45594000000E+02  0.51100000000E-03 0.  1.
         23    2    1    2    0    0  0.00000000000E+00  0.00000000000E+00  0.00000000000E+00  0.91188000000E+02  0.91188000000E+02 0.  0.
    9900012    2    3    3    0    0  0.20272057030E+02  0.29268986950E+02  0.93887960821E+01  0.54367090381E+02  0.40000014142E+02 0.  0.
        -12    1    3    3    0    0 -0.20272057030E+02 -0.29268986950E+02 -0.93887960821E+01  0.36820909619E+02  0.00000000000E+00 0.  1.
         11    1    4    4    0    0  0.46598197169E+01 -0.68350834296E+01  0.41581289208E+01  0.92586349786E+01  0.51100000000E-03 0. -1.
        -11    1    4    4    0    0 -0.27865725978E+01 -0.92988577764E+00 -0.13545646388E+01  0.32348910374E+01  0.51100000000E-03 0.  1.
        -12    1    4    4    0    0  0.18398809911E+02  0.37033956157E+02  0.65852318002E+01  0.41873564365E+02  0.00000000000E+00 0.  1.
</event>
<event>
 8    1  0.2504019E-006  0.9118800E+02  0.7816164E-02  0.1184000E+00
        -11   -1    0    0    0    0  0.00000000000E+00  0.00000000000E+00  0.45593999997E+02  0.45594000000E+02  0.51100000000E-03 0. -1.
         11   -1    0    0    0    0 -0.00000000000E+00 -0.00000000000E+00 -0.45593999997E+02  0.45594000000E+02  0.51100000000E-03 0.  1.
         23    2    1    2    0    0  0.00000000000E+00  0.00000000000E+00  0.88817841970E-15  0.91188000000E+02  0.91188000000E+02 0.  0.
    9900012    2    3    3    0    0 -0.31856184573E+02 -0.18240491190E+02 -0.28721432570E+01  0.54367065448E+02  0.39999957302E+02 0.  0.
         12    1    3    3    0    0  0.31856184573E+02  0.18240491190E+02  0.28721432570E+01  0.36820934552E+02  0.00000000000E+00 0. -1.
         11    1    4    4    0    0 -0.14059709595E+02  0.22652485905E+01  0.10017017225E+02  0.17411129182E+02  0.51100000000E-03 0. -1.
        -11    1    4    4    0    0 -0.19228432006E+02 -0.16878420138E+02 -0.23201327902E+01  0.25690400546E+02  0.51100000000E-03 0.  1.
        -12    1    4    4    0    0  0.14319570274E+01 -0.36273196420E+01 -0.10569027691E+02  0.11265535720E+02  0.00000000000E+00 0.  1.
</event>
<event>
 8    1  0.2504019E-006  0.9118800E+02  0.7816164E-02  0.1184000E+00
        -11   -1    0    0    0    0  0.00000000000E+00  0.00000000000E+00  0.45593999997E+02  0.45594000000E+02  0.51100000000E-03 0.  1.
         11   -1    0    0    0    0 -0.00000000000E+00 -0.00000000000E+00 -0.45593999997E+02  0.45594000000E+02  0.51100000000E-03 0. -1.
         23    2    1    2    0    0  0.00000000000E+00 -0.35527136788E-14  0.35527136788E-14  0.91188000000E+02  0.91188000000E+02 0.  0.
    9900012    2    3    3    0    0  0.15163577038E+02 -0.26868421928E+02  0.20098100979E+02  0.54367084362E+02  0.40000000419E+02 0.  0.
         12    1    3    3    0    0 -0.15163577038E+02  0.26868421928E+02 -0.20098100979E+02  0.36820915638E+02  0.00000000000E+00 0. -1.
         11    1    4    4    0    0 -0.57634254875E+01 -0.48716893939E+01 -0.35032819373E+01  0.83200610271E+01  0.51100000000E-03 0. -1.
        -11    1    4    4    0    0  0.61279232241E+01 -0.21599197565E+02  0.21515250432E+02  0.31096346729E+02  0.51100000000E-03 0.  1.
         12    1    4    4    0    0  0.14799079301E+02 -0.39753496872E+00  0.20861324850E+01  0.14950676605E+02  0.00000000000E+00 0. -1.
</event>
<event>
 8    1  0.2504019E-006  0.9118800E+02  0.7816164E-02  0.1184000E+00
        -11   -1    0    0    0    0  0.00000000000E+00  0.00000000000E+00  0.45593999997E+02  0.45594000000E+02  0.51100000000E-03 0.  1.
         11   -1    0    0    0    0 -0.00000000000E+00 -0.00000000000E+00 -0.45593999997E+02  0.45594000000E+02  0.51100000000E-03 0. -1.
         23    2    1    2    0    0  0.00000000000E+00  0.00000000000E+00  0.00000000000E+00  0.91188000000E+02  0.91188000000E+02 0.  0.
    9900012    2    3    3    0    0 -0.21652885084E+02 -0.29159960092E+02  0.60523999779E+01  0.54367051472E+02  0.39999925440E+02 0.  0.
        -12    1    3    3    0    0  0.21652885084E+02  0.29159960092E+02 -0.60523999779E+01  0.36820948528E+02  0.00000000000E+00 0.  1.
         11    1    4    4    0    0 -0.18441111260E+02 -0.14248604239E+02 -0.11854220244E+02  0.26146124858E+02  0.51100000000E-03 0. -1.
        -11    1    4    4    0    0  0.31569444113E+00  0.24749477291E+01  0.69148373928E+01  0.73511907656E+01  0.51100000000E-03 0.  1.
         12    1    4    4    0    0 -0.35274682657E+01 -0.17386303582E+02  0.10991782829E+02  0.20869735848E+02  0.00000000000E+00 0. -1.
</event>
<event>
 8    1  0.2504019E-006  0.9118800E+02  0.7816164E-02  0.1184000E+00
        -11   -1    0    0    0    0  0.00000000000E+00  0.00000000000E+00  0.45593999997E+02  0.45594000000E+02  0.51100000000E-03 0. -1.
         11   -1    0    0    0    0 -0.00000000000E+00 -0.00000000000E+00 -0.45593999997E+02  0.45594000000E+02  0.51100000000E-03 0.  1.
         23    2    1    2    0    0  0.35527136788E-14  0.88817841970E-15  0.00000000000E+00  0.91188000000E+02  0.91188000000E+02 0.  0.
    9900012    2    3    3    0    0 -0.25412357327E+02  0.61781255652E+01  0.25919528031E+02  0.54367094610E+02  0.40000023782E+02 0.  0.
        -12    1    3    3    0    0  0.25412357327E+02 -0.61781255652E+01 -0.25919528031E+02  0.36820905390E+02  0.00000000000E+00 0.  1.
         11    1    4    4    0    0 -0.65205719392E+01 -0.38861540332E+01  0.12852835371E+02  0.14927003347E+02  0.51100000000E-03 0. -1.
        -11    1    4    4    0    0 -0.39672620211E+01  0.16699156200E+02  0.15252369992E+02  0.22961615282E+02  0.51100000000E-03 0.  1.
        -12    1    4    4    0    0 -0.14924523367E+02 -0.66348766011E+01 -0.21856773325E+01  0.16478475981E+02  0.00000000000E+00 0.  1.
</event>
<event>
 8    1  0.2504019E-006  0.9118800E+02  0.7816164E-02  0.1184000E+00
        -11   -1    0    0    0    0  0.00000000000E+00  0.00000000000E+00  0.45593999997E+02  0.45594000000E+02  0.51100000000E-03 0.  1.
         11   -1    0    0    0    0 -0.00000000000E+00 -0.00000000000E+00 -0.45593999997E+02  0.45594000000E+02  0.51100000000E-03 0. -1.
         23    2    1    2    0    0  0.00000000000E+00  0.00000000000E+00 -0.17763568394E-14  0.91188000000E+02  0.91188000000E+02 0.  0.
    9900012    2    3    3    0    0  0.24077441329E+02 -0.23692871830E+02 -0.14652819776E+02  0.54367075461E+02  0.39999980129E+02 0.  0.
        -12    1    3    3    0    0 -0.24077441329E+02  0.23692871830E+02  0.14652819776E+02  0.36820924539E+02  0.00000000000E+00 0.  1.
         11    1    4    4    0    0  0.38628978395E+01 -0.25918839564E+01 -0.10184837408E+02  0.11196908299E+02  0.51100000000E-03 0. -1.
        -11    1    4    4    0    0 -0.52351744832E+01 -0.10174501407E+02  0.67539103476E+01  0.13286942312E+02  0.51100000000E-03 0.  1.
        -12    1    4    4    0    0  0.25449717972E+02 -0.10926486467E+02 -0.11221892715E+02  0.29883224851E+02  0.00000000000E+00 0.  1.
</event>
<event>
 8    1  0.2504019E-006  0.9118800E+02  0.7816164E-02  0.1184000E+00
        -11   -1    0    0    0    0  0.00000000000E+00  0.00000000000E+00  0.45593999997E+02  0.45594000000E+02  0.51100000000E-03 0. -1.
         11   -1    0    0    0    0 -0.00000000000E+00 -0.00000000000E+00 -0.45593999997E+02  0.45594000000E+02  0.51100000000E-03 0.  1.
         23    2    1    2    0    0  0.00000000000E+00 -0.88817841970E-15 -0.35527136788E-14  0.91188000000E+02  0.91188000000E+02 0.  0.
    9900012    2    3    3    0    0 -0.28306953315E+02  0.41507793875E+01  0.23179006257E+02  0.54367096881E+02  0.40000028959E+02 0.  0.
        -12    1    3    3    0    0  0.28306953315E+02 -0.41507793875E+01 -0.23179006257E+02  0.36820903119E+02  0.00000000000E+00 0.  1.
         11    1    4    4    0    0 -0.21909097273E+02  0.16461961068E+02  0.26899154260E+02  0.38400119865E+02  0.51100000000E-03 0. -1.
        -11    1    4    4    0    0 -0.67575118810E+00 -0.82660902267E+01 -0.33654789945E+01  0.89504936416E+01  0.51100000000E-03 0.  1.
         12    1    4    4    0    0 -0.57221048537E+01 -0.40450914535E+01 -0.35466900899E+00  0.70164833735E+01  0.00000000000E+00 0. -1.
</event>
<event>
 8    1  0.2504019E-006  0.9118800E+02  0.7816164E-02  0.1184000E+00
        -11   -1    0    0    0    0  0.00000000000E+00  0.00000000000E+00  0.45593999997E+02  0.45594000000E+02  0.51100000000E-03 0.  1.
         11   -1    0    0    0    0 -0.00000000000E+00 -0.00000000000E+00 -0.45593999997E+02  0.45594000000E+02  0.51100000000E-03 0. -1.
         23    2    1    2    0    0  0.00000000000E+00  0.17763568394E-14  0.00000000000E+00  0.91188000000E+02  0.91188000000E+02 0.  0.
    9900012    2    3    3    0    0  0.24920296140E+02  0.15768711918E+02 -0.22047837116E+02  0.54367074472E+02  0.39999977874E+02 0.  0.
        -12    1    3    3    0    0 -0.24920296140E+02 -0.15768711918E+02  0.22047837116E+02  0.36820925528E+02  0.00000000000E+00 0.  1.
         11    1    4    4    0    0  0.31160333725E+02  0.21630974716E+02 -0.15014088865E+02  0.40795690088E+02  0.51100000000E-03 0. -1.
        -11    1    4    4    0    0 -0.37391066655E+01  0.39926496707E+00  0.91754555034E-01  0.37614824643E+01  0.51100000000E-03 0.  1.
         12    1    4    4    0    0 -0.25009309205E+01 -0.62615277654E+01 -0.71255028068E+01  0.98099019198E+01  0.00000000000E+00 0. -1.
</event>
<event>
 8    1  0.2504019E-006  0.9118800E+02  0.7816164E-02  0.1184000E+00
        -11   -1    0    0    0    0  0.00000000000E+00  0.00000000000E+00  0.45593999997E+02  0.45594000000E+02  0.51100000000E-03 0. -1.
         11   -1    0    0    0    0 -0.00000000000E+00 -0.00000000000E+00 -0.45593999997E+02  0.45594000000E+02  0.51100000000E-03 0.  1.
         23    2    1    2    0    0 -0.71054273576E-14  0.00000000000E+00 -0.35527136788E-14  0.91188000000E+02  0.91188000000E+02 0.  0.
    9900012    2    3    3    0    0  0.29771047497E+02  0.13738881180E+02  0.16754326950E+02  0.54367087508E+02  0.40000007592E+02 0.  0.
         12    1    3    3    0    0 -0.29771047497E+02 -0.13738881180E+02 -0.16754326950E+02  0.36820912492E+02  0.00000000000E+00 0. -1.
         11    1    4    4    0    0 -0.63205358632E+00  0.63443224432E+01 -0.91813571650E+01  0.11177980079E+02  0.51100000000E-03 0. -1.
        -11    1    4    4    0    0  0.25373711665E+02  0.10956832257E+02  0.17394543095E+02  0.32656508486E+02  0.51100000000E-03 0.  1.
         12    1    4    4    0    0  0.50293894189E+01 -0.35622735200E+01  0.85411410198E+01  0.10532598942E+02  0.00000000000E+00 0. -1.
</event>
<event>
 8    1  0.2504019E-006  0.9118800E+02  0.7816164E-02  0.1184000E+00
        -11   -1    0    0    0    0  0.00000000000E+00  0.00000000000E+00  0.45593999997E+02  0.45594000000E+02  0.51100000000E-03 0. -1.
         11   -1    0    0    0    0 -0.00000000000E+00 -0.00000000000E+00 -0.45593999997E+02  0.45594000000E+02  0.51100000000E-03 0.  1.
         23    2    1    2    0    0  0.00000000000E+00  0.00000000000E+00  0.17763568394E-14  0.91188000000E+02  0.91188000000E+02 0.  0.
    9900012    2    3    3    0    0 -0.74699298272E+01 -0.34634143787E+02 -0.10022781863E+02  0.54367083068E+02  0.39999997469E+02 0.  0.
         12    1    3    3    0    0  0.74699298272E+01  0.34634143787E+02  0.10022781863E+02  0.36820916932E+02  0.00000000000E+00 0. -1.
         11    1    4    4    0    0 -0.15290790381E+02 -0.10936045152E+02 -0.10485966520E+02  0.21525818176E+02  0.51100000000E-03 0. -1.
        -11    1    4    4    0    0  0.12834879245E+02 -0.21606260577E+02  0.51651277183E+01  0.25656250037E+02  0.51100000000E-03 0.  1.
        -12    1    4    4    0    0 -0.50140186917E+01 -0.20918380574E+01 -0.47019430615E+01  0.71850148540E+01  0.00000000000E+00 0.  1.
</event>
<event>
 8    1  0.2504019E-006  0.9118800E+02  0.7816164E-02  0.1184000E+00
        -11   -1    0    0    0    0  0.00000000000E+00  0.00000000000E+00  0.45593999997E+02  0.45594000000E+02  0.51100000000E-03 0.  1.
         11   -1    0    0    0    0 -0.00000000000E+00 -0.00000000000E+00 -0.45593999997E+02  0.45594000000E+02  0.51100000000E-03 0. -1.
         23    2    1    2    0    0  0.17763568394E-14  0.00000000000E+00  0.00000000000E+00  0.91188000000E+02  0.91188000000E+02 0.  0.
    9900012    2    3    3    0    0 -0.13192083624E+02  0.27100098000E+02 -0.21150219102E+02  0.54367107154E+02  0.40000052378E+02 0.  0.
        -12    1    3    3    0    0  0.13192083624E+02 -0.27100098000E+02  0.21150219102E+02  0.36820892846E+02  0.00000000000E+00 0.  1.
         11    1    4    4    0    0  0.82787275733E+01  0.23349872172E+02 -0.10063121834E+02  0.26739863163E+02  0.51100000000E-03 0. -1.
        -11    1    4    4    0    0 -0.13116560635E+02  0.13109351325E+01  0.43325341755E+00  0.13189026597E+02  0.51100000000E-03 0.  1.
         12    1    4    4    0    0 -0.83542505631E+01  0.24392906951E+01 -0.11520350686E+02  0.14438217393E+02  0.00000000000E+00 0. -1.
</event>
<event>
 8    1  0.2504019E-006  0.9118800E+02  0.7816164E-02  0.1184000E+00
        -11   -1    0    0    0    0  0.00000000000E+00  0.00000000000E+00  0.45593999997E+02  0.45594000000E+02  0.51100000000E-03 0.  1.
         11   -1    0    0    0    0 -0.00000000000E+00 -0.00000000000E+00 -0.45593999997E+02  0.45594000000E+02  0.51100000000E-03 0. -1.
         23    2    1    2    0    0  0.00000000000E+00  0.17763568394E-14  0.00000000000E+00  0.91188000000E+02  0.91188000000E+02 0.  0.
    9900012    2    3    3    0    0  0.84084753810E+01  0.10410183363E+02 -0.34303127375E+02  0.54367096649E+02  0.40000028431E+02 0.  0.
        -12    1    3    3    0    0 -0.84084753810E+01 -0.10410183363E+02  0.34303127375E+02  0.36820903351E+02  0.00000000000E+00 0.  1.
         11    1    4    4    0    0  0.76812711286E+01  0.75143171765E+01 -0.10331252574E+02  0.14906430451E+02  0.51100000000E-03 0.  1.
        -11    1    4    4    0    0  0.11632568130E+02  0.12294839564E+02 -0.12211501435E+02  0.20871044266E+02  0.51100000000E-03 0. -1.
        -12    1    4    4    0    0 -0.10905363878E+02 -0.93989733774E+01 -0.11760373366E+02  0.18589621932E+02  0.00000000000E+00 0.  1.
</event>
<event>
 8    1  0.2504019E-006  0.9118800E+02  0.7816164E-02  0.1184000E+00
        -11   -1    0    0    0    0  0.00000000000E+00  0.00000000000E+00  0.45593999997E+02  0.45594000000E+02  0.51100000000E-03 0.  1.
         11   -1    0    0    0    0 -0.00000000000E+00 -0.00000000000E+00 -0.45593999997E+02  0.45594000000E+02  0.51100000000E-03 0. -1.
         23    2    1    2    0    0  0.35527136788E-14 -0.35527136788E-14  0.35527136788E-14  0.91188000000E+02  0.91188000000E+02 0.  0.
    9900012    2    3    3    0    0  0.27981735756E+02  0.22920034955E+02 -0.68902499750E+01  0.54367067326E+02  0.39999961584E+02 0.  0.
        -12    1    3    3    0    0 -0.27981735756E+02 -0.22920034955E+02  0.68902499750E+01  0.36820932674E+02  0.00000000000E+00 0.  1.
         11    1    4    4    0    0  0.17552673235E+02  0.14528744768E+02 -0.17376924255E+02  0.28655510099E+02  0.51100000000E-03 0. -1.
        -11    1    4    4    0    0  0.38487915786E+01  0.97954502537E+01  0.14469886536E+02  0.17892502869E+02  0.51100000000E-03 0.  1.
        -12    1    4    4    0    0  0.65802709429E+01 -0.14041600670E+01 -0.39832122562E+01  0.78190543581E+01  0.00000000000E+00 0.  1.
</event>
<event>
 8    1  0.2504019E-006  0.9118800E+02  0.7816164E-02  0.1184000E+00
        -11   -1    0    0    0    0  0.00000000000E+00  0.00000000000E+00  0.45593999997E+02  0.45594000000E+02  0.51100000000E-03 0.  1.
         11   -1    0    0    0    0 -0.00000000000E+00 -0.00000000000E+00 -0.45593999997E+02  0.45594000000E+02  0.51100000000E-03 0. -1.
         23    2    1    2    0    0  0.44408920985E-15  0.88817841970E-15  0.00000000000E+00  0.91188000000E+02  0.91188000000E+02 0.  0.
    9900012    2    3    3    0    0 -0.35900139298E+01 -0.49321759021E+01 -0.36312031851E+02  0.54367106254E+02  0.40000050326E+02 0.  0.
        -12    1    3    3    0    0  0.35900139298E+01  0.49321759021E+01  0.36312031851E+02  0.36820893746E+02  0.00000000000E+00 0.  1.
         11    1    4    4    0    0 -0.13876571020E+02  0.40727199743E+00 -0.32920717649E+01  0.14267544657E+02  0.51100000000E-03 0. -1.
        -11    1    4    4    0    0  0.79873856450E+01  0.27580046795E+01 -0.30721696217E+01  0.89912816494E+01  0.51100000000E-03 0.  1.
         12    1    4    4    0    0  0.22991714455E+01 -0.80974525790E+01 -0.29947790464E+02  0.31108279948E+02  0.00000000000E+00 0. -1.
</event>
<event>
 8    1  0.2504019E-006  0.9118800E+02  0.7816164E-02  0.1184000E+00
        -11   -1    0    0    0    0  0.00000000000E+00  0.00000000000E+00  0.45593999997E+02  0.45594000000E+02  0.51100000000E-03 0.  1.
         11   -1    0    0    0    0 -0.00000000000E+00 -0.00000000000E+00 -0.45593999997E+02  0.45594000000E+02  0.51100000000E-03 0. -1.
         23    2    1    2    0    0 -0.71054273576E-14 -0.17763568394E-14  0.17763568394E-14  0.91188000000E+02  0.91188000000E+02 0.  0.
    9900012    2    3    3    0    0 -0.33698021326E+02 -0.97282047244E+01 -0.11206466258E+02  0.54367088897E+02  0.40000010759E+02 0.  0.
         12    1    3    3    0    0  0.33698021326E+02  0.97282047244E+01  0.11206466258E+02  0.36820911103E+02  0.00000000000E+00 0. -1.
         11    1    4    4    0    0 -0.19848644362E+02 -0.15750732564E+02 -0.11761479750E+02  0.27935401652E+02  0.51100000000E-03 0. -1.
        -11    1    4    4    0    0  0.10268847486E+00  0.67831017175E+01  0.80890533249E+01  0.10557168076E+02  0.51100000000E-03 0.  1.
        -12    1    4    4    0    0 -0.13952065439E+02 -0.76057387773E+00 -0.75340398327E+01  0.15874519169E+02  0.00000000000E+00 0.  1.
</event>
<event>
 8    1  0.2504019E-006  0.9118800E+02  0.7816164E-02  0.1184000E+00
        -11   -1    0    0    0    0  0.00000000000E+00  0.00000000000E+00  0.45593999997E+02  0.45594000000E+02  0.51100000000E-03 0. -1.
         11   -1    0    0    0    0 -0.00000000000E+00 -0.00000000000E+00 -0.45593999997E+02  0.45594000000E+02  0.51100000000E-03 0.  1.
         23    2    1    2    0    0  0.00000000000E+00  0.35527136788E-14 -0.35527136788E-14  0.91188000000E+02  0.91188000000E+02 0.  0.
    9900012    2    3    3    0    0  0.28192903920E+02  0.99444595182E+01 -0.21495289185E+02  0.54367087956E+02  0.40000008614E+02 0.  0.
         12    1    3    3    0    0 -0.28192903920E+02 -0.99444595182E+01  0.21495289185E+02  0.36820912044E+02  0.00000000000E+00 0. -1.
         11    1    4    4    0    0  0.25055425427E+02  0.23157422378E+02 -0.11407693493E+02  0.35974658103E+02  0.51100000000E-03 0. -1.
        -11    1    4    4    0    0  0.10956537235E+01 -0.12747295932E+00 -0.33627897659E+01  0.35390763919E+01  0.51100000000E-03 0.  1.
         12    1    4    4    0    0  0.20418247698E+01 -0.13085489900E+02 -0.67248059261E+01  0.14853353462E+02  0.00000000000E+00 0. -1.
</event>
<event>
 8    1  0.2504019E-006  0.9118800E+02  0.7816164E-02  0.1184000E+00
        -11   -1    0    0    0    0  0.00000000000E+00  0.00000000000E+00  0.45593999997E+02  0.45594000000E+02  0.51100000000E-03 0. -1.
         11   -1    0    0    0    0 -0.00000000000E+00 -0.00000000000E+00 -0.45593999997E+02  0.45594000000E+02  0.51100000000E-03 0.  1.
         23    2    1    2    0    0  0.00000000000E+00  0.00000000000E+00  0.00000000000E+00  0.91188000000E+02  0.91188000000E+02 0.  0.
    9900012    2    3    3    0    0 -0.92479680563E+01  0.32944038730E+02  0.13599487411E+02  0.54367073085E+02  0.39999974712E+02 0.  0.
        -12    1    3    3    0    0  0.92479680563E+01 -0.32944038730E+02 -0.13599487411E+02  0.36820926915E+02  0.00000000000E+00 0.  1.
         11    1    4    4    0    0 -0.89484034089E+01  0.25325321622E+02  0.26852102850E+02  0.37980011408E+02  0.51100000000E-03 0. -1.
        -11    1    4    4    0    0  0.23466833892E+01  0.54585048366E+01 -0.10207608391E+02  0.11810904593E+02  0.51100000000E-03 0.  1.
         12    1    4    4    0    0 -0.26462480367E+01  0.21602122719E+01 -0.30450070477E+01  0.45761570834E+01  0.00000000000E+00 0. -1.
</event>
<event>
 8    1  0.2504019E-006  0.9118800E+02  0.7816164E-02  0.1184000E+00
        -11   -1    0    0    0    0  0.00000000000E+00  0.00000000000E+00  0.45593999997E+02  0.45594000000E+02  0.51100000000E-03 0.  1.
         11   -1    0    0    0    0 -0.00000000000E+00 -0.00000000000E+00 -0.45593999997E+02  0.45594000000E+02  0.51100000000E-03 0. -1.
         23    2    1    2    0    0  0.00000000000E+00  0.17763568394E-14  0.00000000000E+00  0.91188000000E+02  0.91188000000E+02 0.  0.
    9900012    2    3    3    0    0  0.34879705083E+02 -0.51024820556E+01 -0.10637211235E+02  0.54367090008E+02  0.40000013290E+02 0.  0.
        -12    1    3    3    0    0 -0.34879705083E+02  0.51024820556E+01  0.10637211235E+02  0.36820909992E+02  0.00000000000E+00 0.  1.
         11    1    4    4    0    0  0.30540828581E+02 -0.13051601965E+02 -0.11517251246E+02  0.35153002728E+02  0.51100000000E-03 0. -1.
        -11    1    4    4    0    0 -0.20068186472E+01  0.94623375900E+00  0.74048643179E+01  0.77301161205E+01  0.51100000000E-03 0.  1.
         12    1    4    4    0    0  0.63456951498E+01  0.70028861499E+01 -0.65248243063E+01  0.11483971159E+02  0.00000000000E+00 0. -1.
</event>
<event>
 8    1  0.2504019E-006  0.9118800E+02  0.7816164E-02  0.1184000E+00
        -11   -1    0    0    0    0  0.00000000000E+00  0.00000000000E+00  0.45593999997E+02  0.45594000000E+02  0.51100000000E-03 0.  1.
         11   -1    0    0    0    0 -0.00000000000E+00 -0.00000000000E+00 -0.45593999997E+02  0.45594000000E+02  0.51100000000E-03 0. -1.
         23    2    1    2    0    0  0.00000000000E+00 -0.17763568394E-14  0.00000000000E+00  0.91188000000E+02  0.91188000000E+02 0.  0.
    9900012    2    3    3    0    0 -0.88073504190E+01 -0.71612966601E+01 -0.35027506529E+02  0.54367084681E+02  0.40000001148E+02 0.  0.
        -12    1    3    3    0    0  0.88073504190E+01  0.71612966601E+01  0.35027506529E+02  0.36820915319E+02  0.00000000000E+00 0.  1.
         11    1    4    4    0    0 -0.11632593629E+02  0.79697671107E+01 -0.15465015696E+02  0.20928476606E+02  0.51100000000E-03 0. -1.
        -11    1    4    4    0    0  0.19523245802E+01 -0.20280208134E+02 -0.19520100434E+02  0.28215824185E+02  0.51100000000E-03 0.  1.
        -12    1    4    4    0    0  0.87291862970E+00  0.51491443635E+01 -0.42390399054E-01  0.52227838895E+01  0.00000000000E+00 0.  1.
</event>
<event>
 8    1  0.2504019E-006  0.9118800E+02  0.7816164E-02  0.1184000E+00
        -11   -1    0    0    0    0  0.00000000000E+00  0.00000000000E+00  0.45593999997E+02  0.45594000000E+02  0.51100000000E-03 0. -1.
         11   -1    0    0    0    0 -0.00000000000E+00 -0.00000000000E+00 -0.45593999997E+02  0.45594000000E+02  0.51100000000E-03 0.  1.
         23    2    1    2    0    0  0.17763568394E-14  0.00000000000E+00  0.00000000000E+00  0.91188000000E+02  0.91188000000E+02 0.  0.
    9900012    2    3    3    0    0  0.77771515003E+01  0.27903264232E+02 -0.22731202447E+02  0.54367030364E+02  0.39999877320E+02 0.  0.
        -12    1    3    3    0    0 -0.77771515003E+01 -0.27903264232E+02  0.22731202447E+02  0.36820969636E+02  0.00000000000E+00 0.  1.
         11    1    4    4    0    0  0.86570188455E+01  0.51687544620E+00 -0.12275675019E+02  0.15030080936E+02  0.51100000000E-03 0. -1.
        -11    1    4    4    0    0  0.21085411241E+01  0.52866995414E+01 -0.15466110068E+02  0.16480160758E+02  0.51100000000E-03 0.  1.
         12    1    4    4    0    0 -0.29884084693E+01  0.22099689245E+02  0.50105826397E+01  0.22856788670E+02  0.00000000000E+00 0. -1.
</event>
<event>
 8    1  0.2504019E-006  0.9118800E+02  0.7816164E-02  0.1184000E+00
        -11   -1    0    0    0    0  0.00000000000E+00  0.00000000000E+00  0.45593999997E+02  0.45594000000E+02  0.51100000000E-03 0.  1.
         11   -1    0    0    0    0 -0.00000000000E+00 -0.00000000000E+00 -0.45593999997E+02  0.45594000000E+02  0.51100000000E-03 0. -1.
         23    2    1    2    0    0  0.00000000000E+00 -0.35527136788E-14  0.00000000000E+00  0.91188000000E+02  0.91188000000E+02 0.  0.
    9900012    2    3    3    0    0 -0.28739939614E+02  0.21553166714E+02 -0.80778403684E+01  0.54367154960E+02  0.40000161362E+02 0.  0.
         12    1    3    3    0    0  0.28739939614E+02 -0.21553166714E+02  0.80778403684E+01  0.36820845040E+02  0.00000000000E+00 0. -1.
         11    1    4    4    0    0 -0.12925211248E+01 -0.41511060699E+01  0.18692121952E+00  0.43516930343E+01  0.51100000000E-03 0. -1.
        -11    1    4    4    0    0 -0.24730167064E+02  0.20263107512E+01 -0.83550042034E+01  0.26181924944E+02  0.51100000000E-03 0.  1.
        -12    1    4    4    0    0 -0.27172514254E+01  0.23677962033E+02  0.90242615459E-01  0.23833536982E+02  0.00000000000E+00 0.  1.
</event>
<event>
 8    1  0.2504019E-006  0.9118800E+02  0.7816164E-02  0.1184000E+00
        -11   -1    0    0    0    0  0.00000000000E+00  0.00000000000E+00  0.45593999997E+02  0.45594000000E+02  0.51100000000E-03 0. -1.
         11   -1    0    0    0    0 -0.00000000000E+00 -0.00000000000E+00 -0.45593999997E+02  0.45594000000E+02  0.51100000000E-03 0.  1.
         23    2    1    2    0    0 -0.11102230246E-15 -0.17763568394E-14  0.00000000000E+00  0.91188000000E+02  0.91188000000E+02 0.  0.
    9900012    2    3    3    0    0 -0.95661010600E+00  0.86862413159E+01 -0.35768895306E+02  0.54367085257E+02  0.40000002460E+02 0.  0.
         12    1    3    3    0    0  0.95661010600E+00 -0.86862413159E+01  0.35768895306E+02  0.36820914743E+02  0.00000000000E+00 0. -1.
         11    1    4    4    0    0 -0.38282882784E+01  0.38152581103E+01 -0.91460500504E+00  0.54816501317E+01  0.51100000000E-03 0. -1.
        -11    1    4    4    0    0 -0.86728549676E+01  0.15977529779E+02 -0.16874146924E+02  0.24803965526E+02  0.51100000000E-03 0.  1.
         12    1    4    4    0    0  0.11544533140E+02 -0.11106546574E+02 -0.17980143377E+02  0.24081469599E+02  0.00000000000E+00 0. -1.
</event>
<event>
 8    1  0.2504019E-006  0.9118800E+02  0.7816164E-02  0.1184000E+00
        -11   -1    0    0    0    0  0.00000000000E+00  0.00000000000E+00  0.45593999997E+02  0.45594000000E+02  0.51100000000E-03 0. -1.
         11   -1    0    0    0    0 -0.00000000000E+00 -0.00000000000E+00 -0.45593999997E+02  0.45594000000E+02  0.51100000000E-03 0.  1.
         23    2    1    2    0    0  0.00000000000E+00  0.00000000000E+00  0.00000000000E+00  0.91188000000E+02  0.91188000000E+02 0.  0.
    9900012    2    3    3    0    0 -0.24075013977E+02 -0.25174119187E+02  0.11934715019E+02  0.54367082067E+02  0.39999995187E+02 0.  0.
        -12    1    3    3    0    0  0.24075013977E+02  0.25174119187E+02 -0.11934715019E+02  0.36820917933E+02  0.00000000000E+00 0.  1.
         11    1    4    4    0    0 -0.11944472939E+02 -0.48413033104E+00 -0.79730630366E+01  0.14369222332E+02  0.51100000000E-03 0. -1.
        -11    1    4    4    0    0 -0.81367632058E+01 -0.21615315946E+02  0.24145341669E+02  0.33412966398E+02  0.51100000000E-03 0.  1.
        -12    1    4    4    0    0 -0.39937778323E+01 -0.30746729102E+01 -0.42375636136E+01  0.65848933369E+01  0.00000000000E+00 0.  1.
</event>
<event>
 8    1  0.2504019E-006  0.9118800E+02  0.7816164E-02  0.1184000E+00
        -11   -1    0    0    0    0  0.00000000000E+00  0.00000000000E+00  0.45593999997E+02  0.45594000000E+02  0.51100000000E-03 0. -1.
         11   -1    0    0    0    0 -0.00000000000E+00 -0.00000000000E+00 -0.45593999997E+02  0.45594000000E+02  0.51100000000E-03 0.  1.
         23    2    1    2    0    0  0.00000000000E+00  0.00000000000E+00  0.00000000000E+00  0.91188000000E+02  0.91188000000E+02 0.  0.
    9900012    2    3    3    0    0 -0.10910209944E+02  0.30159674291E+02  0.18087078650E+02  0.54367067795E+02  0.39999962651E+02 0.  0.
        -12    1    3    3    0    0  0.10910209944E+02 -0.30159674291E+02 -0.18087078650E+02  0.36820932205E+02  0.00000000000E+00 0.  1.
         11    1    4    4    0    0 -0.65690682095E+01  0.22384221902E+02  0.18266088010E+01  0.23399627076E+02  0.51100000000E-03 0. -1.
        -11    1    4    4    0    0 -0.11135196690E+02  0.12960704556E+02  0.72900114118E+01  0.18577317743E+02  0.51100000000E-03 0.  1.
        -12    1    4    4    0    0  0.67940549552E+01 -0.51852521668E+01  0.89704584373E+01  0.12390122975E+02  0.00000000000E+00 0.  1.
</event>
<event>
 8    1  0.2504019E-006  0.9118800E+02  0.7816164E-02  0.1184000E+00
        -11   -1    0    0    0    0  0.00000000000E+00  0.00000000000E+00  0.45593999997E+02  0.45594000000E+02  0.51100000000E-03 0.  1.
         11   -1    0    0    0    0 -0.00000000000E+00 -0.00000000000E+00 -0.45593999997E+02  0.45594000000E+02  0.51100000000E-03 0. -1.
         23    2    1    2    0    0  0.35527136788E-14  0.00000000000E+00  0.35527136788E-14  0.91188000000E+02  0.91188000000E+02 0.  0.
    9900012    2    3    3    0    0  0.16863389542E+02  0.10460424689E+02 -0.31015875215E+02  0.54367096876E+02  0.40000028947E+02 0.  0.
        -12    1    3    3    0    0 -0.16863389542E+02 -0.10460424689E+02  0.31015875215E+02  0.36820903124E+02  0.00000000000E+00 0.  1.
         11    1    4    4    0    0  0.15437091521E+01  0.57633893055E+01 -0.32330355590E+02  0.32876307382E+02  0.51100000000E-03 0. -1.
        -11    1    4    4    0    0  0.10205330861E+02 -0.15876622184E+01 -0.47518688456E+01  0.11368804119E+02  0.51100000000E-03 0.  1.
         12    1    4    4    0    0  0.51143495289E+01  0.62846976020E+01  0.60663492208E+01  0.10121985374E+02  0.00000000000E+00 0. -1.
</event>
<event>
 8    1  0.2504019E-006  0.9118800E+02  0.7816164E-02  0.1184000E+00
        -11   -1    0    0    0    0  0.00000000000E+00  0.00000000000E+00  0.45593999997E+02  0.45594000000E+02  0.51100000000E-03 0. -1.
         11   -1    0    0    0    0 -0.00000000000E+00 -0.00000000000E+00 -0.45593999997E+02  0.45594000000E+02  0.51100000000E-03 0.  1.
         23    2    1    2    0    0  0.00000000000E+00  0.00000000000E+00  0.71054273576E-14  0.91188000000E+02  0.91188000000E+02 0.  0.
    9900012    2    3    3    0    0 -0.10914614615E+02  0.92900870030E+01  0.33916739903E+02  0.54367085096E+02  0.40000002093E+02 0.  0.
        -12    1    3    3    0    0  0.10914614615E+02 -0.92900870030E+01 -0.33916739903E+02  0.36820914904E+02  0.00000000000E+00 0.  1.
         11    1    4    4    0    0  0.43769933688E+01 -0.74413113549E+00  0.92045374376E+01  0.10219359657E+02  0.51100000000E-03 0. -1.
        -11    1    4    4    0    0 -0.70827969569E+01  0.24624840965E+01 -0.71646804506E+01  0.10371233624E+02  0.51100000000E-03 0.  1.
        -12    1    4    4    0    0 -0.82088110267E+01  0.75717340420E+01  0.31876882916E+02  0.33776491815E+02  0.00000000000E+00 0.  1.
</event>
<event>
 8    1  0.2504019E-006  0.9118800E+02  0.7816164E-02  0.1184000E+00
        -11   -1    0    0    0    0  0.00000000000E+00  0.00000000000E+00  0.45593999997E+02  0.45594000000E+02  0.51100000000E-03 0. -1.
         11   -1    0    0    0    0 -0.00000000000E+00 -0.00000000000E+00 -0.45593999997E+02  0.45594000000E+02  0.51100000000E-03 0.  1.
         23    2    1    2    0    0  0.27755575616E-15  0.00000000000E+00  0.44408920985E-15  0.91188000000E+02  0.91188000000E+02 0.  0.
    9900012    2    3    3    0    0  0.44967719460E+00 -0.36809446957E+02  0.80121158754E+00  0.54367088349E+02  0.40000009508E+02 0.  0.
         12    1    3    3    0    0 -0.44967719460E+00  0.36809446957E+02 -0.80121158754E+00  0.36820911651E+02  0.00000000000E+00 0. -1.
         11    1    4    4    0    0  0.17305393886E+01 -0.15910013997E+02  0.15994880651E+02  0.22626522474E+02  0.51100000000E-03 0. -1.
        -11    1    4    4    0    0 -0.62506071704E+01 -0.55807110618E+01  0.15359212195E+01  0.85190069965E+01  0.51100000000E-03 0.  1.
        -12    1    4    4    0    0  0.49697449764E+01 -0.15318721898E+02 -0.16729590283E+02  0.23221558878E+02  0.00000000000E+00 0.  1.
</event>
<event>
 8    1  0.2504019E-006  0.9118800E+02  0.7816164E-02  0.1184000E+00
        -11   -1    0    0    0    0  0.00000000000E+00  0.00000000000E+00  0.45593999997E+02  0.45594000000E+02  0.51100000000E-03 0. -1.
         11   -1    0    0    0    0 -0.00000000000E+00 -0.00000000000E+00 -0.45593999997E+02  0.45594000000E+02  0.51100000000E-03 0.  1.
         23    2    1    2    0    0  0.00000000000E+00  0.00000000000E+00  0.71054273576E-14  0.91188000000E+02  0.91188000000E+02 0.  0.
    9900012    2    3    3    0    0 -0.15623293820E+02 -0.53501980078E+01 -0.32910007292E+02  0.54367075128E+02  0.39999979368E+02 0.  0.
         12    1    3    3    0    0  0.15623293820E+02  0.53501980078E+01  0.32910007292E+02  0.36820924872E+02  0.00000000000E+00 0. -1.
         11    1    4    4    0    0 -0.53198430831E+01  0.49362096233E+01 -0.26767242416E+01  0.77350984997E+01  0.51100000000E-03 0. -1.
        -11    1    4    4    0    0 -0.26706479646E+00  0.95074751715E+01 -0.49315963894E+00  0.95240020176E+01  0.51100000000E-03 0.  1.
        -12    1    4    4    0    0 -0.10036385941E+02 -0.19793882803E+02 -0.29740123411E+02  0.37107974610E+02  0.00000000000E+00 0.  1.
</event>
<event>
 8    1  0.2504019E-006  0.9118800E+02  0.7816164E-02  0.1184000E+00
        -11   -1    0    0    0    0  0.00000000000E+00  0.00000000000E+00  0.45593999997E+02  0.45594000000E+02  0.51100000000E-03 0. -1.
         11   -1    0    0    0    0 -0.00000000000E+00 -0.00000000000E+00 -0.45593999997E+02  0.45594000000E+02  0.51100000000E-03 0.  1.
         23    2    1    2    0    0  0.00000000000E+00  0.00000000000E+00  0.71054273576E-14  0.91188000000E+02  0.91188000000E+02 0.  0.
    9900012    2    3    3    0    0  0.12445998729E+02 -0.28488369061E+01 -0.34536378181E+02  0.54367079670E+02  0.39999989724E+02 0.  0.
         12    1    3    3    0    0 -0.12445998729E+02  0.28488369061E+01  0.34536378181E+02  0.36820920330E+02  0.00000000000E+00 0. -1.
         11    1    4    4    0    0 -0.13873742148E+01  0.53178513344E+01  0.16972292645E+00  0.54984685286E+01  0.51100000000E-03 0. -1.
        -11    1    4    4    0    0  0.19743218783E+02 -0.12185620121E+01 -0.34471872641E+02  0.39744050938E+02  0.51100000000E-03 0.  1.
        -12    1    4    4    0    0 -0.59098458394E+01 -0.69481262284E+01 -0.23422846605E+00  0.91245602034E+01  0.00000000000E+00 0.  1.
</event>
<event>
 8    1  0.2504019E-006  0.9118800E+02  0.7816164E-02  0.1184000E+00
        -11   -1    0    0    0    0  0.00000000000E+00  0.00000000000E+00  0.45593999997E+02  0.45594000000E+02  0.51100000000E-03 0. -1.
         11   -1    0    0    0    0 -0.00000000000E+00 -0.00000000000E+00 -0.45593999997E+02  0.45594000000E+02  0.51100000000E-03 0.  1.
         23    2    1    2    0    0  0.17763568394E-14  0.00000000000E+00  0.00000000000E+00  0.91188000000E+02  0.91188000000E+02 0.  0.
    9900012    2    3    3    0    0 -0.95227910226E+01 -0.34540003463E+02 -0.84902441681E+01  0.54367087000E+02  0.40000006434E+02 0.  0.
        -12    1    3    3    0    0  0.95227910226E+01  0.34540003463E+02  0.84902441681E+01  0.36820913000E+02  0.00000000000E+00 0.  1.
         11    1    4    4    0    0 -0.25355446812E+01 -0.40878085038E+02 -0.13401439931E+02  0.43093449800E+02  0.51100000000E-03 0. -1.
        -11    1    4    4    0    0 -0.41831122747E+00  0.23656381682E+01  0.17471471819E+01  0.29704800559E+01  0.51100000000E-03 0.  1.
         12    1    4    4    0    0 -0.65689351140E+01  0.39724434060E+01  0.31640485805E+01  0.83031571444E+01  0.00000000000E+00 0. -1.
</event>
<event>
 8    1  0.2504019E-006  0.9118800E+02  0.7816164E-02  0.1184000E+00
        -11   -1    0    0    0    0  0.00000000000E+00  0.00000000000E+00  0.45593999997E+02  0.45594000000E+02  0.51100000000E-03 0. -1.
         11   -1    0    0    0    0 -0.00000000000E+00 -0.00000000000E+00 -0.45593999997E+02  0.45594000000E+02  0.51100000000E-03 0.  1.
         23    2    1    2    0    0  0.00000000000E+00  0.00000000000E+00 -0.35527136788E-14  0.91188000000E+02  0.91188000000E+02 0.  0.
    9900012    2    3    3    0    0  0.22909179892E+02 -0.23628935800E+01  0.28729188739E+02  0.54367081014E+02  0.39999992788E+02 0.  0.
        -12    1    3    3    0    0 -0.22909179892E+02  0.23628935800E+01 -0.28729188739E+02  0.36820918986E+02  0.00000000000E+00 0.  1.
         11    1    4    4    0    0  0.65802790913E+01 -0.68835125601E+01  0.18842634714E+02  0.21112264240E+02  0.51100000000E-03 0. -1.
        -11    1    4    4    0    0 -0.10364383005E+01  0.62255609317E+01  0.13974447203E+02  0.15333524975E+02  0.51100000000E-03 0.  1.
         12    1    4    4    0    0  0.17365339101E+02 -0.17049419516E+01 -0.40878931784E+01  0.17921291800E+02  0.00000000000E+00 0. -1.
</event>
<event>
 8    1  0.2504019E-006  0.9118800E+02  0.7816164E-02  0.1184000E+00
        -11   -1    0    0    0    0  0.00000000000E+00  0.00000000000E+00  0.45593999997E+02  0.45594000000E+02  0.51100000000E-03 0.  1.
         11   -1    0    0    0    0 -0.00000000000E+00 -0.00000000000E+00 -0.45593999997E+02  0.45594000000E+02  0.51100000000E-03 0. -1.
         23    2    1    2    0    0 -0.22204460493E-15 -0.35527136788E-14  0.00000000000E+00  0.91188000000E+02  0.91188000000E+02 0.  0.
    9900012    2    3    3    0    0 -0.75827807410E+00  0.26025597742E+02  0.26035985987E+02  0.54367091676E+02  0.40000017095E+02 0.  0.
        -12    1    3    3    0    0  0.75827807410E+00 -0.26025597742E+02 -0.26035985987E+02  0.36820908324E+02  0.00000000000E+00 0.  1.
         11    1    4    4    0    0  0.88202869098E+01  0.16123169422E+02  0.15810166596E+02  0.24242842685E+02  0.51100000000E-03 0. -1.
        -11    1    4    4    0    0 -0.27205447673E+01  0.17423093107E+02  0.36537324823E+01  0.18008756164E+02  0.51100000000E-03 0.  1.
        -12    1    4    4    0    0 -0.68580202166E+01 -0.75206647871E+01  0.65720869085E+01  0.12115492828E+02  0.00000000000E+00 0.  1.
</event>
<event>
 8    1  0.2504019E-006  0.9118800E+02  0.7816164E-02  0.1184000E+00
        -11   -1    0    0    0    0  0.00000000000E+00  0.00000000000E+00  0.45593999997E+02  0.45594000000E+02  0.51100000000E-03 0.  1.
         11   -1    0    0    0    0 -0.00000000000E+00 -0.00000000000E+00 -0.45593999997E+02  0.45594000000E+02  0.51100000000E-03 0. -1.
         23    2    1    2    0    0 -0.35527136788E-14  0.35527136788E-14  0.00000000000E+00  0.91188000000E+02  0.91188000000E+02 0.  0.
    9900012    2    3    3    0    0  0.28440450443E+02  0.17337683942E+02 -0.15694730947E+02  0.54367094452E+02  0.40000023422E+02 0.  0.
        -12    1    3    3    0    0 -0.28440450443E+02 -0.17337683942E+02  0.15694730947E+02  0.36820905548E+02  0.00000000000E+00 0.  1.
         11    1    4    4    0    0  0.63673790585E+01  0.20339109656E+02 -0.19728593633E+01  0.21403622871E+02  0.51100000000E-03 0. -1.
        -11    1    4    4    0    0  0.64932013193E+01  0.36764711627E+01  0.39781361400E+01  0.84559843302E+01  0.51100000000E-03 0.  1.
        -12    1    4    4    0    0  0.15579870065E+02 -0.66778968766E+01 -0.17700007724E+02  0.24507487251E+02  0.00000000000E+00 0.  1.
</event>
<event>
 8    1  0.2504019E-006  0.9118800E+02  0.7816164E-02  0.1184000E+00
        -11   -1    0    0    0    0  0.00000000000E+00  0.00000000000E+00  0.45593999997E+02  0.45594000000E+02  0.51100000000E-03 0.  1.
         11   -1    0    0    0    0 -0.00000000000E+00 -0.00000000000E+00 -0.45593999997E+02  0.45594000000E+02  0.51100000000E-03 0. -1.
         23    2    1    2    0    0  0.00000000000E+00  0.00000000000E+00  0.00000000000E+00  0.91188000000E+02  0.91188000000E+02 0.  0.
    9900012    2    3    3    0    0  0.16697067190E+02 -0.97494266842E+01  0.31335847805E+02  0.54367099263E+02  0.40000034389E+02 0.  0.
         12    1    3    3    0    0 -0.16697067190E+02  0.97494266842E+01 -0.31335847805E+02  0.36820900737E+02  0.00000000000E+00 0. -1.
         11    1    4    4    0    0 -0.83039838968E+01 -0.52336920315E+01  0.15526020861E+02  0.18368587449E+02  0.51100000000E-03 0. -1.
        -11    1    4    4    0    0  0.89143972165E+01  0.37348709066E+01  0.15071518530E+02  0.17904368447E+02  0.51100000000E-03 0.  1.
        -12    1    4    4    0    0  0.16086653871E+02 -0.82506055593E+01  0.73830841409E+00  0.18094143366E+02  0.00000000000E+00 0.  1.
</event>
<event>
 8    1  0.2504019E-006  0.9118800E+02  0.7816164E-02  0.1184000E+00
        -11   -1    0    0    0    0  0.00000000000E+00  0.00000000000E+00  0.45593999997E+02  0.45594000000E+02  0.51100000000E-03 0. -1.
         11   -1    0    0    0    0 -0.00000000000E+00 -0.00000000000E+00 -0.45593999997E+02  0.45594000000E+02  0.51100000000E-03 0.  1.
         23    2    1    2    0    0  0.71054273576E-14  0.00000000000E+00 -0.17763568394E-14  0.91188000000E+02  0.91188000000E+02 0.  0.
    9900012    2    3    3    0    0  0.27142598240E+02 -0.23508281054E+02 -0.81496546495E+01  0.54367125645E+02  0.40000094534E+02 0.  0.
        -12    1    3    3    0    0 -0.27142598240E+02  0.23508281054E+02  0.81496546495E+01  0.36820874355E+02  0.00000000000E+00 0.  1.
         11    1    4    4    0    0  0.15809090414E+02 -0.27222510011E+02  0.45575180373E+01  0.31808227897E+02  0.51100000000E-03 0. -1.
        -11    1    4    4    0    0  0.81377263741E+00 -0.29323698113E+01 -0.91114748205E+01  0.96062475651E+01  0.51100000000E-03 0.  1.
        -12    1    4    4    0    0  0.10519735189E+02  0.66465987685E+01 -0.35956978663E+01  0.12952650184E+02  0.00000000000E+00 0.  1.
</event>
<event>
 8    1  0.2504019E-006  0.9118800E+02  0.7816164E-02  0.1184000E+00
        -11   -1    0    0    0    0  0.00000000000E+00  0.00000000000E+00  0.45593999997E+02  0.45594000000E+02  0.51100000000E-03 0. -1.
         11   -1    0    0    0    0 -0.00000000000E+00 -0.00000000000E+00 -0.45593999997E+02  0.45594000000E+02  0.51100000000E-03 0.  1.
         23    2    1    2    0    0  0.00000000000E+00 -0.17763568394E-14  0.00000000000E+00  0.91188000000E+02  0.91188000000E+02 0.  0.
    9900012    2    3    3    0    0  0.24313294220E+02  0.14241967673E+02 -0.23702518394E+02  0.54367091574E+02  0.40000016862E+02 0.  0.
         12    1    3    3    0    0 -0.24313294220E+02 -0.14241967673E+02  0.23702518394E+02  0.36820908426E+02  0.00000000000E+00 0. -1.
         11    1    4    4    0    0  0.96045937546E+01 -0.11172678861E+02  0.90512465143E+00  0.14761308378E+02  0.51100000000E-03 0. -1.
        -11    1    4    4    0    0  0.82535580724E+01  0.70373205232E+01 -0.49169558543E+01  0.11908885596E+02  0.51100000000E-03 0.  1.
         12    1    4    4    0    0  0.64551423935E+01  0.18377326011E+02 -0.19690687192E+02  0.27696897601E+02  0.00000000000E+00 0. -1.
</event>
<event>
 8    1  0.2504019E-006  0.9118800E+02  0.7816164E-02  0.1184000E+00
        -11   -1    0    0    0    0  0.00000000000E+00  0.00000000000E+00  0.45593999997E+02  0.45594000000E+02  0.51100000000E-03 0.  1.
         11   -1    0    0    0    0 -0.00000000000E+00 -0.00000000000E+00 -0.45593999997E+02  0.45594000000E+02  0.51100000000E-03 0. -1.
         23    2    1    2    0    0  0.17763568394E-14 -0.88817841970E-15  0.00000000000E+00  0.91188000000E+02  0.91188000000E+02 0.  0.
    9900012    2    3    3    0    0  0.14741091927E+02  0.58905825580E+01  0.33223202742E+02  0.54367082650E+02  0.39999996518E+02 0.  0.
         12    1    3    3    0    0 -0.14741091927E+02 -0.58905825580E+01 -0.33223202742E+02  0.36820917350E+02  0.00000000000E+00 0. -1.
         11    1    4    4    0    0  0.13254639285E+01 -0.17807627684E+01  0.23633968140E+01  0.32424705742E+01  0.51100000000E-03 0. -1.
        -11    1    4    4    0    0 -0.73026209777E+01  0.90202804575E+01  0.27816641608E+02  0.30140658309E+02  0.51100000000E-03 0.  1.
        -12    1    4    4    0    0  0.20718248976E+02 -0.13489351311E+01  0.30431643196E+01  0.20983953767E+02  0.00000000000E+00 0.  1.
</event>
<event>
 8    1  0.2504019E-006  0.9118800E+02  0.7816164E-02  0.1184000E+00
        -11   -1    0    0    0    0  0.00000000000E+00  0.00000000000E+00  0.45593999997E+02  0.45594000000E+02  0.51100000000E-03 0. -1.
         11   -1    0    0    0    0 -0.00000000000E+00 -0.00000000000E+00 -0.45593999997E+02  0.45594000000E+02  0.51100000000E-03 0.  1.
         23    2    1    2    0    0  0.00000000000E+00  0.00000000000E+00 -0.17763568394E-14  0.91188000000E+02  0.91188000000E+02 0.  0.
    9900012    2    3    3    0    0 -0.33798198130E+02 -0.16109684047E+01  0.14521411261E+02  0.54367016838E+02  0.39999846484E+02 0.  0.
        -12    1    3    3    0    0  0.33798198130E+02  0.16109684047E+01 -0.14521411261E+02  0.36820983162E+02  0.00000000000E+00 0.  1.
         11    1    4    4    0    0 -0.35772679537E+02 -0.15777893042E+01  0.38419891898E+01  0.36012982403E+02  0.51100000000E-03 0. -1.
        -11    1    4    4    0    0  0.23701772183E+01 -0.35206657911E+01 -0.23560845128E+01  0.48542725666E+01  0.51100000000E-03 0.  1.
         12    1    4    4    0    0 -0.39569581115E+00  0.34874866905E+01  0.13035506584E+02  0.13499761868E+02  0.00000000000E+00 0. -1.
</event>
<event>
 8    1  0.2504019E-006  0.9118800E+02  0.7816164E-02  0.1184000E+00
        -11   -1    0    0    0    0  0.00000000000E+00  0.00000000000E+00  0.45593999997E+02  0.45594000000E+02  0.51100000000E-03 0.  1.
         11   -1    0    0    0    0 -0.00000000000E+00 -0.00000000000E+00 -0.45593999997E+02  0.45594000000E+02  0.51100000000E-03 0. -1.
         23    2    1    2    0    0 -0.35527136788E-14  0.88817841970E-15  0.00000000000E+00  0.91188000000E+02  0.91188000000E+02 0.  0.
    9900012    2    3    3    0    0 -0.18577807184E+02 -0.11641142594E+01  0.31769311257E+02  0.54367092630E+02  0.40000019269E+02 0.  0.
         12    1    3    3    0    0  0.18577807184E+02  0.11641142594E+01 -0.31769311257E+02  0.36820907370E+02  0.00000000000E+00 0. -1.
         11    1    4    4    0    0 -0.18909057436E+02  0.20159476949E+01  0.21357599510E+02  0.28596565447E+02  0.51100000000E-03 0.  1.
        -11    1    4    4    0    0  0.20204151569E+01  0.97988230371E+01  0.19731463563E+01  0.10197662336E+02  0.51100000000E-03 0. -1.
         12    1    4    4    0    0 -0.16891649048E+01 -0.12978884991E+02  0.84385653905E+01  0.15572864847E+02  0.00000000000E+00 0. -1.
</event>
<event>
 8    1  0.2504019E-006  0.9118800E+02  0.7816164E-02  0.1184000E+00
        -11   -1    0    0    0    0  0.00000000000E+00  0.00000000000E+00  0.45593999997E+02  0.45594000000E+02  0.51100000000E-03 0.  1.
         11   -1    0    0    0    0 -0.00000000000E+00 -0.00000000000E+00 -0.45593999997E+02  0.45594000000E+02  0.51100000000E-03 0. -1.
         23    2    1    2    0    0 -0.35527136788E-14 -0.35527136788E-14  0.71054273576E-14  0.91188000000E+02  0.91188000000E+02 0.  0.
    9900012    2    3    3    0    0  0.19259237994E+02  0.20593581650E+02 -0.23680530630E+02  0.54367063236E+02  0.39999952259E+02 0.  0.
        -12    1    3    3    0    0 -0.19259237994E+02 -0.20593581650E+02  0.23680530630E+02  0.36820936764E+02  0.00000000000E+00 0.  1.
         11    1    4    4    0    0  0.50527566037E+01  0.25909374592E+02 -0.16024181745E+02  0.30880421660E+02  0.51100000000E-03 0. -1.
        -11    1    4    4    0    0 -0.16663004799E+00 -0.37319871119E+00 -0.82651579787E+01  0.82752570670E+01  0.51100000000E-03 0.  1.
        -12    1    4    4    0    0  0.14373111438E+02 -0.49425942314E+01  0.60880909349E+00  0.15211384508E+02  0.00000000000E+00 0.  1.
</event>
<event>
 8    1  0.2504019E-006  0.9118800E+02  0.7816164E-02  0.1184000E+00
        -11   -1    0    0    0    0  0.00000000000E+00  0.00000000000E+00  0.45593999997E+02  0.45594000000E+02  0.51100000000E-03 0.  1.
         11   -1    0    0    0    0 -0.00000000000E+00 -0.00000000000E+00 -0.45593999997E+02  0.45594000000E+02  0.51100000000E-03 0. -1.
         23    2    1    2    0    0  0.00000000000E+00  0.00000000000E+00  0.00000000000E+00  0.91188000000E+02  0.91188000000E+02 0.  0.
    9900012    2    3    3    0    0 -0.28842646468E+02 -0.17812216280E+02 -0.14373929711E+02  0.54367039130E+02  0.39999897304E+02 0.  0.
        -12    1    3    3    0    0  0.28842646468E+02  0.17812216280E+02  0.14373929711E+02  0.36820960870E+02  0.00000000000E+00 0.  1.
         11    1    4    4    0    0 -0.26204051419E+02 -0.20547767409E+02  0.37982115229E+01  0.33515510847E+02  0.51100000000E-03 0. -1.
        -11    1    4    4    0    0 -0.54264896179E+01  0.22736620126E+00 -0.59002853845E+01  0.80194671171E+01  0.51100000000E-03 0.  1.
        -12    1    4    4    0    0  0.27878945694E+01  0.25081849281E+01 -0.12271855850E+02  0.12832061166E+02  0.00000000000E+00 0.  1.
</event>
<event>
 8    1  0.2504019E-006  0.9118800E+02  0.7816164E-02  0.1184000E+00
        -11   -1    0    0    0    0  0.00000000000E+00  0.00000000000E+00  0.45593999997E+02  0.45594000000E+02  0.51100000000E-03 0. -1.
         11   -1    0    0    0    0 -0.00000000000E+00 -0.00000000000E+00 -0.45593999997E+02  0.45594000000E+02  0.51100000000E-03 0.  1.
         23    2    1    2    0    0  0.00000000000E+00  0.88817841970E-15  0.71054273576E-14  0.91188000000E+02  0.91188000000E+02 0.  0.
    9900012    2    3    3    0    0 -0.88969567358E+01  0.26011921676E+01 -0.35635068069E+02  0.54367080455E+02  0.39999991513E+02 0.  0.
         12    1    3    3    0    0  0.88969567358E+01 -0.26011921676E+01  0.35635068069E+02  0.36820919545E+02  0.00000000000E+00 0. -1.
         11    1    4    4    0    0 -0.43459279702E+01 -0.29559953274E+01  0.62442830694E+01  0.81618667968E+01  0.51100000000E-03 0. -1.
        -11    1    4    4    0    0  0.26017461450E+01  0.22482802210E+01  0.15145391422E+00  0.34419159642E+01  0.51100000000E-03 0.  1.
         12    1    4    4    0    0 -0.71527749106E+01  0.33089072740E+01 -0.42030805053E+02  0.42763297694E+02  0.00000000000E+00 0. -1.
</event>
<event>
 8    1  0.2504019E-006  0.9118800E+02  0.7816164E-02  0.1184000E+00
        -11   -1    0    0    0    0  0.00000000000E+00  0.00000000000E+00  0.45593999997E+02  0.45594000000E+02  0.51100000000E-03 0.  1.
         11   -1    0    0    0    0 -0.00000000000E+00 -0.00000000000E+00 -0.45593999997E+02  0.45594000000E+02  0.51100000000E-03 0. -1.
         23    2    1    2    0    0  0.88817841970E-15  0.35527136788E-14  0.00000000000E+00  0.91188000000E+02  0.91188000000E+02 0.  0.
    9900012    2    3    3    0    0 -0.31493880275E+01 -0.10510980019E+02  0.35147981697E+02  0.54367082531E+02  0.39999996245E+02 0.  0.
         12    1    3    3    0    0  0.31493880275E+01  0.10510980019E+02 -0.35147981697E+02  0.36820917469E+02  0.00000000000E+00 0. -1.
         11    1    4    4    0    0  0.16288705247E+01  0.68853552901E+01  0.80156204390E+01  0.10691655996E+02  0.51100000000E-03 0. -1.
        -11    1    4    4    0    0  0.43108143163E+01  0.69810550899E+01  0.62240555723E+01  0.10298403676E+02  0.51100000000E-03 0.  1.
        -12    1    4    4    0    0 -0.90890728685E+01 -0.24377390399E+02  0.20908305686E+02  0.33377022859E+02  0.00000000000E+00 0.  1.
</event>
<event>
 8    1  0.2504019E-006  0.9118800E+02  0.7816164E-02  0.1184000E+00
        -11   -1    0    0    0    0  0.00000000000E+00  0.00000000000E+00  0.45593999997E+02  0.45594000000E+02  0.51100000000E-03 0. -1.
         11   -1    0    0    0    0 -0.00000000000E+00 -0.00000000000E+00 -0.45593999997E+02  0.45594000000E+02  0.51100000000E-03 0.  1.
         23    2    1    2    0    0 -0.35527136788E-14  0.00000000000E+00  0.35527136788E-14  0.91188000000E+02  0.91188000000E+02 0.  0.
    9900012    2    3    3    0    0  0.20222376603E+02  0.47214689757E+01 -0.30406293526E+02  0.54367089219E+02  0.40000011492E+02 0.  0.
         12    1    3    3    0    0 -0.20222376603E+02 -0.47214689757E+01  0.30406293526E+02  0.36820910781E+02  0.00000000000E+00 0. -1.
         11    1    4    4    0    0  0.20531200049E+02  0.62861897430E+01  0.34743975170E+00  0.21474800851E+02  0.51100000000E-03 0. -1.
        -11    1    4    4    0    0  0.54126707793E+01 -0.18173563004E+01 -0.18603488891E+02  0.19459948306E+02  0.51100000000E-03 0.  1.
         12    1    4    4    0    0 -0.57214942256E+01  0.25263553305E+00 -0.12150244387E+02  0.13432340062E+02  0.00000000000E+00 0. -1.
</event>
<event>
 8    1  0.2504019E-006  0.9118800E+02  0.7816164E-02  0.1184000E+00
        -11   -1    0    0    0    0  0.00000000000E+00  0.00000000000E+00  0.45593999997E+02  0.45594000000E+02  0.51100000000E-03 0.  1.
         11   -1    0    0    0    0 -0.00000000000E+00 -0.00000000000E+00 -0.45593999997E+02  0.45594000000E+02  0.51100000000E-03 0. -1.
         23    2    1    2    0    0  0.22204460493E-15 -0.17763568394E-14  0.71054273576E-14  0.91188000000E+02  0.91188000000E+02 0.  0.
    9900012    2    3    3    0    0 -0.14736306831E+01 -0.86545578413E+01  0.35758975092E+02  0.54367119260E+02  0.40000079977E+02 0.  0.
         12    1    3    3    0    0  0.14736306831E+01  0.86545578413E+01 -0.35758975092E+02  0.36820880740E+02  0.00000000000E+00 0. -1.
         11    1    4    4    0    0  0.48469170353E+01 -0.49186267096E+01  0.94683529819E+01  0.11719010278E+02  0.51100000000E-03 0. -1.
        -11    1    4    4    0    0  0.69773669885E+01 -0.52964302785E+01  0.27824985538E+02  0.29171315436E+02  0.51100000000E-03 0.  1.
        -12    1    4    4    0    0 -0.13297914707E+02  0.15604991467E+01 -0.15343634280E+01  0.13476793546E+02  0.00000000000E+00 0.  1.
</event>
<event>
 8    1  0.2504019E-006  0.9118800E+02  0.7816164E-02  0.1184000E+00
        -11   -1    0    0    0    0  0.00000000000E+00  0.00000000000E+00  0.45593999997E+02  0.45594000000E+02  0.51100000000E-03 0. -1.
         11   -1    0    0    0    0 -0.00000000000E+00 -0.00000000000E+00 -0.45593999997E+02  0.45594000000E+02  0.51100000000E-03 0.  1.
         23    2    1    2    0    0  0.00000000000E+00 -0.17763568394E-14  0.00000000000E+00  0.91188000000E+02  0.91188000000E+02 0.  0.
    9900012    2    3    3    0    0  0.15933385517E+02  0.86667858691E+01  0.32043598357E+02  0.54367107194E+02  0.40000052470E+02 0.  0.
        -12    1    3    3    0    0 -0.15933385517E+02 -0.86667858691E+01 -0.32043598357E+02  0.36820892806E+02  0.00000000000E+00 0.  1.
         11    1    4    4    0    0  0.15809830337E+02  0.17087642320E+00  0.37864894067E+02  0.41033280847E+02  0.51100000000E-03 0. -1.
        -11    1    4    4    0    0  0.35658294761E+01  0.75765883205E+01 -0.34656647657E+01  0.90625969214E+01  0.51100000000E-03 0.  1.
         12    1    4    4    0    0 -0.34422742963E+01  0.91932112544E+00 -0.23556309445E+01  0.42712294260E+01  0.00000000000E+00 0. -1.
</event>
<event>
 8    1  0.2504019E-006  0.9118800E+02  0.7816164E-02  0.1184000E+00
        -11   -1    0    0    0    0  0.00000000000E+00  0.00000000000E+00  0.45593999997E+02  0.45594000000E+02  0.51100000000E-03 0.  1.
         11   -1    0    0    0    0 -0.00000000000E+00 -0.00000000000E+00 -0.45593999997E+02  0.45594000000E+02  0.51100000000E-03 0. -1.
         23    2    1    2    0    0  0.00000000000E+00 -0.44408920985E-15 -0.44408920985E-15  0.91188000000E+02  0.91188000000E+02 0.  0.
    9900012    2    3    3    0    0  0.36802369341E+02 -0.10824880555E+01 -0.44206322275E+00  0.54367060449E+02  0.39999945906E+02 0.  0.
        -12    1    3    3    0    0 -0.36802369341E+02  0.10824880555E+01  0.44206322275E+00  0.36820939551E+02  0.00000000000E+00 0.  1.
         11    1    4    4    0    0  0.18353308910E+02  0.42109280693E+01  0.45294976923E+01  0.19367297508E+02  0.51100000000E-03 0. -1.
        -11    1    4    4    0    0  0.21054512539E+02  0.67407864915E+01 -0.50922355498E+01  0.22686153573E+02  0.51100000000E-03 0.  1.
        -12    1    4    4    0    0 -0.26054521082E+01 -0.12034202616E+02  0.12067463467E+00  0.12313609368E+02  0.00000000000E+00 0.  1.
</event>
<event>
 8    1  0.2504019E-006  0.9118800E+02  0.7816164E-02  0.1184000E+00
        -11   -1    0    0    0    0  0.00000000000E+00  0.00000000000E+00  0.45593999997E+02  0.45594000000E+02  0.51100000000E-03 0. -1.
         11   -1    0    0    0    0 -0.00000000000E+00 -0.00000000000E+00 -0.45593999997E+02  0.45594000000E+02  0.51100000000E-03 0.  1.
         23    2    1    2    0    0 -0.44408920985E-15  0.17763568394E-14  0.00000000000E+00  0.91188000000E+02  0.91188000000E+02 0.  0.
    9900012    2    3    3    0    0  0.35021315729E+01 -0.11091755891E+02 -0.34935477917E+02  0.54367087578E+02  0.40000007752E+02 0.  0.
         12    1    3    3    0    0 -0.35021315729E+01  0.11091755891E+02  0.34935477917E+02  0.36820912422E+02  0.00000000000E+00 0. -1.
         11    1    4    4    0    0 -0.11044627148E+02 -0.17411216080E+02 -0.25635134243E+02  0.32898242235E+02  0.51100000000E-03 0.  1.
        -11    1    4    4    0    0  0.54519518805E+01 -0.84577921672E+00 -0.81386726883E+01  0.98324521448E+01  0.51100000000E-03 0. -1.
         12    1    4    4    0    0  0.90948068403E+01  0.71652394053E+01 -0.11616709853E+01  0.11636393199E+02  0.00000000000E+00 0. -1.
</event>
<event>
 8    1  0.2504019E-006  0.9118800E+02  0.7816164E-02  0.1184000E+00
        -11   -1    0    0    0    0  0.00000000000E+00  0.00000000000E+00  0.45593999997E+02  0.45594000000E+02  0.51100000000E-03 0.  1.
         11   -1    0    0    0    0 -0.00000000000E+00 -0.00000000000E+00 -0.45593999997E+02  0.45594000000E+02  0.51100000000E-03 0. -1.
         23    2    1    2    0    0 -0.17763568394E-14  0.00000000000E+00  0.10658141036E-13  0.91188000000E+02  0.91188000000E+02 0.  0.
    9900012    2    3    3    0    0 -0.12979660300E+02 -0.13257469363E+02  0.31804834618E+02  0.54367087728E+02  0.40000008095E+02 0.  0.
         12    1    3    3    0    0  0.12979660300E+02  0.13257469363E+02 -0.31804834618E+02  0.36820912272E+02  0.00000000000E+00 0. -1.
         11    1    4    4    0    0 -0.50456443313E+01 -0.36918194794E+01 -0.45582825658E+01  0.77373120654E+01  0.51100000000E-03 0. -1.
        -11    1    4    4    0    0 -0.11174196859E+02 -0.18970896776E+01  0.23012981131E+01  0.11565361990E+02  0.51100000000E-03 0.  1.
         12    1    4    4    0    0  0.32401808905E+01 -0.76685602058E+01  0.34061819071E+02  0.35064413673E+02  0.00000000000E+00 0. -1.
</event>
<event>
 8    1  0.2504019E-006  0.9118800E+02  0.7816164E-02  0.1184000E+00
        -11   -1    0    0    0    0  0.00000000000E+00  0.00000000000E+00  0.45593999997E+02  0.45594000000E+02  0.51100000000E-03 0. -1.
         11   -1    0    0    0    0 -0.00000000000E+00 -0.00000000000E+00 -0.45593999997E+02  0.45594000000E+02  0.51100000000E-03 0.  1.
         23    2    1    2    0    0 -0.35527136788E-14  0.00000000000E+00 -0.35527136788E-14  0.91188000000E+02  0.91188000000E+02 0.  0.
    9900012    2    3    3    0    0  0.26533297317E+02  0.23427207484E+02  0.10145431129E+02  0.54367086244E+02  0.40000004711E+02 0.  0.
         12    1    3    3    0    0 -0.26533297317E+02 -0.23427207484E+02 -0.10145431129E+02  0.36820913756E+02  0.00000000000E+00 0. -1.
         11    1    4    4    0    0  0.11855191046E+02 -0.92552324705E+00 -0.96111610193E+01  0.15289753576E+02  0.51100000000E-03 0.  1.
        -11    1    4    4    0    0  0.10738929746E+02  0.38632537469E+01  0.18083435874E+01  0.11555061592E+02  0.51100000000E-03 0. -1.
         12    1    4    4    0    0  0.39391765255E+01  0.20489476984E+02  0.17948248561E+02  0.27522271076E+02  0.00000000000E+00 0. -1.
</event>
<event>
 8    1  0.2504019E-006  0.9118800E+02  0.7816164E-02  0.1184000E+00
        -11   -1    0    0    0    0  0.00000000000E+00  0.00000000000E+00  0.45593999997E+02  0.45594000000E+02  0.51100000000E-03 0. -1.
         11   -1    0    0    0    0 -0.00000000000E+00 -0.00000000000E+00 -0.45593999997E+02  0.45594000000E+02  0.51100000000E-03 0.  1.
         23    2    1    2    0    0  0.22204460493E-14  0.00000000000E+00  0.00000000000E+00  0.91188000000E+02  0.91188000000E+02 0.  0.
    9900012    2    3    3    0    0  0.17566112875E+01 -0.29018009887E+02  0.22597568694E+02  0.54367072637E+02  0.39999973691E+02 0.  0.
        -12    1    3    3    0    0 -0.17566112875E+01  0.29018009887E+02 -0.22597568694E+02  0.36820927363E+02  0.00000000000E+00 0.  1.
         11    1    4    4    0    0  0.18691124543E+02 -0.20853397759E+02  0.21876163905E+02  0.35535740913E+02  0.51100000000E-03 0. -1.
        -11    1    4    4    0    0 -0.49711497245E+01 -0.19947520718E+01  0.26221344092E+00  0.53628464048E+01  0.51100000000E-03 0.  1.
         12    1    4    4    0    0 -0.11963363531E+02 -0.61698600556E+01  0.45919134752E+00  0.13468485319E+02  0.00000000000E+00 0. -1.
</event>
<event>
 8    1  0.2504019E-006  0.9118800E+02  0.7816164E-02  0.1184000E+00
        -11   -1    0    0    0    0  0.00000000000E+00  0.00000000000E+00  0.45593999997E+02  0.45594000000E+02  0.51100000000E-03 0.  1.
         11   -1    0    0    0    0 -0.00000000000E+00 -0.00000000000E+00 -0.45593999997E+02  0.45594000000E+02  0.51100000000E-03 0. -1.
         23    2    1    2    0    0 -0.17763568394E-14 -0.88817841970E-15  0.00000000000E+00  0.91188000000E+02  0.91188000000E+02 0.  0.
    9900012    2    3    3    0    0  0.14097964038E+02  0.36155184363E+01  0.33822406078E+02  0.54367085882E+02  0.40000003886E+02 0.  0.
         12    1    3    3    0    0 -0.14097964038E+02 -0.36155184363E+01 -0.33822406078E+02  0.36820914118E+02  0.00000000000E+00 0. -1.
         11    1    4    4    0    0  0.32744543408E+01 -0.63598418396E+01  0.50797806392E+01  0.87734720071E+01  0.51100000000E-03 0. -1.
        -11    1    4    4    0    0  0.14204521138E+02  0.38719110803E+01 -0.12729842562E+01  0.14777706363E+02  0.51100000000E-03 0.  1.
        -12    1    4    4    0    0 -0.33810114409E+01  0.61034491956E+01  0.30015609695E+02  0.30815907512E+02  0.00000000000E+00 0.  1.
</event>
<event>
 8    1  0.2504019E-006  0.9118800E+02  0.7816164E-02  0.1184000E+00
        -11   -1    0    0    0    0  0.00000000000E+00  0.00000000000E+00  0.45593999997E+02  0.45594000000E+02  0.51100000000E-03 0.  1.
         11   -1    0    0    0    0 -0.00000000000E+00 -0.00000000000E+00 -0.45593999997E+02  0.45594000000E+02  0.51100000000E-03 0. -1.
         23    2    1    2    0    0  0.17763568394E-14  0.35527136788E-14  0.00000000000E+00  0.91188000000E+02  0.91188000000E+02 0.  0.
    9900012    2    3    3    0    0 -0.10071827229E+02 -0.28119387728E+02 -0.21532299533E+02  0.54367060399E+02  0.39999945793E+02 0.  0.
        -12    1    3    3    0    0  0.10071827229E+02  0.28119387728E+02  0.21532299533E+02  0.36820939601E+02  0.00000000000E+00 0.  1.
         11    1    4    4    0    0 -0.12102587702E+02 -0.25469263495E+02 -0.18115070499E+02  0.33515843888E+02  0.51100000000E-03 0. -1.
        -11    1    4    4    0    0  0.95492302253E+01 -0.17442516267E+01 -0.74823592126E+01  0.12256260085E+02  0.51100000000E-03 0.  1.
         12    1    4    4    0    0 -0.75184697516E+01 -0.90587260549E+00  0.40651301793E+01  0.85949564256E+01  0.00000000000E+00 0. -1.
</event>
<event>
 8    1  0.2504019E-006  0.9118800E+02  0.7816164E-02  0.1184000E+00
        -11   -1    0    0    0    0  0.00000000000E+00  0.00000000000E+00  0.45593999997E+02  0.45594000000E+02  0.51100000000E-03 0.  1.
         11   -1    0    0    0    0 -0.00000000000E+00 -0.00000000000E+00 -0.45593999997E+02  0.45594000000E+02  0.51100000000E-03 0. -1.
         23    2    1    2    0    0  0.17763568394E-14  0.00000000000E+00  0.71054273576E-14  0.91188000000E+02  0.91188000000E+02 0.  0.
    9900012    2    3    3    0    0 -0.98188400349E+01  0.85461081650E+01 -0.34443207433E+02  0.54367080366E+02  0.39999991311E+02 0.  0.
        -12    1    3    3    0    0  0.98188400349E+01 -0.85461081650E+01  0.34443207433E+02  0.36820919634E+02  0.00000000000E+00 0.  1.
         11    1    4    4    0    0  0.27467679937E+01 -0.17331853621E+01 -0.36264230627E+01  0.48682245635E+01  0.51100000000E-03 0. -1.
        -11    1    4    4    0    0 -0.73960425076E+01 -0.87530497075E+01  0.15834555636E+01  0.11568260705E+02  0.51100000000E-03 0.  1.
         12    1    4    4    0    0 -0.51695655209E+01  0.19032343235E+02 -0.32400239934E+02  0.37930595098E+02  0.00000000000E+00 0. -1.
</event>
<event>
 8    1  0.2504019E-006  0.9118800E+02  0.7816164E-02  0.1184000E+00
        -11   -1    0    0    0    0  0.00000000000E+00  0.00000000000E+00  0.45593999997E+02  0.45594000000E+02  0.51100000000E-03 0.  1.
         11   -1    0    0    0    0 -0.00000000000E+00 -0.00000000000E+00 -0.45593999997E+02  0.45594000000E+02  0.51100000000E-03 0. -1.
         23    2    1    2    0    0  0.00000000000E+00  0.44408920985E-15 -0.35527136788E-14  0.91188000000E+02  0.91188000000E+02 0.  0.
    9900012    2    3    3    0    0 -0.30271620660E+02  0.31475838000E+01  0.20724274152E+02  0.54367165676E+02  0.40000185792E+02 0.  0.
         12    1    3    3    0    0  0.30271620660E+02 -0.31475838000E+01 -0.20724274152E+02  0.36820834324E+02  0.00000000000E+00 0. -1.
         11    1    4    4    0    0 -0.28263108316E+01 -0.99223709932E+01 -0.15653987397E+01  0.10435130690E+02  0.51100000000E-03 0. -1.
        -11    1    4    4    0    0 -0.18448711613E+02 -0.36600216705E+01  0.99197978115E+01  0.21263892111E+02  0.51100000000E-03 0.  1.
        -12    1    4    4    0    0 -0.89965982152E+01  0.16729976464E+02  0.12369875080E+02  0.22668142875E+02  0.00000000000E+00 0.  1.
</event>
<event>
 8    1  0.2504019E-006  0.9118800E+02  0.7816164E-02  0.1184000E+00
        -11   -1    0    0    0    0  0.00000000000E+00  0.00000000000E+00  0.45593999997E+02  0.45594000000E+02  0.51100000000E-03 0.  1.
         11   -1    0    0    0    0 -0.00000000000E+00 -0.00000000000E+00 -0.45593999997E+02  0.45594000000E+02  0.51100000000E-03 0. -1.
         23    2    1    2    0    0  0.00000000000E+00  0.00000000000E+00  0.35527136788E-14  0.91188000000E+02  0.91188000000E+02 0.  0.
    9900012    2    3    3    0    0  0.12170256170E+02  0.29812268123E+02  0.17857599141E+02  0.54367077782E+02  0.39999985420E+02 0.  0.
         12    1    3    3    0    0 -0.12170256170E+02 -0.29812268123E+02 -0.17857599141E+02  0.36820922218E+02  0.00000000000E+00 0. -1.
         11    1    4    4    0    0  0.11019600436E+02  0.42668660870E+01  0.36857805239E+01  0.12378316457E+02  0.51100000000E-03 0. -1.
        -11    1    4    4    0    0  0.52318944747E+00  0.29347247680E+02  0.22252488675E+01  0.29436141160E+02  0.51100000000E-03 0.  1.
        -12    1    4    4    0    0  0.62746628707E+00 -0.38018456441E+01  0.11946569750E+02  0.12552620166E+02  0.00000000000E+00 0.  1.
</event>
<event>
 8    1  0.2504019E-006  0.9118800E+02  0.7816164E-02  0.1184000E+00
        -11   -1    0    0    0    0  0.00000000000E+00  0.00000000000E+00  0.45593999997E+02  0.45594000000E+02  0.51100000000E-03 0. -1.
         11   -1    0    0    0    0 -0.00000000000E+00 -0.00000000000E+00 -0.45593999997E+02  0.45594000000E+02  0.51100000000E-03 0.  1.
         23    2    1    2    0    0  0.00000000000E+00 -0.44408920985E-15  0.00000000000E+00  0.91188000000E+02  0.91188000000E+02 0.  0.
    9900012    2    3    3    0    0  0.32411669352E+02 -0.32522679310E+01 -0.17166389812E+02  0.54367102454E+02  0.40000041665E+02 0.  0.
         12    1    3    3    0    0 -0.32411669352E+02  0.32522679310E+01  0.17166389812E+02  0.36820897546E+02  0.00000000000E+00 0. -1.
         11    1    4    4    0    0 -0.39750038410E+01 -0.35454184080E+01  0.51707138207E-01  0.53266613476E+01  0.51100000000E-03 0. -1.
        -11    1    4    4    0    0  0.13000764332E+02 -0.68422854260E+01 -0.19577249757E+02  0.24476630719E+02  0.51100000000E-03 0.  1.
        -12    1    4    4    0    0  0.23385908861E+02  0.71354359030E+01  0.23591528061E+01  0.24563810388E+02  0.00000000000E+00 0.  1.
</event>
<event>
 8    1  0.2504019E-006  0.9118800E+02  0.7816164E-02  0.1184000E+00
        -11   -1    0    0    0    0  0.00000000000E+00  0.00000000000E+00  0.45593999997E+02  0.45594000000E+02  0.51100000000E-03 0.  1.
         11   -1    0    0    0    0 -0.00000000000E+00 -0.00000000000E+00 -0.45593999997E+02  0.45594000000E+02  0.51100000000E-03 0. -1.
         23    2    1    2    0    0  0.00000000000E+00  0.00000000000E+00  0.00000000000E+00  0.91188000000E+02  0.91188000000E+02 0.  0.
    9900012    2    3    3    0    0 -0.26908109446E+02  0.19159179315E+02  0.16268366209E+02  0.54367078704E+02  0.39999987521E+02 0.  0.
         12    1    3    3    0    0  0.26908109446E+02 -0.19159179315E+02 -0.16268366209E+02  0.36820921296E+02  0.00000000000E+00 0. -1.
         11    1    4    4    0    0 -0.10431835168E+01 -0.78541449223E+00 -0.97743282590E+01  0.98611663078E+01  0.51100000000E-03 0. -1.
        -11    1    4    4    0    0 -0.13561693248E+02  0.18520459364E+02  0.12438456892E+02  0.26108277403E+02  0.51100000000E-03 0.  1.
        -12    1    4    4    0    0 -0.12303232682E+02  0.14241344429E+01  0.13604237576E+02  0.18397634994E+02  0.00000000000E+00 0.  1.
</event>
<event>
 8    1  0.2504019E-006  0.9118800E+02  0.7816164E-02  0.1184000E+00
        -11   -1    0    0    0    0  0.00000000000E+00  0.00000000000E+00  0.45593999997E+02  0.45594000000E+02  0.51100000000E-03 0.  1.
         11   -1    0    0    0    0 -0.00000000000E+00 -0.00000000000E+00 -0.45593999997E+02  0.45594000000E+02  0.51100000000E-03 0. -1.
         23    2    1    2    0    0 -0.17763568394E-14  0.00000000000E+00  0.00000000000E+00  0.91188000000E+02  0.91188000000E+02 0.  0.
    9900012    2    3    3    0    0  0.81212256544E+01 -0.25036632201E+02  0.25748618437E+02  0.54367100913E+02  0.40000038152E+02 0.  0.
         12    1    3    3    0    0 -0.81212256544E+01  0.25036632201E+02 -0.25748618437E+02  0.36820899087E+02  0.00000000000E+00 0. -1.
         11    1    4    4    0    0  0.32392286999E+01 -0.25073666525E+02  0.63443131151E+01  0.26065910011E+02  0.51100000000E-03 0. -1.
        -11    1    4    4    0    0  0.91611125053E+01  0.68066894666E+01  0.65581476443E+01  0.13163065928E+02  0.51100000000E-03 0.  1.
        -12    1    4    4    0    0 -0.42791155508E+01 -0.67696551432E+01  0.12846157678E+02  0.15138124975E+02  0.00000000000E+00 0.  1.
</event>
<event>
 8    1  0.2504019E-006  0.9118800E+02  0.7816164E-02  0.1184000E+00
        -11   -1    0    0    0    0  0.00000000000E+00  0.00000000000E+00  0.45593999997E+02  0.45594000000E+02  0.51100000000E-03 0. -1.
         11   -1    0    0    0    0 -0.00000000000E+00 -0.00000000000E+00 -0.45593999997E+02  0.45594000000E+02  0.51100000000E-03 0.  1.
         23    2    1    2    0    0  0.00000000000E+00  0.00000000000E+00  0.17763568394E-14  0.91188000000E+02  0.91188000000E+02 0.  0.
    9900012    2    3    3    0    0 -0.22805490476E+02 -0.27089024648E+02  0.10093202132E+02  0.54367104010E+02  0.40000045213E+02 0.  0.
        -12    1    3    3    0    0  0.22805490476E+02  0.27089024648E+02 -0.10093202132E+02  0.36820895990E+02  0.00000000000E+00 0.  1.
         11    1    4    4    0    0  0.51716024963E+01  0.42062761128E+00  0.29661188859E+01  0.59766429936E+01  0.51100000000E-03 0. -1.
        -11    1    4    4    0    0 -0.15832409959E+02 -0.13217202433E+01  0.10915610958E+02  0.19275962035E+02  0.51100000000E-03 0.  1.
         12    1    4    4    0    0 -0.12144683013E+02 -0.26187932016E+02 -0.37885277120E+01  0.29114498982E+02  0.00000000000E+00 0. -1.
</event>
<event>
 8    1  0.2504019E-006  0.9118800E+02  0.7816164E-02  0.1184000E+00
        -11   -1    0    0    0    0  0.00000000000E+00  0.00000000000E+00  0.45593999997E+02  0.45594000000E+02  0.51100000000E-03 0. -1.
         11   -1    0    0    0    0 -0.00000000000E+00 -0.00000000000E+00 -0.45593999997E+02  0.45594000000E+02  0.51100000000E-03 0.  1.
         23    2    1    2    0    0  0.00000000000E+00 -0.17763568394E-14 -0.88817841970E-15  0.91188000000E+02  0.91188000000E+02 0.  0.
    9900012    2    3    3    0    0 -0.34935592041E+02 -0.97193032752E+01  0.63890031531E+01  0.54367084630E+02  0.40000001030E+02 0.  0.
        -12    1    3    3    0    0  0.34935592041E+02  0.97193032752E+01 -0.63890031531E+01  0.36820915370E+02  0.00000000000E+00 0.  1.
         11    1    4    4    0    0 -0.21060827919E+02 -0.11327015876E+02  0.52718280903E+01  0.24487791508E+02  0.51100000000E-03 0. -1.
        -11    1    4    4    0    0 -0.46889244659E+01  0.10309007589E+02 -0.83551063897E+01  0.14073714974E+02  0.51100000000E-03 0.  1.
        -12    1    4    4    0    0 -0.91858396568E+01 -0.87012949879E+01  0.94722814525E+01  0.15805578148E+02  0.00000000000E+00 0.  1.
</event>
<event>
 8    1  0.2504019E-006  0.9118800E+02  0.7816164E-02  0.1184000E+00
        -11   -1    0    0    0    0  0.00000000000E+00  0.00000000000E+00  0.45593999997E+02  0.45594000000E+02  0.51100000000E-03 0.  1.
         11   -1    0    0    0    0 -0.00000000000E+00 -0.00000000000E+00 -0.45593999997E+02  0.45594000000E+02  0.51100000000E-03 0. -1.
         23    2    1    2    0    0  0.00000000000E+00 -0.17763568394E-14 -0.35527136788E-14  0.91188000000E+02  0.91188000000E+02 0.  0.
    9900012    2    3    3    0    0  0.23472019398E+02 -0.13045397922E+02 -0.25192501825E+02  0.54367078640E+02  0.39999987376E+02 0.  0.
        -12    1    3    3    0    0 -0.23472019398E+02  0.13045397922E+02  0.25192501825E+02  0.36820921360E+02  0.00000000000E+00 0.  1.
         11    1    4    4    0    0  0.14808585471E+01 -0.81331882439E+01 -0.31463753812E+01  0.88454152728E+01  0.51100000000E-03 0. -1.
        -11    1    4    4    0    0  0.22319804828E+02  0.94762043686E+01 -0.83264454659E+01  0.25637898337E+02  0.51100000000E-03 0.  1.
        -12    1    4    4    0    0 -0.32864397712E+00 -0.14388414047E+02 -0.13719680978E+02  0.19883765030E+02  0.00000000000E+00 0.  1.
</event>
<event>
 8    1  0.2504019E-006  0.9118800E+02  0.7816164E-02  0.1184000E+00
        -11   -1    0    0    0    0  0.00000000000E+00  0.00000000000E+00  0.45593999997E+02  0.45594000000E+02  0.51100000000E-03 0.  1.
         11   -1    0    0    0    0 -0.00000000000E+00 -0.00000000000E+00 -0.45593999997E+02  0.45594000000E+02  0.51100000000E-03 0. -1.
         23    2    1    2    0    0 -0.71054273576E-14  0.00000000000E+00 -0.17763568394E-14  0.91188000000E+02  0.91188000000E+02 0.  0.
    9900012    2    3    3    0    0 -0.34252154871E+02 -0.13385897525E+02  0.18402511770E+01  0.54367097101E+02  0.40000029462E+02 0.  0.
        -12    1    3    3    0    0  0.34252154871E+02  0.13385897525E+02 -0.18402511770E+01  0.36820902899E+02  0.00000000000E+00 0.  1.
         11    1    4    4    0    0 -0.14609229643E+02  0.22877898961E+01 -0.24823766124E+01  0.14994191117E+02  0.51100000000E-03 0. -1.
        -11    1    4    4    0    0 -0.14716066264E+02 -0.22167402638E+02  0.11043479902E+02  0.28808241783E+02  0.51100000000E-03 0.  1.
        -12    1    4    4    0    0 -0.49268589644E+01  0.64937152163E+01 -0.67208521129E+01  0.10564664201E+02  0.00000000000E+00 0.  1.
</event>
<event>
 8    1  0.2504019E-006  0.9118800E+02  0.7816164E-02  0.1184000E+00
        -11   -1    0    0    0    0  0.00000000000E+00  0.00000000000E+00  0.45593999997E+02  0.45594000000E+02  0.51100000000E-03 0.  1.
         11   -1    0    0    0    0 -0.00000000000E+00 -0.00000000000E+00 -0.45593999997E+02  0.45594000000E+02  0.51100000000E-03 0. -1.
         23    2    1    2    0    0  0.00000000000E+00 -0.88817841970E-15 -0.17763568394E-14  0.91188000000E+02  0.91188000000E+02 0.  0.
    9900012    2    3    3    0    0  0.33964999367E+02  0.50185881899E+01  0.13303107852E+02  0.54367080837E+02  0.39999992385E+02 0.  0.
         12    1    3    3    0    0 -0.33964999367E+02 -0.50185881899E+01 -0.13303107852E+02  0.36820919163E+02  0.00000000000E+00 0. -1.
         11    1    4    4    0    0  0.23080442873E+01  0.16367215648E+01  0.74494736923E+01  0.79687253978E+01  0.51100000000E-03 0. -1.
        -11    1    4    4    0    0  0.60175608124E+01  0.11085895076E+02  0.13579500779E+02  0.18534048382E+02  0.51100000000E-03 0.  1.
        -12    1    4    4    0    0  0.25639394268E+02 -0.77040284512E+01 -0.77258666184E+01  0.27864307057E+02  0.00000000000E+00 0.  1.
</event>
<event>
 8    1  0.2504019E-006  0.9118800E+02  0.7816164E-02  0.1184000E+00
        -11   -1    0    0    0    0  0.00000000000E+00  0.00000000000E+00  0.45593999997E+02  0.45594000000E+02  0.51100000000E-03 0.  1.
         11   -1    0    0    0    0 -0.00000000000E+00 -0.00000000000E+00 -0.45593999997E+02  0.45594000000E+02  0.51100000000E-03 0. -1.
         23    2    1    2    0    0  0.35527136788E-14 -0.35527136788E-14  0.00000000000E+00  0.91188000000E+02  0.91188000000E+02 0.  0.
    9900012    2    3    3    0    0  0.23948362552E+02 -0.19256523074E+02 -0.20284049407E+02  0.54367076462E+02  0.39999982411E+02 0.  0.
        -12    1    3    3    0    0 -0.23948362552E+02  0.19256523074E+02  0.20284049407E+02  0.36820923538E+02  0.00000000000E+00 0.  1.
         11    1    4    4    0    0 -0.62678359342E+01  0.42115973858E+00 -0.78772885694E+01  0.10075456232E+02  0.51100000000E-03 0. -1.
        -11    1    4    4    0    0  0.19132346756E+02 -0.19689027283E+02  0.26686112719E+00  0.27454975921E+02  0.51100000000E-03 0.  1.
         12    1    4    4    0    0  0.11083851730E+02  0.11344469805E-01 -0.12673621964E+02  0.16836644309E+02  0.00000000000E+00 0. -1.
</event>
<event>
 8    1  0.2504019E-006  0.9118800E+02  0.7816164E-02  0.1184000E+00
        -11   -1    0    0    0    0  0.00000000000E+00  0.00000000000E+00  0.45593999997E+02  0.45594000000E+02  0.51100000000E-03 0.  1.
         11   -1    0    0    0    0 -0.00000000000E+00 -0.00000000000E+00 -0.45593999997E+02  0.45594000000E+02  0.51100000000E-03 0. -1.
         23    2    1    2    0    0  0.17763568394E-14  0.35527136788E-14  0.00000000000E+00  0.91188000000E+02  0.91188000000E+02 0.  0.
    9900012    2    3    3    0    0 -0.38044131609E+01  0.27222761852E+02 -0.24499541088E+02  0.54367084260E+02  0.40000000188E+02 0.  0.
        -12    1    3    3    0    0  0.38044131609E+01 -0.27222761852E+02  0.24499541088E+02  0.36820915740E+02  0.00000000000E+00 0.  1.
         11    1    4    4    0    0  0.14801315431E+02  0.14833111229E+02 -0.19795926501E+02  0.28826703480E+02  0.51100000000E-03 0. -1.
        -11    1    4    4    0    0 -0.18009547827E+02  0.99583523386E+01 -0.73922019716E+01  0.21866806911E+02  0.51100000000E-03 0.  1.
         12    1    4    4    0    0 -0.59618076415E+00  0.24312982843E+01  0.26885873842E+01  0.36735738693E+01  0.00000000000E+00 0. -1.
</event>
<event>
 8    1  0.2504019E-006  0.9118800E+02  0.7816164E-02  0.1184000E+00
        -11   -1    0    0    0    0  0.00000000000E+00  0.00000000000E+00  0.45593999997E+02  0.45594000000E+02  0.51100000000E-03 0. -1.
         11   -1    0    0    0    0 -0.00000000000E+00 -0.00000000000E+00 -0.45593999997E+02  0.45594000000E+02  0.51100000000E-03 0.  1.
         23    2    1    2    0    0 -0.35527136788E-14  0.00000000000E+00 -0.17763568394E-14  0.91188000000E+02  0.91188000000E+02 0.  0.
    9900012    2    3    3    0    0  0.18458691751E+02  0.30273431932E+02 -0.99285352108E+01  0.54367084836E+02  0.40000001500E+02 0.  0.
         12    1    3    3    0    0 -0.18458691751E+02 -0.30273431932E+02  0.99285352108E+01  0.36820915164E+02  0.00000000000E+00 0. -1.
         11    1    4    4    0    0  0.57836202222E+01  0.21586016183E+02  0.10166794038E+02  0.24551375904E+02  0.51100000000E-03 0.  1.
        -11    1    4    4    0    0 -0.16641848354E+01  0.41939780036E+01  0.25425653651E+00  0.45192487549E+01  0.51100000000E-03 0. -1.
        -12    1    4    4    0    0  0.14339256364E+02  0.44934377453E+01 -0.20349585785E+02  0.25296460177E+02  0.00000000000E+00 0.  1.
</event>
<event>
 8    1  0.2504019E-006  0.9118800E+02  0.7816164E-02  0.1184000E+00
        -11   -1    0    0    0    0  0.00000000000E+00  0.00000000000E+00  0.45593999997E+02  0.45594000000E+02  0.51100000000E-03 0. -1.
         11   -1    0    0    0    0 -0.00000000000E+00 -0.00000000000E+00 -0.45593999997E+02  0.45594000000E+02  0.51100000000E-03 0.  1.
         23    2    1    2    0    0  0.00000000000E+00  0.00000000000E+00  0.00000000000E+00  0.91188000000E+02  0.91188000000E+02 0.  0.
    9900012    2    3    3    0    0  0.14158549423E+02  0.37507163591E+01 -0.33782355023E+02  0.54367083311E+02  0.39999998023E+02 0.  0.
         12    1    3    3    0    0 -0.14158549423E+02 -0.37507163591E+01  0.33782355023E+02  0.36820916689E+02  0.00000000000E+00 0. -1.
         11    1    4    4    0    0  0.74519666752E+01 -0.10562342616E+01 -0.19028049060E+02  0.20462504476E+02  0.51100000000E-03 0. -1.
        -11    1    4    4    0    0  0.70241127310E+01  0.16128738103E+02 -0.14125112301E+02  0.22560876540E+02  0.51100000000E-03 0.  1.
         12    1    4    4    0    0 -0.31752998293E+00 -0.11321787483E+02 -0.62919366220E+00  0.11343702295E+02  0.00000000000E+00 0. -1.
</event>
<event>
 8    1  0.2504019E-006  0.9118800E+02  0.7816164E-02  0.1184000E+00
        -11   -1    0    0    0    0  0.00000000000E+00  0.00000000000E+00  0.45593999997E+02  0.45594000000E+02  0.51100000000E-03 0. -1.
         11   -1    0    0    0    0 -0.00000000000E+00 -0.00000000000E+00 -0.45593999997E+02  0.45594000000E+02  0.51100000000E-03 0.  1.
         23    2    1    2    0    0  0.35527136788E-14  0.00000000000E+00  0.00000000000E+00  0.91188000000E+02  0.91188000000E+02 0.  0.
    9900012    2    3    3    0    0 -0.28930546419E+02  0.20234620088E+02  0.10457579915E+02  0.54367118100E+02  0.40000077333E+02 0.  0.
        -12    1    3    3    0    0  0.28930546419E+02 -0.20234620088E+02 -0.10457579915E+02  0.36820881900E+02  0.00000000000E+00 0.  1.
         11    1    4    4    0    0 -0.21118381275E+02  0.18304958175E+02  0.21551078200E+02  0.35291734065E+02  0.51100000000E-03 0. -1.
        -11    1    4    4    0    0 -0.51696142737E+01 -0.35523546561E+01  0.16798140162E+00  0.62747393057E+01  0.51100000000E-03 0.  1.
        -12    1    4    4    0    0 -0.26425508694E+01  0.54820165691E+01 -0.11261479687E+02  0.12800644730E+02  0.00000000000E+00 0.  1.
</event>
<event>
 8    1  0.2504019E-006  0.9118800E+02  0.7816164E-02  0.1184000E+00
        -11   -1    0    0    0    0  0.00000000000E+00  0.00000000000E+00  0.45593999997E+02  0.45594000000E+02  0.51100000000E-03 0.  1.
         11   -1    0    0    0    0 -0.00000000000E+00 -0.00000000000E+00 -0.45593999997E+02  0.45594000000E+02  0.51100000000E-03 0. -1.
         23    2    1    2    0    0  0.35527136788E-14 -0.17763568394E-14  0.00000000000E+00  0.91188000000E+02  0.91188000000E+02 0.  0.
    9900012    2    3    3    0    0  0.18378695307E+02 -0.15826291545E+02  0.27704348276E+02  0.54367097531E+02  0.40000030441E+02 0.  0.
         12    1    3    3    0    0 -0.18378695307E+02  0.15826291545E+02 -0.27704348276E+02  0.36820902469E+02  0.00000000000E+00 0. -1.
         11    1    4    4    0    0  0.22419323260E+02 -0.13800040044E+02  0.18400840144E+02  0.32119434599E+02  0.51100000000E-03 0. -1.
        -11    1    4    4    0    0  0.60516586674E+01 -0.19092633631E+01  0.10308188132E+02  0.12104817308E+02  0.51100000000E-03 0.  1.
         12    1    4    4    0    0 -0.10092286620E+02 -0.11698813730E+00 -0.10046800006E+01  0.10142845624E+02  0.00000000000E+00 0. -1.
</event>
<event>
 8    1  0.2504019E-006  0.9118800E+02  0.7816164E-02  0.1184000E+00
        -11   -1    0    0    0    0  0.00000000000E+00  0.00000000000E+00  0.45593999997E+02  0.45594000000E+02  0.51100000000E-03 0. -1.
         11   -1    0    0    0    0 -0.00000000000E+00 -0.00000000000E+00 -0.45593999997E+02  0.45594000000E+02  0.51100000000E-03 0.  1.
         23    2    1    2    0    0  0.00000000000E+00 -0.35527136788E-14  0.35527136788E-14  0.91188000000E+02  0.91188000000E+02 0.  0.
    9900012    2    3    3    0    0  0.21761639875E+02 -0.17427637035E+02  0.24051770466E+02  0.54367093368E+02  0.40000020951E+02 0.  0.
        -12    1    3    3    0    0 -0.21761639875E+02  0.17427637035E+02 -0.24051770466E+02  0.36820906632E+02  0.00000000000E+00 0.  1.
         11    1    4    4    0    0  0.49872941422E+01 -0.19605502211E+02  0.69267595757E+01  0.21382909491E+02  0.51100000000E-03 0. -1.
        -11    1    4    4    0    0  0.14029288115E+02 -0.56691145735E+01  0.19170767805E+02  0.24422901621E+02  0.51100000000E-03 0.  1.
        -12    1    4    4    0    0  0.27450576177E+01  0.78469797495E+01 -0.20457569155E+01  0.85612822562E+01  0.00000000000E+00 0.  1.
</event>
<event>
 8    1  0.2504019E-006  0.9118800E+02  0.7816164E-02  0.1184000E+00
        -11   -1    0    0    0    0  0.00000000000E+00  0.00000000000E+00  0.45593999997E+02  0.45594000000E+02  0.51100000000E-03 0.  1.
         11   -1    0    0    0    0 -0.00000000000E+00 -0.00000000000E+00 -0.45593999997E+02  0.45594000000E+02  0.51100000000E-03 0. -1.
         23    2    1    2    0    0  0.00000000000E+00  0.00000000000E+00 -0.35527136788E-14  0.91188000000E+02  0.91188000000E+02 0.  0.
    9900012    2    3    3    0    0 -0.86926031827E+01  0.24536578662E+02 -0.26041814842E+02  0.54367066242E+02  0.39999959112E+02 0.  0.
        -12    1    3    3    0    0  0.86926031827E+01 -0.24536578662E+02  0.26041814842E+02  0.36820933758E+02  0.00000000000E+00 0.  1.
         11    1    4    4    0    0 -0.98422695226E+00  0.85796792616E+01  0.19314646224E+01  0.88493025021E+01  0.51100000000E-03 0. -1.
        -11    1    4    4    0    0  0.14013280440E+01  0.19985328973E+01  0.66540638163E+01  0.70876243947E+01  0.51100000000E-03 0.  1.
         12    1    4    4    0    0 -0.91097042745E+01  0.13958366503E+02 -0.34627343281E+02  0.38430139345E+02  0.00000000000E+00 0. -1.
</event>
<event>
 8    1  0.2504019E-006  0.9118800E+02  0.7816164E-02  0.1184000E+00
        -11   -1    0    0    0    0  0.00000000000E+00  0.00000000000E+00  0.45593999997E+02  0.45594000000E+02  0.51100000000E-03 0. -1.
         11   -1    0    0    0    0 -0.00000000000E+00 -0.00000000000E+00 -0.45593999997E+02  0.45594000000E+02  0.51100000000E-03 0.  1.
         23    2    1    2    0    0  0.00000000000E+00  0.00000000000E+00 -0.71054273576E-14  0.91188000000E+02  0.91188000000E+02 0.  0.
    9900012    2    3    3    0    0  0.82891226107E+01  0.20545462350E+02 -0.29410093810E+02  0.54367092967E+02  0.40000020037E+02 0.  0.
         12    1    3    3    0    0 -0.82891226107E+01 -0.20545462350E+02  0.29410093810E+02  0.36820907033E+02  0.00000000000E+00 0. -1.
         11    1    4    4    0    0 -0.94616389331E+01  0.81901534622E+01 -0.24755192626E+02  0.27738435198E+02  0.51100000000E-03 0. -1.
        -11    1    4    4    0    0  0.55543739648E+01  0.12855633497E+02 -0.28103652829E+01  0.14283435722E+02  0.51100000000E-03 0.  1.
        -12    1    4    4    0    0  0.12196387579E+02 -0.50032460947E+00 -0.18445359015E+01  0.12345222047E+02  0.00000000000E+00 0.  1.
</event>
<event>
 8    1  0.2504019E-006  0.9118800E+02  0.7816164E-02  0.1184000E+00
        -11   -1    0    0    0    0  0.00000000000E+00  0.00000000000E+00  0.45593999997E+02  0.45594000000E+02  0.51100000000E-03 0.  1.
         11   -1    0    0    0    0 -0.00000000000E+00 -0.00000000000E+00 -0.45593999997E+02  0.45594000000E+02  0.51100000000E-03 0. -1.
         23    2    1    2    0    0 -0.88817841970E-15  0.00000000000E+00  0.00000000000E+00  0.91188000000E+02  0.91188000000E+02 0.  0.
    9900012    2    3    3    0    0 -0.49474636903E+01  0.23202130961E+02  0.28159543183E+02  0.54367134308E+02  0.40000114281E+02 0.  0.
         12    1    3    3    0    0  0.49474636903E+01 -0.23202130961E+02 -0.28159543183E+02  0.36820865692E+02  0.00000000000E+00 0. -1.
         11    1    4    4    0    0  0.46566822195E+01  0.11342894014E+02  0.10577628816E+02  0.16193584086E+02  0.51100000000E-03 0. -1.
        -11    1    4    4    0    0 -0.99673300839E+01  0.21454241787E+02  0.90493855156E+01  0.25328314948E+02  0.51100000000E-03 0.  1.
         12    1    4    4    0    0  0.36318417420E+00 -0.95950048407E+01  0.85325288511E+01  0.12845235274E+02  0.00000000000E+00 0. -1.
</event>
<event>
 8    1  0.2504019E-006  0.9118800E+02  0.7816164E-02  0.1184000E+00
        -11   -1    0    0    0    0  0.00000000000E+00  0.00000000000E+00  0.45593999997E+02  0.45594000000E+02  0.51100000000E-03 0. -1.
         11   -1    0    0    0    0 -0.00000000000E+00 -0.00000000000E+00 -0.45593999997E+02  0.45594000000E+02  0.51100000000E-03 0.  1.
         23    2    1    2    0    0  0.17763568394E-14  0.71054273576E-14  0.71054273576E-14  0.91188000000E+02  0.91188000000E+02 0.  0.
    9900012    2    3    3    0    0  0.14770397256E+02  0.23549497715E+02  0.24146144387E+02  0.54367085203E+02  0.40000002338E+02 0.  0.
        -12    1    3    3    0    0 -0.14770397256E+02 -0.23549497715E+02 -0.24146144387E+02  0.36820914797E+02  0.00000000000E+00 0.  1.
         11    1    4    4    0    0  0.72064624628E+01  0.11583309370E+02  0.40481630775E+00  0.13648078022E+02  0.51100000000E-03 0. -1.
        -11    1    4    4    0    0  0.40951087898E+01 -0.38633801374E+00 -0.65997668183E+01  0.77766377940E+01  0.51100000000E-03 0.  1.
         12    1    4    4    0    0  0.34688260032E+01  0.12352526359E+02  0.30341094897E+02  0.32942369387E+02  0.00000000000E+00 0. -1.
</event>
<event>
 8    1  0.2504019E-006  0.9118800E+02  0.7816164E-02  0.1184000E+00
        -11   -1    0    0    0    0  0.00000000000E+00  0.00000000000E+00  0.45593999997E+02  0.45594000000E+02  0.51100000000E-03 0. -1.
         11   -1    0    0    0    0 -0.00000000000E+00 -0.00000000000E+00 -0.45593999997E+02  0.45594000000E+02  0.51100000000E-03 0.  1.
         23    2    1    2    0    0 -0.35527136788E-14  0.00000000000E+00  0.00000000000E+00  0.91188000000E+02  0.91188000000E+02 0.  0.
    9900012    2    3    3    0    0  0.23804883297E+02  0.19237721368E+02  0.20469920594E+02  0.54367081471E+02  0.39999993829E+02 0.  0.
         12    1    3    3    0    0 -0.23804883297E+02 -0.19237721368E+02 -0.20469920594E+02  0.36820918529E+02  0.00000000000E+00 0. -1.
         11    1    4    4    0    0  0.12324912419E+02  0.24895435526E+01 -0.30863699579E+01  0.12947083572E+02  0.51100000000E-03 0. -1.
        -11    1    4    4    0    0  0.20325061319E+02  0.14155654517E+02  0.18429536232E+02  0.30872940877E+02  0.51100000000E-03 0.  1.
         12    1    4    4    0    0 -0.88450904411E+01  0.25925232982E+01  0.51267543197E+01  0.10547057022E+02  0.00000000000E+00 0. -1.
</event>
<event>
 8    1  0.2504019E-006  0.9118800E+02  0.7816164E-02  0.1184000E+00
        -11   -1    0    0    0    0  0.00000000000E+00  0.00000000000E+00  0.45593999997E+02  0.45594000000E+02  0.51100000000E-03 0. -1.
         11   -1    0    0    0    0 -0.00000000000E+00 -0.00000000000E+00 -0.45593999997E+02  0.45594000000E+02  0.51100000000E-03 0.  1.
         23    2    1    2    0    0  0.00000000000E+00  0.00000000000E+00  0.88817841970E-15  0.91188000000E+02  0.91188000000E+02 0.  0.
    9900012    2    3    3    0    0 -0.29528088822E+02  0.21446478882E+02 -0.48907368521E+01  0.54367098424E+02  0.40000032477E+02 0.  0.
         12    1    3    3    0    0  0.29528088822E+02 -0.21446478882E+02  0.48907368521E+01  0.36820901576E+02  0.00000000000E+00 0. -1.
         11    1    4    4    0    0  0.30061868337E+01  0.32045149839E+01  0.78546567966E+01  0.90000949559E+01  0.51100000000E-03 0. -1.
        -11    1    4    4    0    0 -0.12087270095E+02  0.67366916818E+01  0.62460178104E+01  0.15182155707E+02  0.51100000000E-03 0.  1.
        -12    1    4    4    0    0 -0.20447005561E+02  0.11505272217E+02 -0.18991411459E+02  0.30184847762E+02  0.00000000000E+00 0.  1.
</event>
<event>
 8    1  0.2504019E-006  0.9118800E+02  0.7816164E-02  0.1184000E+00
        -11   -1    0    0    0    0  0.00000000000E+00  0.00000000000E+00  0.45593999997E+02  0.45594000000E+02  0.51100000000E-03 0.  1.
         11   -1    0    0    0    0 -0.00000000000E+00 -0.00000000000E+00 -0.45593999997E+02  0.45594000000E+02  0.51100000000E-03 0. -1.
         23    2    1    2    0    0  0.71054273576E-14  0.17763568394E-14  0.17763568394E-14  0.91188000000E+02  0.91188000000E+02 0.  0.
    9900012    2    3    3    0    0 -0.33156471087E+02 -0.98484071255E+01 -0.12626850740E+02  0.54367081251E+02  0.39999993329E+02 0.  0.
        -12    1    3    3    0    0  0.33156471087E+02  0.98484071255E+01  0.12626850740E+02  0.36820918749E+02  0.00000000000E+00 0.  1.
         11    1    4    4    0    0 -0.29380910244E+02 -0.11881844670E+02 -0.43357804136E+01  0.31987733767E+02  0.51100000000E-03 0. -1.
        -11    1    4    4    0    0  0.59896034108E+01  0.66427776566E+01 -0.30652424113E+00  0.89496257679E+01  0.51100000000E-03 0.  1.
        -12    1    4    4    0    0 -0.97651642546E+01 -0.46093401123E+01 -0.79845460854E+01  0.13429721716E+02  0.00000000000E+00 0.  1.
</event>
<event>
 8    1  0.2504019E-006  0.9118800E+02  0.7816164E-02  0.1184000E+00
        -11   -1    0    0    0    0  0.00000000000E+00  0.00000000000E+00  0.45593999997E+02  0.45594000000E+02  0.51100000000E-03 0.  1.
         11   -1    0    0    0    0 -0.00000000000E+00 -0.00000000000E+00 -0.45593999997E+02  0.45594000000E+02  0.51100000000E-03 0. -1.
         23    2    1    2    0    0 -0.11102230246E-15  0.00000000000E+00  0.00000000000E+00  0.91188000000E+02  0.91188000000E+02 0.  0.
    9900012    2    3    3    0    0 -0.54936908760E+00  0.35382527934E+02  0.10176223028E+02  0.54367073823E+02  0.39999976394E+02 0.  0.
         12    1    3    3    0    0  0.54936908760E+00 -0.35382527934E+02 -0.10176223028E+02  0.36820926177E+02  0.00000000000E+00 0. -1.
         11    1    4    4    0    0 -0.16244678742E+01  0.18491600929E+02  0.17220418366E+02  0.25320367489E+02  0.51100000000E-03 0. -1.
        -11    1    4    4    0    0 -0.18200635204E+01  0.72148728230E+01  0.80007334826E+01  0.10926058649E+02  0.51100000000E-03 0.  1.
         12    1    4    4    0    0  0.28951623070E+01  0.96760541824E+01 -0.15044928821E+02  0.18120647686E+02  0.00000000000E+00 0. -1.
</event>
<event>
 8    1  0.2504019E-006  0.9118800E+02  0.7816164E-02  0.1184000E+00
        -11   -1    0    0    0    0  0.00000000000E+00  0.00000000000E+00  0.45593999997E+02  0.45594000000E+02  0.51100000000E-03 0.  1.
         11   -1    0    0    0    0 -0.00000000000E+00 -0.00000000000E+00 -0.45593999997E+02  0.45594000000E+02  0.51100000000E-03 0. -1.
         23    2    1    2    0    0 -0.22204460493E-14  0.00000000000E+00  0.00000000000E+00  0.91188000000E+02  0.91188000000E+02 0.  0.
    9900012    2    3    3    0    0 -0.16125287800E+01 -0.36775230266E+02  0.87309506904E+00  0.54367080604E+02  0.39999991853E+02 0.  0.
        -12    1    3    3    0    0  0.16125287800E+01  0.36775230266E+02 -0.87309506904E+00  0.36820919396E+02  0.00000000000E+00 0.  1.
         11    1    4    4    0    0  0.98429891639E+01 -0.38076573335E+02 -0.72221658406E+01  0.39985866907E+02  0.51100000000E-03 0. -1.
        -11    1    4    4    0    0 -0.52080152483E+01 -0.34569652412E+00  0.23067612950E+01  0.57064942694E+01  0.51100000000E-03 0.  1.
         12    1    4    4    0    0 -0.62475026957E+01  0.16470395935E+01  0.57884996146E+01  0.86747194274E+01  0.00000000000E+00 0. -1.
</event>
<event>
 8    1  0.2504019E-006  0.9118800E+02  0.7816164E-02  0.1184000E+00
        -11   -1    0    0    0    0  0.00000000000E+00  0.00000000000E+00  0.45593999997E+02  0.45594000000E+02  0.51100000000E-03 0. -1.
         11   -1    0    0    0    0 -0.00000000000E+00 -0.00000000000E+00 -0.45593999997E+02  0.45594000000E+02  0.51100000000E-03 0.  1.
         23    2    1    2    0    0  0.00000000000E+00 -0.35527136788E-14  0.00000000000E+00  0.91188000000E+02  0.91188000000E+02 0.  0.
    9900012    2    3    3    0    0  0.16430924515E+02  0.23320572775E+02  0.23279939777E+02  0.54367082154E+02  0.39999995387E+02 0.  0.
        -12    1    3    3    0    0 -0.16430924515E+02 -0.23320572775E+02 -0.23279939777E+02  0.36820917846E+02  0.00000000000E+00 0.  1.
         11    1    4    4    0    0  0.15877231323E+02  0.19824654296E+02  0.21657687274E+02  0.33379017522E+02  0.51100000000E-03 0. -1.
        -11    1    4    4    0    0  0.11554573088E+01 -0.39886747300E+01  0.93392260349E+01  0.10220848834E+02  0.51100000000E-03 0.  1.
        -12    1    4    4    0    0 -0.60176411649E+00  0.74845932088E+01 -0.77169735317E+01  0.10767215798E+02  0.00000000000E+00 0.  1.
</event>
<event>
 8    1  0.2504019E-006  0.9118800E+02  0.7816164E-02  0.1184000E+00
        -11   -1    0    0    0    0  0.00000000000E+00  0.00000000000E+00  0.45593999997E+02  0.45594000000E+02  0.51100000000E-03 0. -1.
         11   -1    0    0    0    0 -0.00000000000E+00 -0.00000000000E+00 -0.45593999997E+02  0.45594000000E+02  0.51100000000E-03 0.  1.
         23    2    1    2    0    0 -0.44408920985E-15  0.00000000000E+00  0.00000000000E+00  0.91188000000E+02  0.91188000000E+02 0.  0.
    9900012    2    3    3    0    0 -0.37989912836E+01  0.36237024221E+02  0.53126522006E+01  0.54367101959E+02  0.40000040536E+02 0.  0.
         12    1    3    3    0    0  0.37989912836E+01 -0.36237024221E+02 -0.53126522006E+01  0.36820898041E+02  0.00000000000E+00 0. -1.
         11    1    4    4    0    0 -0.45077660679E+01  0.45773460852E+01  0.77787352648E+01  0.10088645830E+02  0.51100000000E-03 0. -1.
        -11    1    4    4    0    0 -0.14508602400E+02  0.17238631783E+02 -0.52339123034E+01  0.23131446293E+02  0.51100000000E-03 0.  1.
        -12    1    4    4    0    0  0.15217377185E+02  0.14421046353E+02  0.27678292391E+01  0.21147009835E+02  0.00000000000E+00 0.  1.
</event>
<event>
 8    1  0.2504019E-006  0.9118800E+02  0.7816164E-02  0.1184000E+00
        -11   -1    0    0    0    0  0.00000000000E+00  0.00000000000E+00  0.45593999997E+02  0.45594000000E+02  0.51100000000E-03 0.  1.
         11   -1    0    0    0    0 -0.00000000000E+00 -0.00000000000E+00 -0.45593999997E+02  0.45594000000E+02  0.51100000000E-03 0. -1.
         23    2    1    2    0    0  0.17763568394E-14  0.00000000000E+00  0.00000000000E+00  0.91188000000E+02  0.91188000000E+02 0.  0.
    9900012    2    3    3    0    0  0.80696768501E+01 -0.28342494229E+02  0.22076295315E+02  0.54367089115E+02  0.40000011254E+02 0.  0.
         12    1    3    3    0    0 -0.80696768501E+01  0.28342494229E+02 -0.22076295315E+02  0.36820910885E+02  0.00000000000E+00 0. -1.
         11    1    4    4    0    0 -0.42457171153E+01 -0.23716622414E+01 -0.41658392485E+01  0.64035234454E+01  0.51100000000E-03 0. -1.
        -11    1    4    4    0    0 -0.63581028699E+00 -0.20214307750E+01 -0.56475154153E+01  0.60319870463E+01  0.51100000000E-03 0.  1.
        -12    1    4    4    0    0  0.12951204252E+02 -0.23949401213E+02  0.31889649979E+02  0.41931578623E+02  0.00000000000E+00 0.  1.
</event>
<event>
 8    1  0.2504019E-006  0.9118800E+02  0.7816164E-02  0.1184000E+00
        -11   -1    0    0    0    0  0.00000000000E+00  0.00000000000E+00  0.45593999997E+02  0.45594000000E+02  0.51100000000E-03 0.  1.
         11   -1    0    0    0    0 -0.00000000000E+00 -0.00000000000E+00 -0.45593999997E+02  0.45594000000E+02  0.51100000000E-03 0. -1.
         23    2    1    2    0    0  0.00000000000E+00  0.00000000000E+00  0.71054273576E-14  0.91188000000E+02  0.91188000000E+02 0.  0.
    9900012    2    3    3    0    0  0.15058209461E+02  0.22249356717E+02 -0.25179315956E+02  0.54367061684E+02  0.39999948720E+02 0.  0.
        -12    1    3    3    0    0 -0.15058209461E+02 -0.22249356717E+02  0.25179315956E+02  0.36820938316E+02  0.00000000000E+00 0.  1.
         11    1    4    4    0    0 -0.40824921979E+01  0.11754106889E+02 -0.28928319406E+02  0.31490846848E+02  0.51100000000E-03 0.  1.
        -11    1    4    4    0    0  0.58100377660E+01  0.44054659082E+01 -0.12368195243E+01  0.73955656651E+01  0.51100000000E-03 0. -1.
        -12    1    4    4    0    0  0.13330663893E+02  0.60897839189E+01  0.49858229739E+01  0.15480649170E+02  0.00000000000E+00 0.  1.
</event>
<event>
 8    1  0.2504019E-006  0.9118800E+02  0.7816164E-02  0.1184000E+00
        -11   -1    0    0    0    0  0.00000000000E+00  0.00000000000E+00  0.45593999997E+02  0.45594000000E+02  0.51100000000E-03 0. -1.
         11   -1    0    0    0    0 -0.00000000000E+00 -0.00000000000E+00 -0.45593999997E+02  0.45594000000E+02  0.51100000000E-03 0.  1.
         23    2    1    2    0    0 -0.35527136788E-14  0.00000000000E+00 -0.17763568394E-14  0.91188000000E+02  0.91188000000E+02 0.  0.
    9900012    2    3    3    0    0 -0.28672204722E+02 -0.20049339537E+02 -0.11476505007E+02  0.54367061573E+02  0.39999948467E+02 0.  0.
        -12    1    3    3    0    0  0.28672204722E+02  0.20049339537E+02  0.11476505007E+02  0.36820938427E+02  0.00000000000E+00 0.  1.
         11    1    4    4    0    0 -0.25981774958E+01 -0.28192906983E+01 -0.99279539765E+01  0.10642518347E+02  0.51100000000E-03 0. -1.
        -11    1    4    4    0    0 -0.64116975325E+01  0.35697176866E+01 -0.11311108481E+02  0.13483097750E+02  0.51100000000E-03 0.  1.
         12    1    4    4    0    0 -0.19662329694E+02 -0.20799766525E+02  0.97625574501E+01  0.30241445476E+02  0.00000000000E+00 0. -1.
</event>
<event>
 8    1  0.2504019E-006  0.9118800E+02  0.7816164E-02  0.1184000E+00
        -11   -1    0    0    0    0  0.00000000000E+00  0.00000000000E+00  0.45593999997E+02  0.45594000000E+02  0.51100000000E-03 0.  1.
         11   -1    0    0    0    0 -0.00000000000E+00 -0.00000000000E+00 -0.45593999997E+02  0.45594000000E+02  0.51100000000E-03 0. -1.
         23    2    1    2    0    0  0.00000000000E+00  0.00000000000E+00  0.00000000000E+00  0.91188000000E+02  0.91188000000E+02 0.  0.
    9900012    2    3    3    0    0 -0.11254891334E+02  0.10925363493E+02  0.33312865425E+02  0.54367039269E+02  0.39999897620E+02 0.  0.
         12    1    3    3    0    0  0.11254891334E+02 -0.10925363493E+02 -0.33312865425E+02  0.36820960731E+02  0.00000000000E+00 0. -1.
         11    1    4    4    0    0  0.57694547077E+01 -0.10023854106E+02  0.12939124085E+02  0.17354687872E+02  0.51100000000E-03 0.  1.
        -11    1    4    4    0    0 -0.51126618301E+01  0.17883621611E+02  0.12345192393E+02  0.22324135109E+02  0.51100000000E-03 0. -1.
        -12    1    4    4    0    0 -0.11911684211E+02  0.30655959883E+01  0.80285489469E+01  0.14688216288E+02  0.00000000000E+00 0.  1.
</event>
<event>
 8    1  0.2504019E-006  0.9118800E+02  0.7816164E-02  0.1184000E+00
        -11   -1    0    0    0    0  0.00000000000E+00  0.00000000000E+00  0.45593999997E+02  0.45594000000E+02  0.51100000000E-03 0.  1.
         11   -1    0    0    0    0 -0.00000000000E+00 -0.00000000000E+00 -0.45593999997E+02  0.45594000000E+02  0.51100000000E-03 0. -1.
         23    2    1    2    0    0  0.88817841970E-15 -0.71054273576E-14  0.00000000000E+00  0.91188000000E+02  0.91188000000E+02 0.  0.
    9900012    2    3    3    0    0  0.65043579682E+01 -0.33673680245E+02  0.13399903659E+02  0.54367070736E+02  0.39999969356E+02 0.  0.
        -12    1    3    3    0    0 -0.65043579682E+01  0.33673680245E+02 -0.13399903659E+02  0.36820929264E+02  0.00000000000E+00 0.  1.
         11    1    4    4    0    0 -0.59825088698E-01 -0.79162220196E+01  0.12806374153E+02  0.15055675651E+02  0.51100000000E-03 0. -1.
        -11    1    4    4    0    0  0.29560815343E+01  0.59952760854E+01  0.28674668163E+01  0.72735218142E+01  0.51100000000E-03 0.  1.
         12    1    4    4    0    0  0.36081015226E+01 -0.31752734311E+02 -0.22739373096E+01  0.32037873271E+02  0.00000000000E+00 0. -1.
</event>
<event>
 8    1  0.2504019E-006  0.9118800E+02  0.7816164E-02  0.1184000E+00
        -11   -1    0    0    0    0  0.00000000000E+00  0.00000000000E+00  0.45593999997E+02  0.45594000000E+02  0.51100000000E-03 0. -1.
         11   -1    0    0    0    0 -0.00000000000E+00 -0.00000000000E+00 -0.45593999997E+02  0.45594000000E+02  0.51100000000E-03 0.  1.
         23    2    1    2    0    0  0.35527136788E-14  0.17763568394E-14 -0.35527136788E-14  0.91188000000E+02  0.91188000000E+02 0.  0.
    9900012    2    3    3    0    0 -0.15671182115E+02 -0.11236523842E+02 -0.31367733378E+02  0.54367080481E+02  0.39999991573E+02 0.  0.
         12    1    3    3    0    0  0.15671182115E+02  0.11236523842E+02  0.31367733378E+02  0.36820919519E+02  0.00000000000E+00 0. -1.
         11    1    4    4    0    0 -0.39166163434E+01 -0.76083793657E+01  0.73711428989E+01  0.11294293606E+02  0.51100000000E-03 0. -1.
        -11    1    4    4    0    0  0.25574556918E+01  0.41574347841E+00 -0.15474272909E+01  0.30179386569E+01  0.51100000000E-03 0.  1.
        -12    1    4    4    0    0 -0.14312021464E+02 -0.40438879543E+01 -0.37191448986E+02  0.40054848219E+02  0.00000000000E+00 0.  1.
</event>
<event>
 8    1  0.2504019E-006  0.9118800E+02  0.7816164E-02  0.1184000E+00
        -11   -1    0    0    0    0  0.00000000000E+00  0.00000000000E+00  0.45593999997E+02  0.45594000000E+02  0.51100000000E-03 0.  1.
         11   -1    0    0    0    0 -0.00000000000E+00 -0.00000000000E+00 -0.45593999997E+02  0.45594000000E+02  0.51100000000E-03 0. -1.
         23    2    1    2    0    0 -0.35527136788E-14  0.00000000000E+00  0.00000000000E+00  0.91188000000E+02  0.91188000000E+02 0.  0.
    9900012    2    3    3    0    0  0.26663511811E+02 -0.22302122970E+01 -0.25295513479E+02  0.54367085954E+02  0.40000004050E+02 0.  0.
        -12    1    3    3    0    0 -0.26663511811E+02  0.22302122970E+01  0.25295513479E+02  0.36820914046E+02  0.00000000000E+00 0.  1.
         11    1    4    4    0    0  0.12749466881E+02 -0.29960750335E+01 -0.20782171466E+02  0.24564690563E+02  0.51100000000E-03 0. -1.
        -11    1    4    4    0    0 -0.69293229251E+01  0.20019664687E+01 -0.52312460102E+01  0.89100685195E+01  0.51100000000E-03 0.  1.
         12    1    4    4    0    0  0.20843367855E+02 -0.12361037321E+01  0.71790399709E+00  0.20892326872E+02  0.00000000000E+00 0. -1.
</event>
<event>
 8    1  0.2504019E-006  0.9118800E+02  0.7816164E-02  0.1184000E+00
        -11   -1    0    0    0    0  0.00000000000E+00  0.00000000000E+00  0.45593999997E+02  0.45594000000E+02  0.51100000000E-03 0. -1.
         11   -1    0    0    0    0 -0.00000000000E+00 -0.00000000000E+00 -0.45593999997E+02  0.45594000000E+02  0.51100000000E-03 0.  1.
         23    2    1    2    0    0  0.17763568394E-14  0.00000000000E+00  0.35527136788E-14  0.91188000000E+02  0.91188000000E+02 0.  0.
    9900012    2    3    3    0    0  0.13458016795E+02 -0.20683368503E+02  0.27328674869E+02  0.54367130662E+02  0.40000105970E+02 0.  0.
        -12    1    3    3    0    0 -0.13458016795E+02  0.20683368503E+02 -0.27328674869E+02  0.36820869338E+02  0.00000000000E+00 0.  1.
         11    1    4    4    0    0 -0.48647921874E+01 -0.60057958752E+01  0.15930503175E+02  0.17706403328E+02  0.51100000000E-03 0. -1.
        -11    1    4    4    0    0  0.18469193739E+01 -0.17688554013E+02  0.34271097071E+01  0.18111905903E+02  0.51100000000E-03 0.  1.
         12    1    4    4    0    0  0.16475889609E+02  0.30109813847E+01  0.79710619864E+01  0.18548821431E+02  0.00000000000E+00 0. -1.
</event>
<event>
 8    1  0.2504019E-006  0.9118800E+02  0.7816164E-02  0.1184000E+00
        -11   -1    0    0    0    0  0.00000000000E+00  0.00000000000E+00  0.45593999997E+02  0.45594000000E+02  0.51100000000E-03 0.  1.
         11   -1    0    0    0    0 -0.00000000000E+00 -0.00000000000E+00 -0.45593999997E+02  0.45594000000E+02  0.51100000000E-03 0. -1.
         23    2    1    2    0    0  0.00000000000E+00  0.88817841970E-15 -0.35527136788E-14  0.91188000000E+02  0.91188000000E+02 0.  0.
    9900012    2    3    3    0    0  0.18096151392E+02 -0.22399624600E+01 -0.31988922820E+02  0.54367091399E+02  0.40000016461E+02 0.  0.
        -12    1    3    3    0    0 -0.18096151392E+02  0.22399624600E+01  0.31988922820E+02  0.36820908601E+02  0.00000000000E+00 0.  1.
         11    1    4    4    0    0  0.16516217737E+02  0.44563566195E+01 -0.26253175909E+02  0.31334865696E+02  0.51100000000E-03 0. -1.
        -11    1    4    4    0    0 -0.22403734201E+01  0.39293731737E+01  0.54877462280E+01  0.71115824908E+01  0.51100000000E-03 0.  1.
        -12    1    4    4    0    0  0.38203070759E+01 -0.10625692253E+02 -0.11223493139E+02  0.15920643211E+02  0.00000000000E+00 0.  1.
</event>
<event>
 8    1  0.2504019E-006  0.9118800E+02  0.7816164E-02  0.1184000E+00
        -11   -1    0    0    0    0  0.00000000000E+00  0.00000000000E+00  0.45593999997E+02  0.45594000000E+02  0.51100000000E-03 0. -1.
         11   -1    0    0    0    0 -0.00000000000E+00 -0.00000000000E+00 -0.45593999997E+02  0.45594000000E+02  0.51100000000E-03 0.  1.
         23    2    1    2    0    0  0.00000000000E+00  0.17763568394E-14  0.00000000000E+00  0.91188000000E+02  0.91188000000E+02 0.  0.
    9900012    2    3    3    0    0 -0.37822874360E+01 -0.86675636424E+01 -0.35585778763E+02  0.54367081925E+02  0.39999994864E+02 0.  0.
         12    1    3    3    0    0  0.37822874360E+01  0.86675636424E+01  0.35585778763E+02  0.36820918075E+02  0.00000000000E+00 0. -1.
         11    1    4    4    0    0 -0.96629599372E+01  0.54810104167E+01 -0.95384240721E+01  0.14642260890E+02  0.51100000000E-03 0. -1.
        -11    1    4    4    0    0  0.79265437471E+00  0.72411273134E+01 -0.10570163679E+02  0.12837078569E+02  0.51100000000E-03 0.  1.
         12    1    4    4    0    0  0.50880181266E+01 -0.21389701373E+02 -0.15477191012E+02  0.26887742465E+02  0.00000000000E+00 0. -1.
</event>
<event>
 8    1  0.2504019E-006  0.9118800E+02  0.7816164E-02  0.1184000E+00
        -11   -1    0    0    0    0  0.00000000000E+00  0.00000000000E+00  0.45593999997E+02  0.45594000000E+02  0.51100000000E-03 0. -1.
         11   -1    0    0    0    0 -0.00000000000E+00 -0.00000000000E+00 -0.45593999997E+02  0.45594000000E+02  0.51100000000E-03 0.  1.
         23    2    1    2    0    0 -0.71054273576E-14  0.00000000000E+00  0.00000000000E+00  0.91188000000E+02  0.91188000000E+02 0.  0.
    9900012    2    3    3    0    0 -0.35005316547E+02  0.96562681176E+01  0.60962652882E+01  0.54367079982E+02  0.39999990435E+02 0.  0.
        -12    1    3    3    0    0  0.35005316547E+02 -0.96562681176E+01 -0.60962652882E+01  0.36820920018E+02  0.00000000000E+00 0.  1.
         11    1    4    4    0    0 -0.22151942112E+02  0.35682189812E+01 -0.82886131573E-01  0.22437637942E+02  0.51100000000E-03 0. -1.
        -11    1    4    4    0    0  0.21903344906E+01 -0.83750502147E+01  0.68669357116E+01  0.11049608030E+02  0.51100000000E-03 0.  1.
        -12    1    4    4    0    0 -0.15043708925E+02  0.14463099351E+02 -0.68778429184E+00  0.20879834010E+02  0.00000000000E+00 0.  1.
</event>
<event>
 8    1  0.2504019E-006  0.9118800E+02  0.7816164E-02  0.1184000E+00
        -11   -1    0    0    0    0  0.00000000000E+00  0.00000000000E+00  0.45593999997E+02  0.45594000000E+02  0.51100000000E-03 0.  1.
         11   -1    0    0    0    0 -0.00000000000E+00 -0.00000000000E+00 -0.45593999997E+02  0.45594000000E+02  0.51100000000E-03 0. -1.
         23    2    1    2    0    0  0.00000000000E+00  0.00000000000E+00  0.00000000000E+00  0.91188000000E+02  0.91188000000E+02 0.  0.
    9900012    2    3    3    0    0 -0.33819300734E+02 -0.69733661479E+01 -0.12782985916E+02  0.54367113719E+02  0.40000067346E+02 0.  0.
        -12    1    3    3    0    0  0.33819300734E+02  0.69733661479E+01  0.12782985916E+02  0.36820886281E+02  0.00000000000E+00 0.  1.
         11    1    4    4    0    0 -0.70258210538E+01 -0.10075315679E+02 -0.12442715334E+02  0.17484144607E+02  0.51100000000E-03 0. -1.
        -11    1    4    4    0    0 -0.80280445698E+01 -0.57240869901E+01  0.97101522817E+01  0.13838414977E+02  0.51100000000E-03 0.  1.
        -12    1    4    4    0    0 -0.18765435110E+02  0.88260365207E+01 -0.10050422864E+02  0.23044554135E+02  0.00000000000E+00 0.  1.
</event>
<event>
 8    1  0.2504019E-006  0.9118800E+02  0.7816164E-02  0.1184000E+00
        -11   -1    0    0    0    0  0.00000000000E+00  0.00000000000E+00  0.45593999997E+02  0.45594000000E+02  0.51100000000E-03 0.  1.
         11   -1    0    0    0    0 -0.00000000000E+00 -0.00000000000E+00 -0.45593999997E+02  0.45594000000E+02  0.51100000000E-03 0. -1.
         23    2    1    2    0    0  0.00000000000E+00  0.00000000000E+00 -0.35527136788E-14  0.91188000000E+02  0.91188000000E+02 0.  0.
    9900012    2    3    3    0    0 -0.20288679689E+02 -0.22282359149E+02 -0.21157592322E+02  0.54367112374E+02  0.40000064278E+02 0.  0.
        -12    1    3    3    0    0  0.20288679689E+02  0.22282359149E+02  0.21157592322E+02  0.36820887626E+02  0.00000000000E+00 0.  1.
         11    1    4    4    0    0 -0.27249525620E+02 -0.10779140699E+02 -0.58980132276E+01  0.29891689163E+02  0.51100000000E-03 0. -1.
        -11    1    4    4    0    0  0.26086903716E+01  0.25127450479E+01 -0.63391280173E+01  0.73009381185E+01  0.51100000000E-03 0.  1.
         12    1    4    4    0    0  0.43521555593E+01 -0.14015963498E+02 -0.89204510767E+01  0.17174485092E+02  0.00000000000E+00 0. -1.
</event>
<event>
 8    1  0.2504019E-006  0.9118800E+02  0.7816164E-02  0.1184000E+00
        -11   -1    0    0    0    0  0.00000000000E+00  0.00000000000E+00  0.45593999997E+02  0.45594000000E+02  0.51100000000E-03 0.  1.
         11   -1    0    0    0    0 -0.00000000000E+00 -0.00000000000E+00 -0.45593999997E+02  0.45594000000E+02  0.51100000000E-03 0. -1.
         23    2    1    2    0    0  0.00000000000E+00  0.00000000000E+00 -0.35527136788E-14  0.91188000000E+02  0.91188000000E+02 0.  0.
    9900012    2    3    3    0    0  0.24979543548E+02  0.12345482089E+02  0.24070500839E+02  0.54367115511E+02  0.40000071431E+02 0.  0.
         12    1    3    3    0    0 -0.24979543548E+02 -0.12345482089E+02 -0.24070500839E+02  0.36820884489E+02  0.00000000000E+00 0. -1.
         11    1    4    4    0    0  0.23277342162E+02  0.14327807988E+02 -0.16738216248E+01  0.27384711409E+02  0.51100000000E-03 0. -1.
        -11    1    4    4    0    0  0.47077245527E+01 -0.60915872499E+00  0.16272060690E+02  0.16950330504E+02  0.51100000000E-03 0.  1.
         12    1    4    4    0    0 -0.30055231660E+01 -0.13731671741E+01  0.94722617733E+01  0.10032073599E+02  0.00000000000E+00 0. -1.
</event>
<event>
 8    1  0.2504019E-006  0.9118800E+02  0.7816164E-02  0.1184000E+00
        -11   -1    0    0    0    0  0.00000000000E+00  0.00000000000E+00  0.45593999997E+02  0.45594000000E+02  0.51100000000E-03 0.  1.
         11   -1    0    0    0    0 -0.00000000000E+00 -0.00000000000E+00 -0.45593999997E+02  0.45594000000E+02  0.51100000000E-03 0. -1.
         23    2    1    2    0    0  0.00000000000E+00  0.00000000000E+00  0.00000000000E+00  0.91188000000E+02  0.91188000000E+02 0.  0.
    9900012    2    3    3    0    0 -0.28291855970E+02  0.18391272422E+02 -0.14734759908E+02  0.54367066212E+02  0.39999959042E+02 0.  0.
        -12    1    3    3    0    0  0.28291855970E+02 -0.18391272422E+02  0.14734759908E+02  0.36820933788E+02  0.00000000000E+00 0.  1.
         11    1    4    4    0    0 -0.38169876874E+01  0.89422231361E+01 -0.43410063626E+01  0.10647867680E+02  0.51100000000E-03 0.  1.
        -11    1    4    4    0    0 -0.58891139641E+01  0.19663345134E+02 -0.10746661735E+01  0.20554408598E+02  0.51100000000E-03 0. -1.
         12    1    4    4    0    0 -0.18585754318E+02 -0.10214295848E+02 -0.93190873719E+01  0.23164789934E+02  0.00000000000E+00 0. -1.
</event>
<event>
 8    1  0.2504019E-006  0.9118800E+02  0.7816164E-02  0.1184000E+00
        -11   -1    0    0    0    0  0.00000000000E+00  0.00000000000E+00  0.45593999997E+02  0.45594000000E+02  0.51100000000E-03 0.  1.
         11   -1    0    0    0    0 -0.00000000000E+00 -0.00000000000E+00 -0.45593999997E+02  0.45594000000E+02  0.51100000000E-03 0. -1.
         23    2    1    2    0    0  0.35527136788E-14 -0.17763568394E-14  0.35527136788E-14  0.91188000000E+02  0.91188000000E+02 0.  0.
    9900012    2    3    3    0    0  0.25029752078E+02  0.72997846907E+01  0.26000086206E+02  0.54367084363E+02  0.40000000422E+02 0.  0.
         12    1    3    3    0    0 -0.25029752078E+02 -0.72997846907E+01 -0.26000086206E+02  0.36820915637E+02  0.00000000000E+00 0. -1.
         11    1    4    4    0    0  0.19447995630E+02  0.12928905130E+02 -0.28309217608E+00  0.23355112146E+02  0.51100000000E-03 0. -1.
        -11    1    4    4    0    0  0.81959552115E+01 -0.35246856664E+01  0.67366187569E+01  0.11179406219E+02  0.51100000000E-03 0.  1.
         12    1    4    4    0    0 -0.26141987631E+01 -0.21044347733E+01  0.19546559625E+02  0.19832565998E+02  0.00000000000E+00 0. -1.
</event>
<event>
 8    1  0.2504019E-006  0.9118800E+02  0.7816164E-02  0.1184000E+00
        -11   -1    0    0    0    0  0.00000000000E+00  0.00000000000E+00  0.45593999997E+02  0.45594000000E+02  0.51100000000E-03 0.  1.
         11   -1    0    0    0    0 -0.00000000000E+00 -0.00000000000E+00 -0.45593999997E+02  0.45594000000E+02  0.51100000000E-03 0. -1.
         23    2    1    2    0    0 -0.17763568394E-14  0.00000000000E+00  0.71054273576E-14  0.91188000000E+02  0.91188000000E+02 0.  0.
    9900012    2    3    3    0    0 -0.11082880571E+02  0.54166384745E+01  0.34693136871E+02  0.54367028257E+02  0.39999872518E+02 0.  0.
         12    1    3    3    0    0  0.11082880571E+02 -0.54166384745E+01 -0.34693136871E+02  0.36820971743E+02  0.00000000000E+00 0. -1.
         11    1    4    4    0    0  0.14128069530E+02  0.36054043822E+01  0.12533118965E+02  0.19227073637E+02  0.51100000000E-03 0. -1.
        -11    1    4    4    0    0 -0.15782189223E+02 -0.50651533869E+00  0.19463220011E+02  0.25062940529E+02  0.51100000000E-03 0.  1.
         12    1    4    4    0    0 -0.94287608776E+01  0.23177494310E+01  0.26967978950E+01  0.10077014091E+02  0.00000000000E+00 0. -1.
</event>
<event>
 8    1  0.2504019E-006  0.9118800E+02  0.7816164E-02  0.1184000E+00
        -11   -1    0    0    0    0  0.00000000000E+00  0.00000000000E+00  0.45593999997E+02  0.45594000000E+02  0.51100000000E-03 0.  1.
         11   -1    0    0    0    0 -0.00000000000E+00 -0.00000000000E+00 -0.45593999997E+02  0.45594000000E+02  0.51100000000E-03 0. -1.
         23    2    1    2    0    0 -0.35527136788E-14  0.35527136788E-14  0.00000000000E+00  0.91188000000E+02  0.91188000000E+02 0.  0.
    9900012    2    3    3    0    0 -0.23117947459E+02  0.21314214354E+02 -0.19158411223E+02  0.54367082727E+02  0.39999996692E+02 0.  0.
        -12    1    3    3    0    0  0.23117947459E+02 -0.21314214354E+02  0.19158411223E+02  0.36820917273E+02  0.00000000000E+00 0.  1.
         11    1    4    4    0    0 -0.13654978831E+02  0.10570936832E+02 -0.63015402534E+01  0.18382398163E+02  0.51100000000E-03 0. -1.
        -11    1    4    4    0    0 -0.63444418071E+01 -0.92089137361E+00 -0.20644609259E+02  0.21617119940E+02  0.51100000000E-03 0.  1.
        -12    1    4    4    0    0 -0.31185268206E+01  0.11664168896E+02  0.77877382896E+01  0.14367564624E+02  0.00000000000E+00 0.  1.
</event>
<event>
 8    1  0.2504019E-006  0.9118800E+02  0.7816164E-02  0.1184000E+00
        -11   -1    0    0    0    0  0.00000000000E+00  0.00000000000E+00  0.45593999997E+02  0.45594000000E+02  0.51100000000E-03 0.  1.
         11   -1    0    0    0    0 -0.00000000000E+00 -0.00000000000E+00 -0.45593999997E+02  0.45594000000E+02  0.51100000000E-03 0. -1.
         23    2    1    2    0    0  0.00000000000E+00  0.88817841970E-15  0.00000000000E+00  0.91188000000E+02  0.91188000000E+02 0.  0.
    9900012    2    3    3    0    0 -0.11163788184E+02 -0.25108740848E+01 -0.34997768171E+02  0.54367103321E+02  0.40000043640E+02 0.  0.
        -12    1    3    3    0    0  0.11163788184E+02  0.25108740848E+01  0.34997768171E+02  0.36820896679E+02  0.00000000000E+00 0.  1.
         11    1    4    4    0    0 -0.19667049564E+00 -0.77543069776E+01  0.25932741531E+01  0.81788157505E+01  0.51100000000E-03 0.  1.
        -11    1    4    4    0    0 -0.65845067911E+01 -0.64750736265E+01 -0.30369369621E+02  0.31742415151E+02  0.51100000000E-03 0. -1.
        -12    1    4    4    0    0 -0.43826108978E+01  0.11718506519E+02 -0.72216727034E+01  0.14445872419E+02  0.00000000000E+00 0.  1.
</event>
<event>
 8    1  0.2504019E-006  0.9118800E+02  0.7816164E-02  0.1184000E+00
        -11   -1    0    0    0    0  0.00000000000E+00  0.00000000000E+00  0.45593999997E+02  0.45594000000E+02  0.51100000000E-03 0. -1.
         11   -1    0    0    0    0 -0.00000000000E+00 -0.00000000000E+00 -0.45593999997E+02  0.45594000000E+02  0.51100000000E-03 0.  1.
         23    2    1    2    0    0  0.35527136788E-14  0.35527136788E-14  0.00000000000E+00  0.91188000000E+02  0.91188000000E+02 0.  0.
    9900012    2    3    3    0    0 -0.26322915173E+02  0.12465171966E+02 -0.22527841452E+02  0.54367081817E+02  0.39999994619E+02 0.  0.
         12    1    3    3    0    0  0.26322915173E+02 -0.12465171966E+02  0.22527841452E+02  0.36820918183E+02  0.00000000000E+00 0. -1.
         11    1    4    4    0    0 -0.15687359503E+02 -0.61395852749E+01 -0.14885899201E+02  0.22480608328E+02  0.51100000000E-03 0. -1.
        -11    1    4    4    0    0 -0.21179924336E+00  0.16903162138E+02 -0.11714512335E+02  0.20566758342E+02  0.51100000000E-03 0.  1.
         12    1    4    4    0    0 -0.10423756427E+02  0.17015951033E+01  0.40725700840E+01  0.11319715148E+02  0.00000000000E+00 0. -1.
</event>
<event>
 8    1  0.2504019E-006  0.9118800E+02  0.7816164E-02  0.1184000E+00
        -11   -1    0    0    0    0  0.00000000000E+00  0.00000000000E+00  0.45593999997E+02  0.45594000000E+02  0.51100000000E-03 0.  1.
         11   -1    0    0    0    0 -0.00000000000E+00 -0.00000000000E+00 -0.45593999997E+02  0.45594000000E+02  0.51100000000E-03 0. -1.
         23    2    1    2    0    0  0.71054273576E-14  0.00000000000E+00 -0.71054273576E-14  0.91188000000E+02  0.91188000000E+02 0.  0.
    9900012    2    3    3    0    0 -0.29689805559E+02  0.66601264606E+01  0.20734945071E+02  0.54367084942E+02  0.40000001743E+02 0.  0.
        -12    1    3    3    0    0  0.29689805559E+02 -0.66601264606E+01 -0.20734945071E+02  0.36820915058E+02  0.00000000000E+00 0.  1.
         11    1    4    4    0    0 -0.51918699455E+01  0.45072763759E+01  0.22056223715E+01  0.72205141207E+01  0.51100000000E-03 0. -1.
        -11    1    4    4    0    0  0.91091287745E+01  0.21325974514E+01  0.67446002062E+01  0.11533162234E+02  0.51100000000E-03 0.  1.
         12    1    4    4    0    0 -0.33607064388E+02  0.20252633227E-01  0.11784722493E+02  0.35613408587E+02  0.00000000000E+00 0. -1.
</event>
<event>
 8    1  0.2504019E-006  0.9118800E+02  0.7816164E-02  0.1184000E+00
        -11   -1    0    0    0    0  0.00000000000E+00  0.00000000000E+00  0.45593999997E+02  0.45594000000E+02  0.51100000000E-03 0.  1.
         11   -1    0    0    0    0 -0.00000000000E+00 -0.00000000000E+00 -0.45593999997E+02  0.45594000000E+02  0.51100000000E-03 0. -1.
         23    2    1    2    0    0 -0.11102230246E-14  0.00000000000E+00  0.00000000000E+00  0.91188000000E+02  0.91188000000E+02 0.  0.
    9900012    2    3    3    0    0 -0.10228597110E+01  0.30628963205E+02  0.20410759704E+02  0.54367099132E+02  0.40000034091E+02 0.  0.
         12    1    3    3    0    0  0.10228597110E+01 -0.30628963205E+02 -0.20410759704E+02  0.36820900868E+02  0.00000000000E+00 0. -1.
         11    1    4    4    0    0  0.11581752160E+02  0.23146885841E+02  0.11253178003E+02  0.28223205393E+02  0.51100000000E-03 0. -1.
        -11    1    4    4    0    0 -0.63824259866E+01  0.64732265780E+01  0.15006302716E+02  0.17545003427E+02  0.51100000000E-03 0.  1.
         12    1    4    4    0    0 -0.62221858841E+01  0.10088507863E+01 -0.58487210146E+01  0.85988903117E+01  0.00000000000E+00 0. -1.
</event>
<event>
 8    1  0.2504019E-006  0.9118800E+02  0.7816164E-02  0.1184000E+00
        -11   -1    0    0    0    0  0.00000000000E+00  0.00000000000E+00  0.45593999997E+02  0.45594000000E+02  0.51100000000E-03 0. -1.
         11   -1    0    0    0    0 -0.00000000000E+00 -0.00000000000E+00 -0.45593999997E+02  0.45594000000E+02  0.51100000000E-03 0.  1.
         23    2    1    2    0    0  0.00000000000E+00  0.44408920985E-15 -0.55511151231E-15  0.91188000000E+02  0.91188000000E+02 0.  0.
    9900012    2    3    3    0    0 -0.36716256631E+02  0.26093056644E+01  0.94235331377E+00  0.54367081940E+02  0.39999994899E+02 0.  0.
         12    1    3    3    0    0  0.36716256631E+02 -0.26093056644E+01 -0.94235331377E+00  0.36820918060E+02  0.00000000000E+00 0. -1.
         11    1    4    4    0    0  0.72884937419E+00  0.34131804119E+01 -0.99191355612E+01  0.10515240010E+02  0.51100000000E-03 0. -1.
        -11    1    4    4    0    0  0.10481674029E+01  0.35878152680E+01  0.11406265397E+01  0.39079537441E+01  0.51100000000E-03 0.  1.
        -12    1    4    4    0    0 -0.38493273408E+02 -0.43916900154E+01  0.97208623352E+01  0.39943888185E+02  0.00000000000E+00 0.  1.
</event>
<event>
 8    1  0.2504019E-006  0.9118800E+02  0.7816164E-02  0.1184000E+00
        -11   -1    0    0    0    0  0.00000000000E+00  0.00000000000E+00  0.45593999997E+02  0.45594000000E+02  0.51100000000E-03 0.  1.
         11   -1    0    0    0    0 -0.00000000000E+00 -0.00000000000E+00 -0.45593999997E+02  0.45594000000E+02  0.51100000000E-03 0. -1.
         23    2    1    2    0    0  0.00000000000E+00 -0.35527136788E-14  0.00000000000E+00  0.91188000000E+02  0.91188000000E+02 0.  0.
    9900012    2    3    3    0    0 -0.10645920761E+02  0.29878441103E+02  0.18700690591E+02  0.54367181158E+02  0.40000221086E+02 0.  0.
         12    1    3    3    0    0  0.10645920761E+02 -0.29878441103E+02 -0.18700690591E+02  0.36820818842E+02  0.00000000000E+00 0. -1.
         11    1    4    4    0    0 -0.67974493531E+01  0.69486442360E+00  0.33013660864E+01  0.75886212564E+01  0.51100000000E-03 0. -1.
        -11    1    4    4    0    0 -0.84679809117E+01  0.28525487628E+02  0.23171152525E+02  0.37713557970E+02  0.51100000000E-03 0.  1.
        -12    1    4    4    0    0  0.46195095033E+01  0.65808905141E+00 -0.77718280204E+01  0.90650019321E+01  0.00000000000E+00 0.  1.
</event>
<event>
 8    1  0.2504019E-006  0.9118800E+02  0.7816164E-02  0.1184000E+00
        -11   -1    0    0    0    0  0.00000000000E+00  0.00000000000E+00  0.45593999997E+02  0.45594000000E+02  0.51100000000E-03 0. -1.
         11   -1    0    0    0    0 -0.00000000000E+00 -0.00000000000E+00 -0.45593999997E+02  0.45594000000E+02  0.51100000000E-03 0.  1.
         23    2    1    2    0    0  0.00000000000E+00  0.00000000000E+00 -0.35527136788E-14  0.91188000000E+02  0.91188000000E+02 0.  0.
    9900012    2    3    3    0    0  0.18916314723E+02 -0.18939688489E+02 -0.25283194453E+02  0.54367099895E+02  0.40000035831E+02 0.  0.
         12    1    3    3    0    0 -0.18916314723E+02  0.18939688489E+02  0.25283194453E+02  0.36820900105E+02  0.00000000000E+00 0. -1.
         11    1    4    4    0    0 -0.93234680976E+01 -0.77689674649E+01  0.50041801027E+00  0.12146371116E+02  0.51100000000E-03 0. -1.
        -11    1    4    4    0    0  0.17425834538E+02 -0.57673304383E+01 -0.65216971113E+01  0.19479587860E+02  0.51100000000E-03 0.  1.
        -12    1    4    4    0    0  0.10813948283E+02 -0.54033905858E+01 -0.19261915352E+02  0.22741140919E+02  0.00000000000E+00 0.  1.
</event>
<event>
 8    1  0.2504019E-006  0.9118800E+02  0.7816164E-02  0.1184000E+00
        -11   -1    0    0    0    0  0.00000000000E+00  0.00000000000E+00  0.45593999997E+02  0.45594000000E+02  0.51100000000E-03 0. -1.
         11   -1    0    0    0    0 -0.00000000000E+00 -0.00000000000E+00 -0.45593999997E+02  0.45594000000E+02  0.51100000000E-03 0.  1.
         23    2    1    2    0    0  0.00000000000E+00  0.35527136788E-14  0.00000000000E+00  0.91188000000E+02  0.91188000000E+02 0.  0.
    9900012    2    3    3    0    0 -0.10728903439E+02 -0.13532368346E+02 -0.32520001760E+02  0.54367015813E+02  0.39999844148E+02 0.  0.
         12    1    3    3    0    0  0.10728903439E+02  0.13532368346E+02  0.32520001760E+02  0.36820984187E+02  0.00000000000E+00 0. -1.
         11    1    4    4    0    0 -0.81473157460E+01 -0.78173616561E+01  0.46000605060E+01  0.12192229248E+02  0.51100000000E-03 0. -1.
        -11    1    4    4    0    0 -0.41269520138E+01  0.57430011241E+01 -0.71713912371E+01  0.10071874075E+02  0.51100000000E-03 0.  1.
        -12    1    4    4    0    0  0.15453643209E+01 -0.11458007814E+02 -0.29948671029E+02  0.32102912490E+02  0.00000000000E+00 0.  1.
</event>
<event>
 8    1  0.2504019E-006  0.9118800E+02  0.7816164E-02  0.1184000E+00
        -11   -1    0    0    0    0  0.00000000000E+00  0.00000000000E+00  0.45593999997E+02  0.45594000000E+02  0.51100000000E-03 0. -1.
         11   -1    0    0    0    0 -0.00000000000E+00 -0.00000000000E+00 -0.45593999997E+02  0.45594000000E+02  0.51100000000E-03 0.  1.
         23    2    1    2    0    0  0.00000000000E+00  0.00000000000E+00  0.00000000000E+00  0.91188000000E+02  0.91188000000E+02 0.  0.
    9900012    2    3    3    0    0 -0.19273582258E+02  0.28518845491E+02 -0.13076095951E+02  0.54367084659E+02  0.40000001097E+02 0.  0.
         12    1    3    3    0    0  0.19273582258E+02 -0.28518845491E+02  0.13076095951E+02  0.36820915341E+02  0.00000000000E+00 0. -1.
         11    1    4    4    0    0 -0.10826688784E+01 -0.27783995171E+01 -0.42104018461E+01  0.51593759065E+01  0.51100000000E-03 0. -1.
        -11    1    4    4    0    0 -0.23065034306E+02  0.17244411851E+02 -0.15742760043E+02  0.32820725795E+02  0.51100000000E-03 0.  1.
         12    1    4    4    0    0  0.48741209262E+01  0.14052833157E+02  0.68770659386E+01  0.16386982958E+02  0.00000000000E+00 0. -1.
</event>
<event>
 8    1  0.2504019E-006  0.9118800E+02  0.7816164E-02  0.1184000E+00
        -11   -1    0    0    0    0  0.00000000000E+00  0.00000000000E+00  0.45593999997E+02  0.45594000000E+02  0.51100000000E-03 0. -1.
         11   -1    0    0    0    0 -0.00000000000E+00 -0.00000000000E+00 -0.45593999997E+02  0.45594000000E+02  0.51100000000E-03 0.  1.
         23    2    1    2    0    0 -0.88817841970E-15  0.00000000000E+00  0.00000000000E+00  0.91188000000E+02  0.91188000000E+02 0.  0.
    9900012    2    3    3    0    0  0.29312861516E+01 -0.32870311810E+02 -0.16331541957E+02  0.54367230050E+02  0.40000332545E+02 0.  0.
         12    1    3    3    0    0 -0.29312861516E+01  0.32870311810E+02  0.16331541957E+02  0.36820769950E+02  0.00000000000E+00 0. -1.
         11    1    4    4    0    0 -0.57940591737E+01  0.16157612631E+01  0.18763737965E+01  0.63009987346E+01  0.51100000000E-03 0. -1.
        -11    1    4    4    0    0  0.54221844606E+01 -0.35178308624E+02 -0.68881950886E+01  0.36254113060E+02  0.51100000000E-03 0.  1.
         12    1    4    4    0    0  0.33031608646E+01  0.69223555062E+00 -0.11319720665E+02  0.11812118256E+02  0.00000000000E+00 0. -1.
</event>
<event>
 8    1  0.2504019E-006  0.9118800E+02  0.7816164E-02  0.1184000E+00
        -11   -1    0    0    0    0  0.00000000000E+00  0.00000000000E+00  0.45593999997E+02  0.45594000000E+02  0.51100000000E-03 0.  1.
         11   -1    0    0    0    0 -0.00000000000E+00 -0.00000000000E+00 -0.45593999997E+02  0.45594000000E+02  0.51100000000E-03 0. -1.
         23    2    1    2    0    0  0.00000000000E+00  0.00000000000E+00 -0.88817841970E-15  0.91188000000E+02  0.91188000000E+02 0.  0.
    9900012    2    3    3    0    0 -0.34696179893E+02  0.95740403843E+01  0.77648522592E+01  0.54367080958E+02  0.39999992661E+02 0.  0.
         12    1    3    3    0    0  0.34696179893E+02 -0.95740403843E+01 -0.77648522592E+01  0.36820919042E+02  0.00000000000E+00 0. -1.
         11    1    4    4    0    0 -0.23994911828E+02  0.70017138944E+01 -0.55375037009E+01  0.25601635467E+02  0.51100000000E-03 0. -1.
        -11    1    4    4    0    0 -0.54253949519E+01  0.40897778781E+01  0.19403155895E+02  0.20558298870E+02  0.51100000000E-03 0.  1.
        -12    1    4    4    0    0 -0.52758731129E+01 -0.15174513882E+01 -0.61007999348E+01  0.82071466213E+01  0.00000000000E+00 0.  1.
</event>
<event>
 8    1  0.2504019E-006  0.9118800E+02  0.7816164E-02  0.1184000E+00
        -11   -1    0    0    0    0  0.00000000000E+00  0.00000000000E+00  0.45593999997E+02  0.45594000000E+02  0.51100000000E-03 0.  1.
         11   -1    0    0    0    0 -0.00000000000E+00 -0.00000000000E+00 -0.45593999997E+02  0.45594000000E+02  0.51100000000E-03 0. -1.
         23    2    1    2    0    0  0.17763568394E-14  0.35527136788E-14  0.00000000000E+00  0.91188000000E+02  0.91188000000E+02 0.  0.
    9900012    2    3    3    0    0 -0.13410982132E+02  0.19554643484E+02 -0.28169833756E+02  0.54367108411E+02  0.40000055245E+02 0.  0.
        -12    1    3    3    0    0  0.13410982132E+02 -0.19554643484E+02  0.28169833756E+02  0.36820891589E+02  0.00000000000E+00 0.  1.
         11    1    4    4    0    0 -0.18513307594E+02  0.51307821939E+01 -0.58867782875E+01  0.20092825656E+02  0.51100000000E-03 0. -1.
        -11    1    4    4    0    0  0.11454900918E+02  0.13951163398E+01 -0.94654194254E+01  0.14924988100E+02  0.51100000000E-03 0.  1.
         12    1    4    4    0    0 -0.63525754559E+01  0.13028744950E+02 -0.12817636043E+02  0.19349294655E+02  0.00000000000E+00 0. -1.
</event>
<event>
 8    1  0.2504019E-006  0.9118800E+02  0.7816164E-02  0.1184000E+00
        -11   -1    0    0    0    0  0.00000000000E+00  0.00000000000E+00  0.45593999997E+02  0.45594000000E+02  0.51100000000E-03 0.  1.
         11   -1    0    0    0    0 -0.00000000000E+00 -0.00000000000E+00 -0.45593999997E+02  0.45594000000E+02  0.51100000000E-03 0. -1.
         23    2    1    2    0    0  0.00000000000E+00  0.00000000000E+00  0.13322676296E-14  0.91188000000E+02  0.91188000000E+02 0.  0.
    9900012    2    3    3    0    0 -0.29196845801E+02  0.22400864142E+02 -0.12350972549E+01  0.54367082246E+02  0.39999995596E+02 0.  0.
         12    1    3    3    0    0  0.29196845801E+02 -0.22400864142E+02  0.12350972549E+01  0.36820917754E+02  0.00000000000E+00 0. -1.
         11    1    4    4    0    0 -0.24476990489E+02  0.16914289419E+02 -0.15861679104E+02  0.33716599980E+02  0.51100000000E-03 0. -1.
        -11    1    4    4    0    0 -0.81422719118E+01  0.59840333913E+01  0.13783810499E+02  0.17090894642E+02  0.51100000000E-03 0.  1.
         12    1    4    4    0    0  0.34224165994E+01 -0.49745866908E+00  0.84277134950E+00  0.35595876243E+01  0.00000000000E+00 0. -1.
</event>
<event>
 8    1  0.2504019E-006  0.9118800E+02  0.7816164E-02  0.1184000E+00
        -11   -1    0    0    0    0  0.00000000000E+00  0.00000000000E+00  0.45593999997E+02  0.45594000000E+02  0.51100000000E-03 0. -1.
         11   -1    0    0    0    0 -0.00000000000E+00 -0.00000000000E+00 -0.45593999997E+02  0.45594000000E+02  0.51100000000E-03 0.  1.
         23    2    1    2    0    0  0.00000000000E+00  0.00000000000E+00  0.00000000000E+00  0.91188000000E+02  0.91188000000E+02 0.  0.
    9900012    2    3    3    0    0 -0.32491288098E+02  0.65181115473E+01  0.16050227482E+02  0.54367090415E+02  0.40000014220E+02 0.  0.
        -12    1    3    3    0    0  0.32491288098E+02 -0.65181115473E+01 -0.16050227482E+02  0.36820909585E+02  0.00000000000E+00 0.  1.
         11    1    4    4    0    0 -0.71161640313E+01 -0.11658453649E+02  0.15451967377E+02  0.20623351524E+02  0.51100000000E-03 0. -1.
        -11    1    4    4    0    0 -0.46510091323E+01  0.54236406205E+01 -0.50672431933E+01  0.87592646592E+01  0.51100000000E-03 0.  1.
        -12    1    4    4    0    0 -0.20724114934E+02  0.12752924575E+02  0.56655032983E+01  0.24984474232E+02  0.00000000000E+00 0.  1.
</event>
<event>
 8    1  0.2504019E-006  0.9118800E+02  0.7816164E-02  0.1184000E+00
        -11   -1    0    0    0    0  0.00000000000E+00  0.00000000000E+00  0.45593999997E+02  0.45594000000E+02  0.51100000000E-03 0.  1.
         11   -1    0    0    0    0 -0.00000000000E+00 -0.00000000000E+00 -0.45593999997E+02  0.45594000000E+02  0.51100000000E-03 0. -1.
         23    2    1    2    0    0  0.00000000000E+00  0.00000000000E+00  0.00000000000E+00  0.91188000000E+02  0.91188000000E+02 0.  0.
    9900012    2    3    3    0    0  0.26972881367E+02 -0.14128045464E+02  0.20703649327E+02  0.54367094344E+02  0.40000023176E+02 0.  0.
         12    1    3    3    0    0 -0.26972881367E+02  0.14128045464E+02 -0.20703649327E+02  0.36820905656E+02  0.00000000000E+00 0. -1.
         11    1    4    4    0    0  0.35874843945E+01 -0.70167916717E+01 -0.50102981041E+01  0.93385489771E+01  0.51100000000E-03 0. -1.
        -11    1    4    4    0    0  0.20083610698E+02 -0.15436017219E+02  0.25683237588E+02  0.36072853221E+02  0.51100000000E-03 0.  1.
        -12    1    4    4    0    0  0.33017862742E+01  0.83247634269E+01  0.30709843099E-01  0.89556921457E+01  0.00000000000E+00 0.  1.
</event>
<event>
 8    1  0.2504019E-006  0.9118800E+02  0.7816164E-02  0.1184000E+00
        -11   -1    0    0    0    0  0.00000000000E+00  0.00000000000E+00  0.45593999997E+02  0.45594000000E+02  0.51100000000E-03 0.  1.
         11   -1    0    0    0    0 -0.00000000000E+00 -0.00000000000E+00 -0.45593999997E+02  0.45594000000E+02  0.51100000000E-03 0. -1.
         23    2    1    2    0    0 -0.88817841970E-15 -0.35527136788E-14  0.35527136788E-14  0.91188000000E+02  0.91188000000E+02 0.  0.
    9900012    2    3    3    0    0 -0.63942931378E+01 -0.23758347505E+02  0.27394042979E+02  0.54367086763E+02  0.40000005894E+02 0.  0.
         12    1    3    3    0    0  0.63942931378E+01  0.23758347505E+02 -0.27394042979E+02  0.36820913237E+02  0.00000000000E+00 0. -1.
         11    1    4    4    0    0 -0.75175711352E+01 -0.13456386600E+02  0.22337006708E+02  0.27139087771E+02  0.51100000000E-03 0. -1.
        -11    1    4    4    0    0 -0.26728346687E+01 -0.12270978608E+01  0.13774063314E+02  0.14084553055E+02  0.51100000000E-03 0.  1.
         12    1    4    4    0    0  0.37961126661E+01 -0.90748630436E+01 -0.87170270428E+01  0.13143445937E+02  0.00000000000E+00 0. -1.
</event>
<event>
 8    1  0.2504019E-006  0.9118800E+02  0.7816164E-02  0.1184000E+00
        -11   -1    0    0    0    0  0.00000000000E+00  0.00000000000E+00  0.45593999997E+02  0.45594000000E+02  0.51100000000E-03 0.  1.
         11   -1    0    0    0    0 -0.00000000000E+00 -0.00000000000E+00 -0.45593999997E+02  0.45594000000E+02  0.51100000000E-03 0. -1.
         23    2    1    2    0    0 -0.35527136788E-14 -0.17763568394E-14  0.00000000000E+00  0.91188000000E+02  0.91188000000E+02 0.  0.
    9900012    2    3    3    0    0 -0.97996698538E+01 -0.13215290795E+02  0.32940899439E+02  0.54367078014E+02  0.39999985949E+02 0.  0.
         12    1    3    3    0    0  0.97996698538E+01  0.13215290795E+02 -0.32940899439E+02  0.36820921986E+02  0.00000000000E+00 0. -1.
         11    1    4    4    0    0  0.75593379386E+00  0.47836205806E+01  0.16872898966E+01  0.51284899547E+01  0.51100000000E-03 0. -1.
        -11    1    4    4    0    0 -0.11870911710E+00 -0.25239442753E+02  0.22493575836E+02  0.33808349804E+02  0.51100000000E-03 0.  1.
         12    1    4    4    0    0 -0.10436894531E+02  0.72405313773E+01  0.87600337062E+01  0.15430238255E+02  0.00000000000E+00 0. -1.
</event>
<event>
 8    1  0.2504019E-006  0.9118800E+02  0.7816164E-02  0.1184000E+00
        -11   -1    0    0    0    0  0.00000000000E+00  0.00000000000E+00  0.45593999997E+02  0.45594000000E+02  0.51100000000E-03 0.  1.
         11   -1    0    0    0    0 -0.00000000000E+00 -0.00000000000E+00 -0.45593999997E+02  0.45594000000E+02  0.51100000000E-03 0. -1.
         23    2    1    2    0    0  0.00000000000E+00 -0.17763568394E-14  0.00000000000E+00  0.91188000000E+02  0.91188000000E+02 0.  0.
    9900012    2    3    3    0    0  0.23417507810E+02 -0.14621617991E+02 -0.24364089077E+02  0.54367079027E+02  0.39999988258E+02 0.  0.
        -12    1    3    3    0    0 -0.23417507810E+02  0.14621617991E+02  0.24364089077E+02  0.36820920973E+02  0.00000000000E+00 0.  1.
         11    1    4    4    0    0  0.18514619364E+02  0.44068802764E+01 -0.83290284658E+01  0.20774610452E+02  0.51100000000E-03 0. -1.
        -11    1    4    4    0    0 -0.31184356897E+01  0.39123611335E+01 -0.12913106524E+01  0.51670779220E+01  0.51100000000E-03 0.  1.
         12    1    4    4    0    0  0.80213241357E+01 -0.22940859401E+02 -0.14743749959E+02  0.28425390654E+02  0.00000000000E+00 0. -1.
</event>
<event>
 8    1  0.2504019E-006  0.9118800E+02  0.7816164E-02  0.1184000E+00
        -11   -1    0    0    0    0  0.00000000000E+00  0.00000000000E+00  0.45593999997E+02  0.45594000000E+02  0.51100000000E-03 0. -1.
         11   -1    0    0    0    0 -0.00000000000E+00 -0.00000000000E+00 -0.45593999997E+02  0.45594000000E+02  0.51100000000E-03 0.  1.
         23    2    1    2    0    0  0.00000000000E+00  0.00000000000E+00  0.44408920985E-15  0.91188000000E+02  0.91188000000E+02 0.  0.
    9900012    2    3    3    0    0 -0.35898794615E+02 -0.78773211779E+01  0.22362194826E+01  0.54367131986E+02  0.40000108988E+02 0.  0.
         12    1    3    3    0    0  0.35898794615E+02  0.78773211779E+01 -0.22362194826E+01  0.36820868014E+02  0.00000000000E+00 0. -1.
         11    1    4    4    0    0 -0.16214165953E+02 -0.41219636675E+01 -0.14123694264E+02  0.21894485652E+02  0.51100000000E-03 0. -1.
        -11    1    4    4    0    0 -0.68858784096E+01  0.46503558267E+01 -0.20190534388E+01  0.85508893009E+01  0.51100000000E-03 0.  1.
         12    1    4    4    0    0 -0.12798750252E+02 -0.84057133370E+01  0.18378967186E+02  0.23921757033E+02  0.00000000000E+00 0. -1.
</event>
<event>
 8    1  0.2504019E-006  0.9118800E+02  0.7816164E-02  0.1184000E+00
        -11   -1    0    0    0    0  0.00000000000E+00  0.00000000000E+00  0.45593999997E+02  0.45594000000E+02  0.51100000000E-03 0.  1.
         11   -1    0    0    0    0 -0.00000000000E+00 -0.00000000000E+00 -0.45593999997E+02  0.45594000000E+02  0.51100000000E-03 0. -1.
         23    2    1    2    0    0 -0.35527136788E-14  0.17763568394E-14  0.35527136788E-14  0.91188000000E+02  0.91188000000E+02 0.  0.
    9900012    2    3    3    0    0 -0.21443882814E+02  0.14783861943E+02  0.26026472763E+02  0.54367082459E+02  0.39999996081E+02 0.  0.
         12    1    3    3    0    0  0.21443882814E+02 -0.14783861943E+02 -0.26026472763E+02  0.36820917541E+02  0.00000000000E+00 0. -1.
         11    1    4    4    0    0  0.11380360146E+02  0.24252738046E+01  0.34284591006E+01  0.12130493895E+02  0.51100000000E-03 0. -1.
        -11    1    4    4    0    0 -0.10800817695E+01  0.36088787212E+00  0.26203521737E+01  0.28571073589E+01  0.51100000000E-03 0.  1.
        -12    1    4    4    0    0 -0.31744161190E+02  0.11997700267E+02  0.19977661489E+02  0.39379481204E+02  0.00000000000E+00 0.  1.
</event>
<event>
 8    1  0.2504019E-006  0.9118800E+02  0.7816164E-02  0.1184000E+00
        -11   -1    0    0    0    0  0.00000000000E+00  0.00000000000E+00  0.45593999997E+02  0.45594000000E+02  0.51100000000E-03 0.  1.
         11   -1    0    0    0    0 -0.00000000000E+00 -0.00000000000E+00 -0.45593999997E+02  0.45594000000E+02  0.51100000000E-03 0. -1.
         23    2    1    2    0    0  0.00000000000E+00  0.11379786002E-14  0.00000000000E+00  0.91188000000E+02  0.91188000000E+02 0.  0.
    9900012    2    3    3    0    0 -0.18977296305E+02  0.17902346843E+00 -0.31553292706E+02  0.54367080606E+02  0.39999991857E+02 0.  0.
        -12    1    3    3    0    0  0.18977296305E+02 -0.17902346843E+00  0.31553292706E+02  0.36820919394E+02  0.00000000000E+00 0.  1.
         11    1    4    4    0    0  0.69668924033E+01 -0.43393367418E+01 -0.12307621309E+02  0.14793409873E+02  0.51100000000E-03 0. -1.
        -11    1    4    4    0    0  0.36318390153E+01 -0.15046290675E+01 -0.45188081118E+01  0.59894732887E+01  0.51100000000E-03 0.  1.
         12    1    4    4    0    0 -0.29576027724E+02  0.60229892777E+01 -0.14726863285E+02  0.33584197444E+02  0.00000000000E+00 0. -1.
</event>
<event>
 8    1  0.2504019E-006  0.9118800E+02  0.7816164E-02  0.1184000E+00
        -11   -1    0    0    0    0  0.00000000000E+00  0.00000000000E+00  0.45593999997E+02  0.45594000000E+02  0.51100000000E-03 0.  1.
         11   -1    0    0    0    0 -0.00000000000E+00 -0.00000000000E+00 -0.45593999997E+02  0.45594000000E+02  0.51100000000E-03 0. -1.
         23    2    1    2    0    0  0.00000000000E+00 -0.17763568394E-14  0.17763568394E-14  0.91188000000E+02  0.91188000000E+02 0.  0.
    9900012    2    3    3    0    0 -0.33182490310E+02  0.14361929231E+02 -0.69596473027E+01  0.54367090655E+02  0.40000014766E+02 0.  0.
         12    1    3    3    0    0  0.33182490310E+02 -0.14361929231E+02  0.69596473027E+01  0.36820909345E+02  0.00000000000E+00 0. -1.
         11    1    4    4    0    0 -0.17290699206E+02  0.23272512310E+01 -0.62131113376E+01  0.18519911719E+02  0.51100000000E-03 0. -1.
        -11    1    4    4    0    0 -0.76501515067E+01  0.21771389564E+02 -0.15251400431E+00  0.23076860324E+02  0.51100000000E-03 0.  1.
        -12    1    4    4    0    0 -0.82416395972E+01 -0.97367115648E+01 -0.59402196086E+00  0.12770318611E+02  0.00000000000E+00 0.  1.
</event>
<event>
 8    1  0.2504019E-006  0.9118800E+02  0.7816164E-02  0.1184000E+00
        -11   -1    0    0    0    0  0.00000000000E+00  0.00000000000E+00  0.45593999997E+02  0.45594000000E+02  0.51100000000E-03 0.  1.
         11   -1    0    0    0    0 -0.00000000000E+00 -0.00000000000E+00 -0.45593999997E+02  0.45594000000E+02  0.51100000000E-03 0. -1.
         23    2    1    2    0    0  0.35527136788E-14 -0.17763568394E-14  0.00000000000E+00  0.91188000000E+02  0.91188000000E+02 0.  0.
    9900012    2    3    3    0    0 -0.13830881537E+02 -0.12614061521E+02  0.31707598176E+02  0.54367087270E+02  0.40000007050E+02 0.  0.
         12    1    3    3    0    0  0.13830881537E+02  0.12614061521E+02 -0.31707598176E+02  0.36820912730E+02  0.00000000000E+00 0. -1.
         11    1    4    4    0    0 -0.87515482135E+01  0.90812859480E+00  0.90223121610E+00  0.88446772189E+01  0.51100000000E-03 0. -1.
        -11    1    4    4    0    0 -0.11223010525E+02 -0.10680242746E+02  0.34494004188E+02  0.37813488011E+02  0.51100000000E-03 0.  1.
         12    1    4    4    0    0  0.61436772020E+01 -0.28419473705E+01 -0.36886372281E+01  0.77089220401E+01  0.00000000000E+00 0. -1.
</event>
<event>
 8    1  0.2504019E-006  0.9118800E+02  0.7816164E-02  0.1184000E+00
        -11   -1    0    0    0    0  0.00000000000E+00  0.00000000000E+00  0.45593999997E+02  0.45594000000E+02  0.51100000000E-03 0. -1.
         11   -1    0    0    0    0 -0.00000000000E+00 -0.00000000000E+00 -0.45593999997E+02  0.45594000000E+02  0.51100000000E-03 0.  1.
         23    2    1    2    0    0  0.00000000000E+00  0.17763568394E-14  0.00000000000E+00  0.91188000000E+02  0.91188000000E+02 0.  0.
    9900012    2    3    3    0    0 -0.20187016042E+02 -0.12172874602E+02  0.28285793914E+02  0.54367073476E+02  0.39999975603E+02 0.  0.
        -12    1    3    3    0    0  0.20187016042E+02  0.12172874602E+02 -0.28285793914E+02  0.36820926524E+02  0.00000000000E+00 0.  1.
         11    1    4    4    0    0 -0.44246139092E+01 -0.17025936077E+02  0.56663899397E+01  0.18481549793E+02  0.51100000000E-03 0. -1.
        -11    1    4    4    0    0 -0.60987651115E+01 -0.23511712595E+01 -0.32841031405E+01  0.73149351245E+01  0.51100000000E-03 0.  1.
         12    1    4    4    0    0 -0.96636370213E+01  0.72042327344E+01  0.25903507115E+02  0.28570588559E+02  0.00000000000E+00 0. -1.
</event>
<event>
 8    1  0.2504019E-006  0.9118800E+02  0.7816164E-02  0.1184000E+00
        -11   -1    0    0    0    0  0.00000000000E+00  0.00000000000E+00  0.45593999997E+02  0.45594000000E+02  0.51100000000E-03 0.  1.
         11   -1    0    0    0    0 -0.00000000000E+00 -0.00000000000E+00 -0.45593999997E+02  0.45594000000E+02  0.51100000000E-03 0. -1.
         23    2    1    2    0    0  0.00000000000E+00  0.71054273576E-14 -0.35527136788E-14  0.91188000000E+02  0.91188000000E+02 0.  0.
    9900012    2    3    3    0    0 -0.81498244241E+01 -0.25830551572E+02  0.24942762417E+02  0.54367103356E+02  0.40000043720E+02 0.  0.
        -12    1    3    3    0    0  0.81498244241E+01  0.25830551572E+02 -0.24942762417E+02  0.36820896644E+02  0.00000000000E+00 0.  1.
         11    1    4    4    0    0 -0.17741667238E+01 -0.25317489409E+00  0.89907808501E+01  0.91676554062E+01  0.51100000000E-03 0. -1.
        -11    1    4    4    0    0  0.10917198753E+02  0.20500376233E+00  0.17422809700E+01  0.11057250942E+02  0.51100000000E-03 0.  1.
         12    1    4    4    0    0 -0.17292856453E+02 -0.25782380440E+02  0.14209700597E+02  0.34142197008E+02  0.00000000000E+00 0. -1.
</event>
<event>
 8    1  0.2504019E-006  0.9118800E+02  0.7816164E-02  0.1184000E+00
        -11   -1    0    0    0    0  0.00000000000E+00  0.00000000000E+00  0.45593999997E+02  0.45594000000E+02  0.51100000000E-03 0.  1.
         11   -1    0    0    0    0 -0.00000000000E+00 -0.00000000000E+00 -0.45593999997E+02  0.45594000000E+02  0.51100000000E-03 0. -1.
         23    2    1    2    0    0  0.35527136788E-14  0.00000000000E+00  0.00000000000E+00  0.91188000000E+02  0.91188000000E+02 0.  0.
    9900012    2    3    3    0    0 -0.20712235931E+02 -0.28351142892E+02  0.11090339141E+02  0.54367086883E+02  0.40000006167E+02 0.  0.
         12    1    3    3    0    0  0.20712235931E+02  0.28351142892E+02 -0.11090339141E+02  0.36820913117E+02  0.00000000000E+00 0. -1.
         11    1    4    4    0    0  0.26761491294E+01  0.26501496864E+01 -0.85253182745E+01  0.93201995400E+01  0.51100000000E-03 0. -1.
        -11    1    4    4    0    0 -0.19280151480E+02 -0.27913755619E+02  0.12256823779E+02  0.36071203519E+02  0.51100000000E-03 0.  1.
         12    1    4    4    0    0 -0.41082335801E+01 -0.30875369590E+01  0.73588336366E+01  0.89756838242E+01  0.00000000000E+00 0. -1.
</event>
<event>
 8    1  0.2504019E-006  0.9118800E+02  0.7816164E-02  0.1184000E+00
        -11   -1    0    0    0    0  0.00000000000E+00  0.00000000000E+00  0.45593999997E+02  0.45594000000E+02  0.51100000000E-03 0.  1.
         11   -1    0    0    0    0 -0.00000000000E+00 -0.00000000000E+00 -0.45593999997E+02  0.45594000000E+02  0.51100000000E-03 0. -1.
         23    2    1    2    0    0  0.44408920985E-15  0.00000000000E+00 -0.35527136788E-14  0.91188000000E+02  0.91188000000E+02 0.  0.
    9900012    2    3    3    0    0 -0.23451877741E+00  0.32648824988E+02  0.17022911896E+02  0.54367077937E+02  0.39999985773E+02 0.  0.
         12    1    3    3    0    0  0.23451877741E+00 -0.32648824988E+02 -0.17022911896E+02  0.36820922063E+02  0.00000000000E+00 0. -1.
         11    1    4    4    0    0 -0.25617361870E+01 -0.23288217327E+01 -0.19383635074E+01  0.39677646480E+01  0.51100000000E-03 0. -1.
        -11    1    4    4    0    0 -0.11049389052E+02  0.28884795747E+02  0.17732578554E+02  0.35649190260E+02  0.51100000000E-03 0.  1.
         12    1    4    4    0    0  0.13376606461E+02  0.60928509732E+01  0.12286968496E+01  0.14750123028E+02  0.00000000000E+00 0. -1.
</event>
<event>
 8    1  0.2504019E-006  0.9118800E+02  0.7816164E-02  0.1184000E+00
        -11   -1    0    0    0    0  0.00000000000E+00  0.00000000000E+00  0.45593999997E+02  0.45594000000E+02  0.51100000000E-03 0. -1.
         11   -1    0    0    0    0 -0.00000000000E+00 -0.00000000000E+00 -0.45593999997E+02  0.45594000000E+02  0.51100000000E-03 0.  1.
         23    2    1    2    0    0  0.00000000000E+00  0.00000000000E+00  0.00000000000E+00  0.91188000000E+02  0.91188000000E+02 0.  0.
    9900012    2    3    3    0    0 -0.27587427584E+02 -0.67147467436E+01 -0.23444112127E+02  0.54367076900E+02  0.39999983409E+02 0.  0.
         12    1    3    3    0    0  0.27587427584E+02  0.67147467436E+01  0.23444112127E+02  0.36820923100E+02  0.00000000000E+00 0. -1.
         11    1    4    4    0    0 -0.23200819884E+01 -0.89497029542E+01 -0.19233073743E+02  0.21339894312E+02  0.51100000000E-03 0. -1.
        -11    1    4    4    0    0 -0.21656056127E+02  0.42795907964E+01 -0.11310508958E+02  0.24803775469E+02  0.51100000000E-03 0.  1.
         12    1    4    4    0    0 -0.36112894681E+01 -0.20446345857E+01  0.70994705737E+01  0.82234071186E+01  0.00000000000E+00 0. -1.
</event>
<event>
 8    1  0.2504019E-006  0.9118800E+02  0.7816164E-02  0.1184000E+00
        -11   -1    0    0    0    0  0.00000000000E+00  0.00000000000E+00  0.45593999997E+02  0.45594000000E+02  0.51100000000E-03 0.  1.
         11   -1    0    0    0    0 -0.00000000000E+00 -0.00000000000E+00 -0.45593999997E+02  0.45594000000E+02  0.51100000000E-03 0. -1.
         23    2    1    2    0    0  0.17763568394E-14 -0.35527136788E-14  0.00000000000E+00  0.91188000000E+02  0.91188000000E+02 0.  0.
    9900012    2    3    3    0    0 -0.11983919134E+02  0.22773198612E+02  0.26335280971E+02  0.54367083163E+02  0.39999997687E+02 0.  0.
         12    1    3    3    0    0  0.11983919134E+02 -0.22773198612E+02 -0.26335280971E+02  0.36820916837E+02  0.00000000000E+00 0. -1.
         11    1    4    4    0    0 -0.45242892993E+01 -0.92218344388E+01  0.12362764827E+02  0.16073250402E+02  0.51100000000E-03 0. -1.
        -11    1    4    4    0    0 -0.77010125987E+01  0.64364816713E+01  0.29718992550E+01  0.10467381563E+02  0.51100000000E-03 0.  1.
        -12    1    4    4    0    0  0.24138276356E+00  0.25558551380E+02  0.11000616890E+02  0.27826451197E+02  0.00000000000E+00 0.  1.
</event>
<event>
 8    1  0.2504019E-006  0.9118800E+02  0.7816164E-02  0.1184000E+00
        -11   -1    0    0    0    0  0.00000000000E+00  0.00000000000E+00  0.45593999997E+02  0.45594000000E+02  0.51100000000E-03 0. -1.
         11   -1    0    0    0    0 -0.00000000000E+00 -0.00000000000E+00 -0.45593999997E+02  0.45594000000E+02  0.51100000000E-03 0.  1.
         23    2    1    2    0    0  0.35527136788E-14  0.00000000000E+00  0.44408920985E-15  0.91188000000E+02  0.91188000000E+02 0.  0.
    9900012    2    3    3    0    0  0.29158627824E+02 -0.22288083257E+02 -0.29657415948E+01  0.54367084000E+02  0.39999999596E+02 0.  0.
         12    1    3    3    0    0 -0.29158627824E+02  0.22288083257E+02  0.29657415948E+01  0.36820916000E+02  0.00000000000E+00 0. -1.
         11    1    4    4    0    0 -0.69966532160E+01 -0.68617956801E+00  0.31965697642E+01  0.77228270176E+01  0.51100000000E-03 0. -1.
        -11    1    4    4    0    0  0.28049489815E+02 -0.24828468253E+02 -0.41329284793E+01  0.37686971393E+02  0.51100000000E-03 0.  1.
        -12    1    4    4    0    0  0.81057912247E+01  0.32265645641E+01 -0.20293828797E+01  0.89572855898E+01  0.00000000000E+00 0.  1.
</event>
<event>
 8    1  0.2504019E-006  0.9118800E+02  0.7816164E-02  0.1184000E+00
        -11   -1    0    0    0    0  0.00000000000E+00  0.00000000000E+00  0.45593999997E+02  0.45594000000E+02  0.51100000000E-03 0.  1.
         11   -1    0    0    0    0 -0.00000000000E+00 -0.00000000000E+00 -0.45593999997E+02  0.45594000000E+02  0.51100000000E-03 0. -1.
         23    2    1    2    0    0  0.88817841970E-15  0.00000000000E+00 -0.35527136788E-14  0.91188000000E+02  0.91188000000E+02 0.  0.
    9900012    2    3    3    0    0  0.15450100656E+01  0.29367479109E+02  0.22157307126E+02  0.54367052913E+02  0.39999928726E+02 0.  0.
         12    1    3    3    0    0 -0.15450100656E+01 -0.29367479109E+02 -0.22157307126E+02  0.36820947087E+02  0.00000000000E+00 0. -1.
         11    1    4    4    0    0 -0.61068831087E+01 -0.41103106580E+00  0.58362784903E+01  0.84572521966E+01  0.51100000000E-03 0. -1.
        -11    1    4    4    0    0 -0.98523151439E-01  0.28060948139E+02  0.33715886695E+00  0.28063146539E+02  0.51100000000E-03 0.  1.
         12    1    4    4    0    0  0.77504163257E+01  0.17175620353E+01  0.15983869768E+02  0.17846654178E+02  0.00000000000E+00 0. -1.
</event>
<event>
 8    1  0.2504019E-006  0.9118800E+02  0.7816164E-02  0.1184000E+00
        -11   -1    0    0    0    0  0.00000000000E+00  0.00000000000E+00  0.45593999997E+02  0.45594000000E+02  0.51100000000E-03 0.  1.
         11   -1    0    0    0    0 -0.00000000000E+00 -0.00000000000E+00 -0.45593999997E+02  0.45594000000E+02  0.51100000000E-03 0. -1.
         23    2    1    2    0    0  0.35527136788E-14 -0.35527136788E-14  0.00000000000E+00  0.91188000000E+02  0.91188000000E+02 0.  0.
    9900012    2    3    3    0    0  0.16275355042E+02  0.24731972766E+02 -0.21891139002E+02  0.54367087118E+02  0.40000006704E+02 0.  0.
        -12    1    3    3    0    0 -0.16275355042E+02 -0.24731972766E+02  0.21891139002E+02  0.36820912882E+02  0.00000000000E+00 0.  1.
         11    1    4    4    0    0  0.35657836978E+01  0.36428505085E+01 -0.51794292029E+01  0.72671631560E+01  0.51100000000E-03 0. -1.
        -11    1    4    4    0    0 -0.65508061290E+00 -0.10014081592E+02 -0.22343088660E+01  0.10281201151E+02  0.51100000000E-03 0.  1.
        -12    1    4    4    0    0  0.13364651957E+02  0.31103203850E+02 -0.14477400933E+02  0.36818722811E+02  0.00000000000E+00 0.  1.
</event>
<event>
 8    1  0.2504019E-006  0.9118800E+02  0.7816164E-02  0.1184000E+00
        -11   -1    0    0    0    0  0.00000000000E+00  0.00000000000E+00  0.45593999997E+02  0.45594000000E+02  0.51100000000E-03 0.  1.
         11   -1    0    0    0    0 -0.00000000000E+00 -0.00000000000E+00 -0.45593999997E+02  0.45594000000E+02  0.51100000000E-03 0. -1.
         23    2    1    2    0    0  0.35527136788E-14  0.00000000000E+00  0.00000000000E+00  0.91188000000E+02  0.91188000000E+02 0.  0.
    9900012    2    3    3    0    0 -0.25447197671E+02  0.20895663622E+02 -0.16480023333E+02  0.54367084795E+02  0.40000001406E+02 0.  0.
        -12    1    3    3    0    0  0.25447197671E+02 -0.20895663622E+02  0.16480023333E+02  0.36820915205E+02  0.00000000000E+00 0.  1.
         11    1    4    4    0    0 -0.44511411891E+01  0.27349284231E+01 -0.22136659761E+02  0.22744761968E+02  0.51100000000E-03 0. -1.
        -11    1    4    4    0    0 -0.16079148801E+02  0.48252659803E+01  0.43953316609E+01  0.17353419220E+02  0.51100000000E-03 0.  1.
         12    1    4    4    0    0 -0.49169076806E+01  0.13335469219E+02  0.12613047668E+01  0.14268903607E+02  0.00000000000E+00 0. -1.
</event>
<event>
 8    1  0.2504019E-006  0.9118800E+02  0.7816164E-02  0.1184000E+00
        -11   -1    0    0    0    0  0.00000000000E+00  0.00000000000E+00  0.45593999997E+02  0.45594000000E+02  0.51100000000E-03 0.  1.
         11   -1    0    0    0    0 -0.00000000000E+00 -0.00000000000E+00 -0.45593999997E+02  0.45594000000E+02  0.51100000000E-03 0. -1.
         23    2    1    2    0    0  0.00000000000E+00  0.00000000000E+00 -0.35527136788E-14  0.91188000000E+02  0.91188000000E+02 0.  0.
    9900012    2    3    3    0    0 -0.32037065892E+02 -0.65510461609E+01 -0.16926018773E+02  0.54367083278E+02  0.39999997948E+02 0.  0.
        -12    1    3    3    0    0  0.32037065892E+02  0.65510461609E+01  0.16926018773E+02  0.36820916722E+02  0.00000000000E+00 0.  1.
         11    1    4    4    0    0 -0.21961237854E+01 -0.63551883330E+01  0.38796288349E+01  0.77629181746E+01  0.51100000000E-03 0. -1.
        -11    1    4    4    0    0 -0.19419164642E+02 -0.10373411360E+02 -0.23038979049E+02  0.31867007618E+02  0.51100000000E-03 0.  1.
        -12    1    4    4    0    0 -0.10421777464E+02  0.10177553532E+02  0.22333314409E+01  0.14737157485E+02  0.00000000000E+00 0.  1.
</event>
<event>
 8    1  0.2504019E-006  0.9118800E+02  0.7816164E-02  0.1184000E+00
        -11   -1    0    0    0    0  0.00000000000E+00  0.00000000000E+00  0.45593999997E+02  0.45594000000E+02  0.51100000000E-03 0. -1.
         11   -1    0    0    0    0 -0.00000000000E+00 -0.00000000000E+00 -0.45593999997E+02  0.45594000000E+02  0.51100000000E-03 0.  1.
         23    2    1    2    0    0 -0.35527136788E-14  0.00000000000E+00  0.00000000000E+00  0.91188000000E+02  0.91188000000E+02 0.  0.
    9900012    2    3    3    0    0 -0.17075357332E+02  0.31207729208E+02 -0.95020870620E+01  0.54367084085E+02  0.39999999788E+02 0.  0.
        -12    1    3    3    0    0  0.17075357332E+02 -0.31207729208E+02  0.95020870620E+01  0.36820915915E+02  0.00000000000E+00 0.  1.
         11    1    4    4    0    0 -0.20559373317E+02  0.21959805176E+02 -0.79808593495E+01  0.31122580079E+02  0.51100000000E-03 0. -1.
        -11    1    4    4    0    0 -0.74465024343E+01  0.42190194264E+01 -0.59497228832E+01  0.10423517932E+02  0.51100000000E-03 0.  1.
         12    1    4    4    0    0  0.10930518419E+02  0.50289046049E+01  0.44284951706E+01  0.12820986074E+02  0.00000000000E+00 0. -1.
</event>
<event>
 8    1  0.2504019E-006  0.9118800E+02  0.7816164E-02  0.1184000E+00
        -11   -1    0    0    0    0  0.00000000000E+00  0.00000000000E+00  0.45593999997E+02  0.45594000000E+02  0.51100000000E-03 0.  1.
         11   -1    0    0    0    0 -0.00000000000E+00 -0.00000000000E+00 -0.45593999997E+02  0.45594000000E+02  0.51100000000E-03 0. -1.
         23    2    1    2    0    0  0.00000000000E+00 -0.35527136788E-14  0.17763568394E-14  0.91188000000E+02  0.91188000000E+02 0.  0.
    9900012    2    3    3    0    0  0.16828417662E+02  0.29229116466E+02 -0.14772977499E+02  0.54367112524E+02  0.40000064620E+02 0.  0.
        -12    1    3    3    0    0 -0.16828417662E+02 -0.29229116466E+02  0.14772977499E+02  0.36820887476E+02  0.00000000000E+00 0.  1.
         11    1    4    4    0    0  0.10321127587E+02  0.16240399748E+02 -0.15035694059E+02  0.24420244772E+02  0.51100000000E-03 0. -1.
        -11    1    4    4    0    0  0.95683676231E+01  0.19828501820E+02  0.24199237201E+01  0.22149021976E+02  0.51100000000E-03 0.  1.
        -12    1    4    4    0    0 -0.30610775487E+01 -0.68397851027E+01 -0.21572071604E+01  0.77978457758E+01  0.00000000000E+00 0.  1.
</event>
<event>
 8    1  0.2504019E-006  0.9118800E+02  0.7816164E-02  0.1184000E+00
        -11   -1    0    0    0    0  0.00000000000E+00  0.00000000000E+00  0.45593999997E+02  0.45594000000E+02  0.51100000000E-03 0. -1.
         11   -1    0    0    0    0 -0.00000000000E+00 -0.00000000000E+00 -0.45593999997E+02  0.45594000000E+02  0.51100000000E-03 0.  1.
         23    2    1    2    0    0  0.88817841970E-15  0.00000000000E+00  0.00000000000E+00  0.91188000000E+02  0.91188000000E+02 0.  0.
    9900012    2    3    3    0    0  0.53872463421E+01 -0.11330322269E+02  0.34617630614E+02  0.54367095948E+02  0.40000026834E+02 0.  0.
        -12    1    3    3    0    0 -0.53872463421E+01  0.11330322269E+02 -0.34617630614E+02  0.36820904052E+02  0.00000000000E+00 0.  1.
         11    1    4    4    0    0  0.52886417788E+01  0.41495714544E+01  0.12934954904E+02  0.14577439204E+02  0.51100000000E-03 0. -1.
        -11    1    4    4    0    0 -0.11721607390E+02  0.23601296345E+01  0.74291292215E+01  0.14076869430E+02  0.51100000000E-03 0.  1.
        -12    1    4    4    0    0  0.11820211953E+02 -0.17840023358E+02  0.14253546488E+02  0.25712787315E+02  0.00000000000E+00 0.  1.
</event>
<event>
 8    1  0.2504019E-006  0.9118800E+02  0.7816164E-02  0.1184000E+00
        -11   -1    0    0    0    0  0.00000000000E+00  0.00000000000E+00  0.45593999997E+02  0.45594000000E+02  0.51100000000E-03 0.  1.
         11   -1    0    0    0    0 -0.00000000000E+00 -0.00000000000E+00 -0.45593999997E+02  0.45594000000E+02  0.51100000000E-03 0. -1.
         23    2    1    2    0    0  0.26645352591E-14  0.71054273576E-14  0.17763568394E-14  0.91188000000E+02  0.91188000000E+02 0.  0.
    9900012    2    3    3    0    0 -0.79503594777E+01 -0.33180433193E+02 -0.13843122218E+02  0.54367063083E+02  0.39999951910E+02 0.  0.
        -12    1    3    3    0    0  0.79503594777E+01  0.33180433193E+02  0.13843122218E+02  0.36820936917E+02  0.00000000000E+00 0.  1.
         11    1    4    4    0    0  0.11144876234E+01 -0.32551285276E+02 -0.22614561282E+02  0.39651565391E+02  0.51100000000E-03 0. -1.
        -11    1    4    4    0    0 -0.37006023823E-01 -0.16838398200E+01  0.42338663483E+01  0.45565678423E+01  0.51100000000E-03 0.  1.
        -12    1    4    4    0    0 -0.90278410774E+01  0.10546919021E+01  0.45375727158E+01  0.10158929849E+02  0.00000000000E+00 0.  1.
</event>
<event>
 8    1  0.2504019E-006  0.9118800E+02  0.7816164E-02  0.1184000E+00
        -11   -1    0    0    0    0  0.00000000000E+00  0.00000000000E+00  0.45593999997E+02  0.45594000000E+02  0.51100000000E-03 0. -1.
         11   -1    0    0    0    0 -0.00000000000E+00 -0.00000000000E+00 -0.45593999997E+02  0.45594000000E+02  0.51100000000E-03 0.  1.
         23    2    1    2    0    0  0.00000000000E+00  0.00000000000E+00  0.00000000000E+00  0.91188000000E+02  0.91188000000E+02 0.  0.
    9900012    2    3    3    0    0  0.16156392603E+02 -0.16768535730E+02 -0.28523097328E+02  0.54367083477E+02  0.39999998402E+02 0.  0.
         12    1    3    3    0    0 -0.16156392603E+02  0.16768535730E+02  0.28523097328E+02  0.36820916523E+02  0.00000000000E+00 0. -1.
         11    1    4    4    0    0  0.81841314246E+01 -0.18176233564E+02 -0.18295163693E+01  0.20017557397E+02  0.51100000000E-03 0. -1.
        -11    1    4    4    0    0  0.83156412795E+01 -0.82465297203E+01 -0.12024319364E+02  0.16785094541E+02  0.51100000000E-03 0.  1.
         12    1    4    4    0    0 -0.34338010145E+00  0.96542275543E+01 -0.14669261594E+02  0.17564431539E+02  0.00000000000E+00 0. -1.
</event>
<event>
 8    1  0.2504019E-006  0.9118800E+02  0.7816164E-02  0.1184000E+00
        -11   -1    0    0    0    0  0.00000000000E+00  0.00000000000E+00  0.45593999997E+02  0.45594000000E+02  0.51100000000E-03 0.  1.
         11   -1    0    0    0    0 -0.00000000000E+00 -0.00000000000E+00 -0.45593999997E+02  0.45594000000E+02  0.51100000000E-03 0. -1.
         23    2    1    2    0    0  0.00000000000E+00  0.00000000000E+00 -0.35527136788E-14  0.91188000000E+02  0.91188000000E+02 0.  0.
    9900012    2    3    3    0    0 -0.28533962218E+02 -0.14746554634E+02  0.18003641878E+02  0.54367095689E+02  0.40000026242E+02 0.  0.
         12    1    3    3    0    0  0.28533962218E+02  0.14746554634E+02 -0.18003641878E+02  0.36820904311E+02  0.00000000000E+00 0. -1.
         11    1    4    4    0    0 -0.63067553784E+00 -0.15042089260E+02 -0.15550947928E+01  0.15135406206E+02  0.51100000000E-03 0. -1.
        -11    1    4    4    0    0 -0.11500690793E+02 -0.94751888293E+01  0.79934368054E+01  0.16909764170E+02  0.51100000000E-03 0.  1.
         12    1    4    4    0    0 -0.16402595888E+02  0.97707234558E+01  0.11565299865E+02  0.22321925313E+02  0.00000000000E+00 0. -1.
</event>
<event>
 8    1  0.2504019E-006  0.9118800E+02  0.7816164E-02  0.1184000E+00
        -11   -1    0    0    0    0  0.00000000000E+00  0.00000000000E+00  0.45593999997E+02  0.45594000000E+02  0.51100000000E-03 0. -1.
         11   -1    0    0    0    0 -0.00000000000E+00 -0.00000000000E+00 -0.45593999997E+02  0.45594000000E+02  0.51100000000E-03 0.  1.
         23    2    1    2    0    0 -0.88817841970E-15  0.00000000000E+00  0.35527136788E-14  0.91188000000E+02  0.91188000000E+02 0.  0.
    9900012    2    3    3    0    0  0.68203977507E+00  0.35874804286E+02 -0.82652182172E+01  0.54367073979E+02  0.39999976751E+02 0.  0.
        -12    1    3    3    0    0 -0.68203977507E+00 -0.35874804286E+02  0.82652182172E+01  0.36820926021E+02  0.00000000000E+00 0.  1.
         11    1    4    4    0    0  0.10681489231E+01  0.17683984585E+02  0.60388654682E+01  0.18717161893E+02  0.51100000000E-03 0. -1.
        -11    1    4    4    0    0  0.98866858040E+01  0.53460060540E+01 -0.15514534792E+02  0.19157952056E+02  0.51100000000E-03 0.  1.
         12    1    4    4    0    0 -0.10272794952E+02  0.12844813647E+02  0.12104511061E+01  0.16491960030E+02  0.00000000000E+00 0. -1.
</event>
<event>
 8    1  0.2504019E-006  0.9118800E+02  0.7816164E-02  0.1184000E+00
        -11   -1    0    0    0    0  0.00000000000E+00  0.00000000000E+00  0.45593999997E+02  0.45594000000E+02  0.51100000000E-03 0.  1.
         11   -1    0    0    0    0 -0.00000000000E+00 -0.00000000000E+00 -0.45593999997E+02  0.45594000000E+02  0.51100000000E-03 0. -1.
         23    2    1    2    0    0  0.00000000000E+00  0.88817841970E-15  0.00000000000E+00  0.91188000000E+02  0.91188000000E+02 0.  0.
    9900012    2    3    3    0    0 -0.95448832607E+01  0.42121311942E+01  0.35311947705E+02  0.54367075291E+02  0.39999979741E+02 0.  0.
         12    1    3    3    0    0  0.95448832607E+01 -0.42121311942E+01 -0.35311947705E+02  0.36820924709E+02  0.00000000000E+00 0. -1.
         11    1    4    4    0    0 -0.13591852553E+02  0.87345726621E+01  0.53690680407E+01  0.17025219743E+02  0.51100000000E-03 0. -1.
        -11    1    4    4    0    0  0.28315759396E+01  0.83822199195E+01  0.83987081058E+01  0.12199087310E+02  0.51100000000E-03 0.  1.
        -12    1    4    4    0    0  0.12153933529E+01 -0.12904661387E+02  0.21544171559E+02  0.25142768238E+02  0.00000000000E+00 0.  1.
</event>
<event>
 8    1  0.2504019E-006  0.9118800E+02  0.7816164E-02  0.1184000E+00
        -11   -1    0    0    0    0  0.00000000000E+00  0.00000000000E+00  0.45593999997E+02  0.45594000000E+02  0.51100000000E-03 0. -1.
         11   -1    0    0    0    0 -0.00000000000E+00 -0.00000000000E+00 -0.45593999997E+02  0.45594000000E+02  0.51100000000E-03 0.  1.
         23    2    1    2    0    0  0.00000000000E+00  0.00000000000E+00 -0.35527136788E-14  0.91188000000E+02  0.91188000000E+02 0.  0.
    9900012    2    3    3    0    0  0.23535455682E+02  0.15820873314E+02 -0.23485364381E+02  0.54367081398E+02  0.39999993664E+02 0.  0.
         12    1    3    3    0    0 -0.23535455682E+02 -0.15820873314E+02  0.23485364381E+02  0.36820918602E+02  0.00000000000E+00 0. -1.
         11    1    4    4    0    0 -0.73444086677E+01  0.42309894944E+01 -0.28685431789E+01  0.89481926113E+01  0.51100000000E-03 0. -1.
        -11    1    4    4    0    0  0.21148778390E+02  0.91853640176E+01 -0.25406689096E+02  0.34309497091E+02  0.51100000000E-03 0.  1.
         12    1    4    4    0    0  0.97310859591E+01  0.24045198019E+01  0.47898678938E+01  0.11109391696E+02  0.00000000000E+00 0. -1.
</event>
<event>
 8    1  0.2504019E-006  0.9118800E+02  0.7816164E-02  0.1184000E+00
        -11   -1    0    0    0    0  0.00000000000E+00  0.00000000000E+00  0.45593999997E+02  0.45594000000E+02  0.51100000000E-03 0. -1.
         11   -1    0    0    0    0 -0.00000000000E+00 -0.00000000000E+00 -0.45593999997E+02  0.45594000000E+02  0.51100000000E-03 0.  1.
         23    2    1    2    0    0  0.00000000000E+00 -0.35527136788E-14  0.00000000000E+00  0.91188000000E+02  0.91188000000E+02 0.  0.
    9900012    2    3    3    0    0  0.18076354301E+02 -0.20032984615E+02  0.25054042935E+02  0.54367080337E+02  0.39999991245E+02 0.  0.
        -12    1    3    3    0    0 -0.18076354301E+02  0.20032984615E+02 -0.25054042935E+02  0.36820919663E+02  0.00000000000E+00 0.  1.
         11    1    4    4    0    0  0.15690158996E+02 -0.11299896219E+02  0.17575690702E+02  0.26129937769E+02  0.51100000000E-03 0. -1.
        -11    1    4    4    0    0  0.14884441154E+01 -0.17924560672E+02  0.52520121856E+01  0.18737368370E+02  0.51100000000E-03 0.  1.
        -12    1    4    4    0    0  0.89775118968E+00  0.91914722769E+01  0.22263400480E+01  0.94997741986E+01  0.00000000000E+00 0.  1.
</event>
<event>
 8    1  0.2504019E-006  0.9118800E+02  0.7816164E-02  0.1184000E+00
        -11   -1    0    0    0    0  0.00000000000E+00  0.00000000000E+00  0.45593999997E+02  0.45594000000E+02  0.51100000000E-03 0.  1.
         11   -1    0    0    0    0 -0.00000000000E+00 -0.00000000000E+00 -0.45593999997E+02  0.45594000000E+02  0.51100000000E-03 0. -1.
         23    2    1    2    0    0  0.00000000000E+00  0.00000000000E+00  0.00000000000E+00  0.91188000000E+02  0.91188000000E+02 0.  0.
    9900012    2    3    3    0    0 -0.18893960263E+02  0.28307412231E+02  0.14053087127E+02  0.54367074164E+02  0.39999977172E+02 0.  0.
         12    1    3    3    0    0  0.18893960263E+02 -0.28307412231E+02 -0.14053087127E+02  0.36820925836E+02  0.00000000000E+00 0. -1.
         11    1    4    4    0    0  0.31477226938E+01  0.11151836614E+02 -0.17127577479E+00  0.11588828831E+02  0.51100000000E-03 0. -1.
        -11    1    4    4    0    0 -0.17110485288E+02  0.25258238158E+02  0.83842218445E+01  0.31639255330E+02  0.51100000000E-03 0.  1.
         12    1    4    4    0    0 -0.49311976681E+01 -0.81026625416E+01  0.58401410573E+01  0.11138990002E+02  0.00000000000E+00 0. -1.
</event>
<event>
 8    1  0.2504019E-006  0.9118800E+02  0.7816164E-02  0.1184000E+00
        -11   -1    0    0    0    0  0.00000000000E+00  0.00000000000E+00  0.45593999997E+02  0.45594000000E+02  0.51100000000E-03 0.  1.
         11   -1    0    0    0    0 -0.00000000000E+00 -0.00000000000E+00 -0.45593999997E+02  0.45594000000E+02  0.51100000000E-03 0. -1.
         23    2    1    2    0    0  0.00000000000E+00  0.00000000000E+00  0.00000000000E+00  0.91188000000E+02  0.91188000000E+02 0.  0.
    9900012    2    3    3    0    0 -0.28926263897E+02 -0.13207623152E+02 -0.18563649285E+02  0.54367093885E+02  0.40000022130E+02 0.  0.
        -12    1    3    3    0    0  0.28926263897E+02  0.13207623152E+02  0.18563649285E+02  0.36820906115E+02  0.00000000000E+00 0.  1.
         11    1    4    4    0    0 -0.66838202004E+01  0.79448374547E+00 -0.12391525288E+02  0.14101579915E+02  0.51100000000E-03 0. -1.
        -11    1    4    4    0    0 -0.23559374690E+02 -0.15470962155E+02  0.52538335123E+01  0.28670500041E+02  0.51100000000E-03 0.  1.
        -12    1    4    4    0    0  0.13169309937E+01  0.14688552571E+01 -0.11425957509E+02  0.11595013929E+02  0.00000000000E+00 0.  1.
</event>
<event>
 8    1  0.2504019E-006  0.9118800E+02  0.7816164E-02  0.1184000E+00
        -11   -1    0    0    0    0  0.00000000000E+00  0.00000000000E+00  0.45593999997E+02  0.45594000000E+02  0.51100000000E-03 0.  1.
         11   -1    0    0    0    0 -0.00000000000E+00 -0.00000000000E+00 -0.45593999997E+02  0.45594000000E+02  0.51100000000E-03 0. -1.
         23    2    1    2    0    0  0.00000000000E+00  0.00000000000E+00  0.00000000000E+00  0.91188000000E+02  0.91188000000E+02 0.  0.
    9900012    2    3    3    0    0 -0.16570415404E+02  0.15216860902E+02 -0.29148702445E+02  0.54367104077E+02  0.40000045363E+02 0.  0.
        -12    1    3    3    0    0  0.16570415404E+02 -0.15216860902E+02  0.29148702445E+02  0.36820895923E+02  0.00000000000E+00 0.  1.
         11    1    4    4    0    0  0.64997883559E+01  0.72969148789E+01 -0.67657969638E+01  0.11885630999E+02  0.51100000000E-03 0. -1.
        -11    1    4    4    0    0 -0.67161315026E+01 -0.70711590485E+01 -0.17084835563E+02  0.19672298268E+02  0.51100000000E-03 0.  1.
        -12    1    4    4    0    0 -0.16354072257E+02  0.14991105072E+02 -0.52980699178E+01  0.22809174810E+02  0.00000000000E+00 0.  1.
</event>
<event>
 8    1  0.2504019E-006  0.9118800E+02  0.7816164E-02  0.1184000E+00
        -11   -1    0    0    0    0  0.00000000000E+00  0.00000000000E+00  0.45593999997E+02  0.45594000000E+02  0.51100000000E-03 0.  1.
         11   -1    0    0    0    0 -0.00000000000E+00 -0.00000000000E+00 -0.45593999997E+02  0.45594000000E+02  0.51100000000E-03 0. -1.
         23    2    1    2    0    0  0.35527136788E-14  0.00000000000E+00  0.00000000000E+00  0.91188000000E+02  0.91188000000E+02 0.  0.
    9900012    2    3    3    0    0  0.29974995877E+02 -0.69564736744E+01 -0.20220960957E+02  0.54367079780E+02  0.39999989975E+02 0.  0.
        -12    1    3    3    0    0 -0.29974995877E+02  0.69564736744E+01  0.20220960957E+02  0.36820920220E+02  0.00000000000E+00 0.  1.
         11    1    4    4    0    0 -0.44233158338E+01  0.90189496577E+01 -0.72439779672E+01  0.12384764549E+02  0.51100000000E-03 0. -1.
        -11    1    4    4    0    0  0.17084896365E+02 -0.13257834705E+02 -0.11236971169E+02  0.24370748576E+02  0.51100000000E-03 0.  1.
        -12    1    4    4    0    0  0.17313415346E+02 -0.27175886275E+01 -0.17400118212E+01  0.17611566654E+02  0.00000000000E+00 0.  1.
</event>
<event>
 8    1  0.2504019E-006  0.9118800E+02  0.7816164E-02  0.1184000E+00
        -11   -1    0    0    0    0  0.00000000000E+00  0.00000000000E+00  0.45593999997E+02  0.45594000000E+02  0.51100000000E-03 0. -1.
         11   -1    0    0    0    0 -0.00000000000E+00 -0.00000000000E+00 -0.45593999997E+02  0.45594000000E+02  0.51100000000E-03 0.  1.
         23    2    1    2    0    0 -0.35527136788E-14  0.35527136788E-14 -0.35527136788E-14  0.91188000000E+02  0.91188000000E+02 0.  0.
    9900012    2    3    3    0    0 -0.28656215594E+02  0.13602831565E+02 -0.18696632558E+02  0.54367084914E+02  0.40000001679E+02 0.  0.
        -12    1    3    3    0    0  0.28656215594E+02 -0.13602831565E+02  0.18696632558E+02  0.36820915086E+02  0.00000000000E+00 0.  1.
         11    1    4    4    0    0 -0.67606447947E+01 -0.30251754788E+01  0.50341242214E+01  0.89554682544E+01  0.51100000000E-03 0. -1.
        -11    1    4    4    0    0 -0.99216398115E+01 -0.60799291447E+01 -0.13379512969E+02  0.17731774939E+02  0.51100000000E-03 0.  1.
        -12    1    4    4    0    0 -0.11973930988E+02  0.22707936189E+02 -0.10351243811E+02  0.27679841721E+02  0.00000000000E+00 0.  1.
</event>
<event>
 8    1  0.2504019E-006  0.9118800E+02  0.7816164E-02  0.1184000E+00
        -11   -1    0    0    0    0  0.00000000000E+00  0.00000000000E+00  0.45593999997E+02  0.45594000000E+02  0.51100000000E-03 0.  1.
         11   -1    0    0    0    0 -0.00000000000E+00 -0.00000000000E+00 -0.45593999997E+02  0.45594000000E+02  0.51100000000E-03 0. -1.
         23    2    1    2    0    0  0.35527136788E-14  0.35527136788E-14  0.00000000000E+00  0.91188000000E+02  0.91188000000E+02 0.  0.
    9900012    2    3    3    0    0 -0.30992175027E+02 -0.11613554611E+02  0.16136669377E+02  0.54367059461E+02  0.39999943653E+02 0.  0.
         12    1    3    3    0    0  0.30992175027E+02  0.11613554611E+02 -0.16136669377E+02  0.36820940539E+02  0.00000000000E+00 0. -1.
         11    1    4    4    0    0 -0.29265975666E+02 -0.64516643029E+01  0.16484530080E+02  0.34203231370E+02  0.51100000000E-03 0. -1.
        -11    1    4    4    0    0 -0.16513853293E+01  0.67698168945E+01  0.32672497871E+01  0.76962598530E+01  0.51100000000E-03 0.  1.
         12    1    4    4    0    0 -0.74814031803E-01 -0.11931707202E+02 -0.36151104899E+01  0.12467568238E+02  0.00000000000E+00 0. -1.
</event>
<event>
 8    1  0.2504019E-006  0.9118800E+02  0.7816164E-02  0.1184000E+00
        -11   -1    0    0    0    0  0.00000000000E+00  0.00000000000E+00  0.45593999997E+02  0.45594000000E+02  0.51100000000E-03 0.  1.
         11   -1    0    0    0    0 -0.00000000000E+00 -0.00000000000E+00 -0.45593999997E+02  0.45594000000E+02  0.51100000000E-03 0. -1.
         23    2    1    2    0    0  0.00000000000E+00 -0.88817841970E-15  0.00000000000E+00  0.91188000000E+02  0.91188000000E+02 0.  0.
    9900012    2    3    3    0    0  0.19897031224E+02 -0.39700429922E+01  0.30726635880E+02  0.54367092279E+02  0.40000018468E+02 0.  0.
         12    1    3    3    0    0 -0.19897031224E+02  0.39700429922E+01 -0.30726635880E+02  0.36820907721E+02  0.00000000000E+00 0. -1.
         11    1    4    4    0    0  0.24476882014E+02  0.98683504034E+01  0.10443405605E+02  0.28382508940E+02  0.51100000000E-03 0. -1.
        -11    1    4    4    0    0 -0.44733021804E+00 -0.71243490158E+01  0.14644756136E+02  0.16291879443E+02  0.51100000000E-03 0.  1.
         12    1    4    4    0    0 -0.41325205716E+01 -0.67140443799E+01  0.56384741387E+01  0.96927038964E+01  0.00000000000E+00 0. -1.
</event>
<event>
 8    1  0.2504019E-006  0.9118800E+02  0.7816164E-02  0.1184000E+00
        -11   -1    0    0    0    0  0.00000000000E+00  0.00000000000E+00  0.45593999997E+02  0.45594000000E+02  0.51100000000E-03 0. -1.
         11   -1    0    0    0    0 -0.00000000000E+00 -0.00000000000E+00 -0.45593999997E+02  0.45594000000E+02  0.51100000000E-03 0.  1.
         23    2    1    2    0    0  0.35527136788E-14  0.00000000000E+00  0.88817841970E-15  0.91188000000E+02  0.91188000000E+02 0.  0.
    9900012    2    3    3    0    0  0.22516461350E+02 -0.28037643750E+02 -0.79170498965E+01  0.54367079618E+02  0.39999989604E+02 0.  0.
        -12    1    3    3    0    0 -0.22516461350E+02  0.28037643750E+02  0.79170498965E+01  0.36820920382E+02  0.00000000000E+00 0.  1.
         11    1    4    4    0    0  0.21084355006E+02 -0.82675787913E+01 -0.16306985559E+02  0.27907358589E+02  0.51100000000E-03 0. -1.
        -11    1    4    4    0    0  0.81093703611E+01 -0.10400691561E+02  0.21227013355E+01  0.13358223453E+02  0.51100000000E-03 0.  1.
        -12    1    4    4    0    0 -0.66772640180E+01 -0.93693733974E+01  0.62672343270E+01  0.13101497576E+02  0.00000000000E+00 0.  1.
</event>
<event>
 8    1  0.2504019E-006  0.9118800E+02  0.7816164E-02  0.1184000E+00
        -11   -1    0    0    0    0  0.00000000000E+00  0.00000000000E+00  0.45593999997E+02  0.45594000000E+02  0.51100000000E-03 0. -1.
         11   -1    0    0    0    0 -0.00000000000E+00 -0.00000000000E+00 -0.45593999997E+02  0.45594000000E+02  0.51100000000E-03 0.  1.
         23    2    1    2    0    0  0.17763568394E-14  0.00000000000E+00  0.00000000000E+00  0.91188000000E+02  0.91188000000E+02 0.  0.
    9900012    2    3    3    0    0  0.13143341813E+02  0.76820632807E+01  0.33526477785E+02  0.54366997258E+02  0.39999801849E+02 0.  0.
        -12    1    3    3    0    0 -0.13143341813E+02 -0.76820632807E+01 -0.33526477785E+02  0.36821002742E+02  0.00000000000E+00 0.  1.
         11    1    4    4    0    0  0.21300878583E+02 -0.55301812173E+01  0.26440457272E+02  0.34400699320E+02  0.51100000000E-03 0. -1.
        -11    1    4    4    0    0  0.77246067394E+00  0.81387026907E+01  0.16291279915E+01  0.83360203487E+01  0.51100000000E-03 0.  1.
         12    1    4    4    0    0 -0.89299974438E+01  0.50735418074E+01  0.54568925220E+01  0.11630277590E+02  0.00000000000E+00 0. -1.
</event>
<event>
 8    1  0.2504019E-006  0.9118800E+02  0.7816164E-02  0.1184000E+00
        -11   -1    0    0    0    0  0.00000000000E+00  0.00000000000E+00  0.45593999997E+02  0.45594000000E+02  0.51100000000E-03 0.  1.
         11   -1    0    0    0    0 -0.00000000000E+00 -0.00000000000E+00 -0.45593999997E+02  0.45594000000E+02  0.51100000000E-03 0. -1.
         23    2    1    2    0    0 -0.35527136788E-14  0.35527136788E-14  0.44408920985E-15  0.91188000000E+02  0.91188000000E+02 0.  0.
    9900012    2    3    3    0    0 -0.26909976839E+02 -0.25131721226E+02  0.17066109229E+00  0.54367090309E+02  0.40000013977E+02 0.  0.
         12    1    3    3    0    0  0.26909976839E+02  0.25131721226E+02 -0.17066109229E+00  0.36820909691E+02  0.00000000000E+00 0. -1.
         11    1    4    4    0    0  0.16102915141E+01 -0.76860583086E+01  0.11510108429E+02  0.13933812379E+02  0.51100000000E-03 0. -1.
        -11    1    4    4    0    0 -0.23103338533E+02 -0.62338514966E+01 -0.51631696269E+00  0.23935156973E+02  0.51100000000E-03 0.  1.
         12    1    4    4    0    0 -0.54169298203E+01 -0.11211811421E+02 -0.10823130374E+02  0.16498120957E+02  0.00000000000E+00 0. -1.
</event>
<event>
 8    1  0.2504019E-006  0.9118800E+02  0.7816164E-02  0.1184000E+00
        -11   -1    0    0    0    0  0.00000000000E+00  0.00000000000E+00  0.45593999997E+02  0.45594000000E+02  0.51100000000E-03 0. -1.
         11   -1    0    0    0    0 -0.00000000000E+00 -0.00000000000E+00 -0.45593999997E+02  0.45594000000E+02  0.51100000000E-03 0.  1.
         23    2    1    2    0    0  0.00000000000E+00  0.35527136788E-14  0.00000000000E+00  0.91188000000E+02  0.91188000000E+02 0.  0.
    9900012    2    3    3    0    0  0.21071907292E+02  0.26918952421E+02 -0.13679282432E+02  0.54367108590E+02  0.40000055653E+02 0.  0.
         12    1    3    3    0    0 -0.21071907292E+02 -0.26918952421E+02  0.13679282432E+02  0.36820891410E+02  0.00000000000E+00 0. -1.
         11    1    4    4    0    0  0.11389553523E+02  0.24450198716E+02 -0.65343184057E+01  0.27753044229E+02  0.51100000000E-03 0. -1.
        -11    1    4    4    0    0 -0.59162820477E+01 -0.35743477970E+00 -0.88698398033E+01  0.10667905665E+02  0.51100000000E-03 0.  1.
        -12    1    4    4    0    0  0.15598635817E+02  0.28261884848E+01  0.17248757774E+01  0.15946158696E+02  0.00000000000E+00 0.  1.
</event>
<event>
 8    1  0.2504019E-006  0.9118800E+02  0.7816164E-02  0.1184000E+00
        -11   -1    0    0    0    0  0.00000000000E+00  0.00000000000E+00  0.45593999997E+02  0.45594000000E+02  0.51100000000E-03 0. -1.
         11   -1    0    0    0    0 -0.00000000000E+00 -0.00000000000E+00 -0.45593999997E+02  0.45594000000E+02  0.51100000000E-03 0.  1.
         23    2    1    2    0    0 -0.44408920985E-15 -0.35527136788E-14  0.00000000000E+00  0.91188000000E+02  0.91188000000E+02 0.  0.
    9900012    2    3    3    0    0  0.13327894938E+01  0.31683740065E+02  0.18712062303E+02  0.54367122933E+02  0.40000088351E+02 0.  0.
         12    1    3    3    0    0 -0.13327894938E+01 -0.31683740065E+02 -0.18712062303E+02  0.36820877067E+02  0.00000000000E+00 0. -1.
         11    1    4    4    0    0  0.15294461213E+02  0.74940350208E+01  0.17684757297E+02  0.24552632152E+02  0.51100000000E-03 0. -1.
        -11    1    4    4    0    0 -0.93551185053E+00  0.11171034016E+02  0.19338354572E+01  0.11375715505E+02  0.51100000000E-03 0.  1.
         12    1    4    4    0    0 -0.13026159868E+02  0.13018671028E+02 -0.90653045085E+00  0.18438775277E+02  0.00000000000E+00 0. -1.
</event>
<event>
 8    1  0.2504019E-006  0.9118800E+02  0.7816164E-02  0.1184000E+00
        -11   -1    0    0    0    0  0.00000000000E+00  0.00000000000E+00  0.45593999997E+02  0.45594000000E+02  0.51100000000E-03 0.  1.
         11   -1    0    0    0    0 -0.00000000000E+00 -0.00000000000E+00 -0.45593999997E+02  0.45594000000E+02  0.51100000000E-03 0. -1.
         23    2    1    2    0    0  0.00000000000E+00 -0.35527136788E-14  0.00000000000E+00  0.91188000000E+02  0.91188000000E+02 0.  0.
    9900012    2    3    3    0    0 -0.20272340152E+02  0.27434568183E+02 -0.13862010826E+02  0.54367100353E+02  0.40000036876E+02 0.  0.
        -12    1    3    3    0    0  0.20272340152E+02 -0.27434568183E+02  0.13862010826E+02  0.36820899647E+02  0.00000000000E+00 0.  1.
         11    1    4    4    0    0 -0.13368534901E+02  0.21172001215E+02 -0.83487498267E+01  0.26394563546E+02  0.51100000000E-03 0. -1.
        -11    1    4    4    0    0 -0.60694871920E+01  0.14210994581E+02  0.35842586443E+01  0.15863100329E+02  0.51100000000E-03 0.  1.
         12    1    4    4    0    0 -0.83431805976E+00 -0.79484276136E+01 -0.90975196440E+01  0.12109436478E+02  0.00000000000E+00 0. -1.
</event>
<event>
 8    1  0.2504019E-006  0.9118800E+02  0.7816164E-02  0.1184000E+00
        -11   -1    0    0    0    0  0.00000000000E+00  0.00000000000E+00  0.45593999997E+02  0.45594000000E+02  0.51100000000E-03 0. -1.
         11   -1    0    0    0    0 -0.00000000000E+00 -0.00000000000E+00 -0.45593999997E+02  0.45594000000E+02  0.51100000000E-03 0.  1.
         23    2    1    2    0    0  0.00000000000E+00  0.00000000000E+00  0.17763568394E-14  0.91188000000E+02  0.91188000000E+02 0.  0.
    9900012    2    3    3    0    0  0.24094376845E+02 -0.24928158579E+02  0.12402723987E+02  0.54367086813E+02  0.40000006007E+02 0.  0.
         12    1    3    3    0    0 -0.24094376845E+02  0.24928158579E+02 -0.12402723987E+02  0.36820913187E+02  0.00000000000E+00 0. -1.
         11    1    4    4    0    0  0.10841498527E+02 -0.71068655166E+01 -0.31119518931E+00  0.12966976151E+02  0.51100000000E-03 0. -1.
        -11    1    4    4    0    0  0.22865486485E+02 -0.11874143868E+02  0.20270960735E+01  0.25844436220E+02  0.51100000000E-03 0.  1.
         12    1    4    4    0    0 -0.96126081671E+01 -0.59471491938E+01  0.10686823103E+02  0.15555674442E+02  0.00000000000E+00 0. -1.
</event>
<event>
 8    1  0.2504019E-006  0.9118800E+02  0.7816164E-02  0.1184000E+00
        -11   -1    0    0    0    0  0.00000000000E+00  0.00000000000E+00  0.45593999997E+02  0.45594000000E+02  0.51100000000E-03 0. -1.
         11   -1    0    0    0    0 -0.00000000000E+00 -0.00000000000E+00 -0.45593999997E+02  0.45594000000E+02  0.51100000000E-03 0.  1.
         23    2    1    2    0    0  0.35527136788E-14 -0.35527136788E-14 -0.17763568394E-14  0.91188000000E+02  0.91188000000E+02 0.  0.
    9900012    2    3    3    0    0  0.27079374496E+02  0.22003581401E+02  0.11761347731E+02  0.54367089935E+02  0.40000013124E+02 0.  0.
        -12    1    3    3    0    0 -0.27079374496E+02 -0.22003581401E+02 -0.11761347731E+02  0.36820910065E+02  0.00000000000E+00 0.  1.
         11    1    4    4    0    0  0.11709757831E+02  0.23906305452E+01  0.94623170647E+01  0.15243654003E+02  0.51100000000E-03 0. -1.
        -11    1    4    4    0    0  0.82931276818E+01 -0.74076851115E+01  0.39801521462E+00  0.11126912502E+02  0.51100000000E-03 0.  1.
        -12    1    4    4    0    0  0.70764889834E+01  0.27020635967E+02  0.19010154518E+01  0.27996523430E+02  0.00000000000E+00 0.  1.
</event>
<event>
 8    1  0.2504019E-006  0.9118800E+02  0.7816164E-02  0.1184000E+00
        -11   -1    0    0    0    0  0.00000000000E+00  0.00000000000E+00  0.45593999997E+02  0.45594000000E+02  0.51100000000E-03 0. -1.
         11   -1    0    0    0    0 -0.00000000000E+00 -0.00000000000E+00 -0.45593999997E+02  0.45594000000E+02  0.51100000000E-03 0.  1.
         23    2    1    2    0    0  0.35527136788E-14  0.35527136788E-14  0.00000000000E+00  0.91188000000E+02  0.91188000000E+02 0.  0.
    9900012    2    3    3    0    0  0.28132007977E+02  0.19838581766E+02 -0.13069082537E+02  0.54367080435E+02  0.39999991467E+02 0.  0.
         12    1    3    3    0    0 -0.28132007977E+02 -0.19838581766E+02  0.13069082537E+02  0.36820919565E+02  0.00000000000E+00 0. -1.
         11    1    4    4    0    0  0.30102508303E+02  0.10271929743E+02 -0.20063432747E+02  0.37606048458E+02  0.51100000000E-03 0. -1.
        -11    1    4    4    0    0  0.48686721210E+01  0.49977089376E+01  0.26890402428E+01  0.74774327503E+01  0.51100000000E-03 0.  1.
         12    1    4    4    0    0 -0.68391724470E+01  0.45689430859E+01  0.43053099675E+01  0.92835992266E+01  0.00000000000E+00 0. -1.
</event>
<event>
 8    1  0.2504019E-006  0.9118800E+02  0.7816164E-02  0.1184000E+00
        -11   -1    0    0    0    0  0.00000000000E+00  0.00000000000E+00  0.45593999997E+02  0.45594000000E+02  0.51100000000E-03 0.  1.
         11   -1    0    0    0    0 -0.00000000000E+00 -0.00000000000E+00 -0.45593999997E+02  0.45594000000E+02  0.51100000000E-03 0. -1.
         23    2    1    2    0    0  0.35527136788E-14  0.00000000000E+00  0.00000000000E+00  0.91188000000E+02  0.91188000000E+02 0.  0.
    9900012    2    3    3    0    0  0.23235427560E+02  0.10812466500E+02  0.26438324383E+02  0.54367088524E+02  0.40000009909E+02 0.  0.
         12    1    3    3    0    0 -0.23235427560E+02 -0.10812466500E+02 -0.26438324383E+02  0.36820911476E+02  0.00000000000E+00 0. -1.
         11    1    4    4    0    0  0.19930594864E+02  0.14687589597E+02  0.79817373761E+01  0.26012728261E+02  0.51100000000E-03 0. -1.
        -11    1    4    4    0    0  0.11768535927E+02 -0.34434202316E+01  0.70502195073E+01  0.14144298360E+02  0.51100000000E-03 0.  1.
        -12    1    4    4    0    0 -0.84637032304E+01 -0.43170286545E+00  0.11406367500E+02  0.14210061903E+02  0.00000000000E+00 0.  1.
</event>
<event>
 8    1  0.2504019E-006  0.9118800E+02  0.7816164E-02  0.1184000E+00
        -11   -1    0    0    0    0  0.00000000000E+00  0.00000000000E+00  0.45593999997E+02  0.45594000000E+02  0.51100000000E-03 0.  1.
         11   -1    0    0    0    0 -0.00000000000E+00 -0.00000000000E+00 -0.45593999997E+02  0.45594000000E+02  0.51100000000E-03 0. -1.
         23    2    1    2    0    0 -0.17763568394E-14  0.35527136788E-14 -0.17763568394E-14  0.91188000000E+02  0.91188000000E+02 0.  0.
    9900012    2    3    3    0    0  0.13364771303E+02 -0.30618904578E+02 -0.15480505290E+02  0.54367075602E+02  0.39999980449E+02 0.  0.
        -12    1    3    3    0    0 -0.13364771303E+02  0.30618904578E+02  0.15480505290E+02  0.36820924398E+02  0.00000000000E+00 0.  1.
         11    1    4    4    0    0 -0.26195701024E+01 -0.10634592098E+02 -0.19047461803E+01  0.11116868034E+02  0.51100000000E-03 0. -1.
        -11    1    4    4    0    0  0.18594168177E+02  0.14595225953E+01 -0.10575031988E+02  0.21440722893E+02  0.51100000000E-03 0.  1.
        -12    1    4    4    0    0 -0.26098267712E+01 -0.21443835075E+02 -0.30007271222E+01  0.21809484674E+02  0.00000000000E+00 0.  1.
</event>
<event>
 8    1  0.2504019E-006  0.9118800E+02  0.7816164E-02  0.1184000E+00
        -11   -1    0    0    0    0  0.00000000000E+00  0.00000000000E+00  0.45593999997E+02  0.45594000000E+02  0.51100000000E-03 0. -1.
         11   -1    0    0    0    0 -0.00000000000E+00 -0.00000000000E+00 -0.45593999997E+02  0.45594000000E+02  0.51100000000E-03 0.  1.
         23    2    1    2    0    0  0.17763568394E-14  0.71054273576E-14 -0.88817841970E-15  0.91188000000E+02  0.91188000000E+02 0.  0.
    9900012    2    3    3    0    0 -0.10708102429E+02 -0.34888411968E+02  0.48902961232E+01  0.54367085516E+02  0.40000003051E+02 0.  0.
        -12    1    3    3    0    0  0.10708102429E+02  0.34888411968E+02 -0.48902961232E+01  0.36820914484E+02  0.00000000000E+00 0.  1.
         11    1    4    4    0    0 -0.96164880761E+01 -0.23401169008E+02  0.11288489554E+02  0.27704179297E+02  0.51100000000E-03 0. -1.
        -11    1    4    4    0    0  0.51916949096E+01 -0.13210720170E+02 -0.11595531048E+02  0.18328479587E+02  0.51100000000E-03 0.  1.
        -12    1    4    4    0    0 -0.62833092624E+01  0.17234772096E+01  0.51973376167E+01  0.83344266318E+01  0.00000000000E+00 0.  1.
</event>
<event>
 8    1  0.2504019E-006  0.9118800E+02  0.7816164E-02  0.1184000E+00
        -11   -1    0    0    0    0  0.00000000000E+00  0.00000000000E+00  0.45593999997E+02  0.45594000000E+02  0.51100000000E-03 0. -1.
         11   -1    0    0    0    0 -0.00000000000E+00 -0.00000000000E+00 -0.45593999997E+02  0.45594000000E+02  0.51100000000E-03 0.  1.
         23    2    1    2    0    0  0.00000000000E+00 -0.88817841970E-15  0.00000000000E+00  0.91188000000E+02  0.91188000000E+02 0.  0.
    9900012    2    3    3    0    0  0.20445252268E+02 -0.41919127117E+01 -0.30334772725E+02  0.54367096850E+02  0.40000028889E+02 0.  0.
         12    1    3    3    0    0 -0.20445252268E+02  0.41919127117E+01  0.30334772725E+02  0.36820903150E+02  0.00000000000E+00 0. -1.
         11    1    4    4    0    0  0.81369850277E+01 -0.16353914043E+02 -0.55364789749E+01  0.19087001587E+02  0.51100000000E-03 0. -1.
        -11    1    4    4    0    0 -0.84434064599E+00  0.11394495138E+02 -0.15025233557E+02  0.18876044985E+02  0.51100000000E-03 0.  1.
        -12    1    4    4    0    0  0.13152607887E+02  0.76750619330E+00 -0.97730601931E+01  0.16404050278E+02  0.00000000000E+00 0.  1.
</event>
<event>
 8    1  0.2504019E-006  0.9118800E+02  0.7816164E-02  0.1184000E+00
        -11   -1    0    0    0    0  0.00000000000E+00  0.00000000000E+00  0.45593999997E+02  0.45594000000E+02  0.51100000000E-03 0. -1.
         11   -1    0    0    0    0 -0.00000000000E+00 -0.00000000000E+00 -0.45593999997E+02  0.45594000000E+02  0.51100000000E-03 0.  1.
         23    2    1    2    0    0  0.35527136788E-14  0.00000000000E+00  0.88817841970E-15  0.91188000000E+02  0.91188000000E+02 0.  0.
    9900012    2    3    3    0    0 -0.23211670918E+02 -0.28036301419E+02  0.55646266834E+01  0.54367069347E+02  0.39999966190E+02 0.  0.
        -12    1    3    3    0    0  0.23211670918E+02  0.28036301419E+02 -0.55646266834E+01  0.36820930653E+02  0.00000000000E+00 0.  1.
         11    1    4    4    0    0 -0.24396711217E+02 -0.27724528640E+02  0.91428635948E+01  0.38045248869E+02  0.51100000000E-03 0. -1.
        -11    1    4    4    0    0  0.56338990523E+01  0.48970973235E+01  0.17217453452E+01  0.76607302539E+01  0.51100000000E-03 0.  1.
         12    1    4    4    0    0 -0.44488587532E+01 -0.52088701025E+01 -0.52999822565E+01  0.86610902241E+01  0.00000000000E+00 0. -1.
</event>
<event>
 8    1  0.2504019E-006  0.9118800E+02  0.7816164E-02  0.1184000E+00
        -11   -1    0    0    0    0  0.00000000000E+00  0.00000000000E+00  0.45593999997E+02  0.45594000000E+02  0.51100000000E-03 0.  1.
         11   -1    0    0    0    0 -0.00000000000E+00 -0.00000000000E+00 -0.45593999997E+02  0.45594000000E+02  0.51100000000E-03 0. -1.
         23    2    1    2    0    0  0.88817841970E-15  0.00000000000E+00 -0.71054273576E-14  0.91188000000E+02  0.91188000000E+02 0.  0.
    9900012    2    3    3    0    0 -0.66963162062E+01  0.21033499848E+02  0.29470876443E+02  0.54367064041E+02  0.39999954094E+02 0.  0.
         12    1    3    3    0    0  0.66963162062E+01 -0.21033499848E+02 -0.29470876443E+02  0.36820935959E+02  0.00000000000E+00 0. -1.
         11    1    4    4    0    0  0.26861863281E+01  0.32302823554E+01 -0.78288561178E+01  0.88848922030E+01  0.51100000000E-03 0. -1.
        -11    1    4    4    0    0 -0.63810572901E+01  0.56897316936E+01  0.31291811704E+01  0.91039943949E+01  0.51100000000E-03 0.  1.
        -12    1    4    4    0    0 -0.30014452441E+01  0.12113485799E+02  0.34170551391E+02  0.36378177443E+02  0.00000000000E+00 0.  1.
</event>
<event>
 8    1  0.2504019E-006  0.9118800E+02  0.7816164E-02  0.1184000E+00
        -11   -1    0    0    0    0  0.00000000000E+00  0.00000000000E+00  0.45593999997E+02  0.45594000000E+02  0.51100000000E-03 0. -1.
         11   -1    0    0    0    0 -0.00000000000E+00 -0.00000000000E+00 -0.45593999997E+02  0.45594000000E+02  0.51100000000E-03 0.  1.
         23    2    1    2    0    0 -0.35527136788E-14 -0.35527136788E-14 -0.17763568394E-14  0.91188000000E+02  0.91188000000E+02 0.  0.
    9900012    2    3    3    0    0 -0.29832119060E+02 -0.18569207849E+02 -0.11000429737E+02  0.54367078472E+02  0.39999986993E+02 0.  0.
         12    1    3    3    0    0  0.29832119060E+02  0.18569207849E+02  0.11000429737E+02  0.36820921528E+02  0.00000000000E+00 0. -1.
         11    1    4    4    0    0 -0.15799953276E+02  0.73313893712E+01  0.60844205203E+01  0.18450148156E+02  0.51100000000E-03 0. -1.
        -11    1    4    4    0    0 -0.69184086346E+01 -0.17935308331E+02 -0.51494829371E+01  0.19901176793E+02  0.51100000000E-03 0.  1.
        -12    1    4    4    0    0 -0.71137571494E+01 -0.79652888895E+01 -0.11935367320E+02  0.16015753524E+02  0.00000000000E+00 0.  1.
</event>
<event>
 8    1  0.2504019E-006  0.9118800E+02  0.7816164E-02  0.1184000E+00
        -11   -1    0    0    0    0  0.00000000000E+00  0.00000000000E+00  0.45593999997E+02  0.45594000000E+02  0.51100000000E-03 0.  1.
         11   -1    0    0    0    0 -0.00000000000E+00 -0.00000000000E+00 -0.45593999997E+02  0.45594000000E+02  0.51100000000E-03 0. -1.
         23    2    1    2    0    0  0.00000000000E+00  0.00000000000E+00  0.35527136788E-14  0.91188000000E+02  0.91188000000E+02 0.  0.
    9900012    2    3    3    0    0 -0.40178830052E+01 -0.20797299975E+02 -0.30118273720E+02  0.54367061908E+02  0.39999949232E+02 0.  0.
        -12    1    3    3    0    0  0.40178830052E+01  0.20797299975E+02  0.30118273720E+02  0.36820938092E+02  0.00000000000E+00 0.  1.
         11    1    4    4    0    0  0.22236226133E+01  0.12726312313E+01 -0.17905240626E+02  0.18087612609E+02  0.51100000000E-03 0. -1.
        -11    1    4    4    0    0 -0.34774607560E+01 -0.23321511874E+02 -0.18054037876E+02  0.29697372497E+02  0.51100000000E-03 0.  1.
        -12    1    4    4    0    0 -0.27640448626E+01  0.12515806675E+01  0.58410047813E+01  0.65820768018E+01  0.00000000000E+00 0.  1.
</event>
<event>
 8    1  0.2504019E-006  0.9118800E+02  0.7816164E-02  0.1184000E+00
        -11   -1    0    0    0    0  0.00000000000E+00  0.00000000000E+00  0.45593999997E+02  0.45594000000E+02  0.51100000000E-03 0. -1.
         11   -1    0    0    0    0 -0.00000000000E+00 -0.00000000000E+00 -0.45593999997E+02  0.45594000000E+02  0.51100000000E-03 0.  1.
         23    2    1    2    0    0  0.35527136788E-14  0.60715321659E-15  0.00000000000E+00  0.91188000000E+02  0.91188000000E+02 0.  0.
    9900012    2    3    3    0    0 -0.20797181415E+02  0.28789906801E-01 -0.30385134446E+02  0.54367082318E+02  0.39999995760E+02 0.  0.
         12    1    3    3    0    0  0.20797181415E+02 -0.28789906801E-01  0.30385134446E+02  0.36820917682E+02  0.00000000000E+00 0. -1.
         11    1    4    4    0    0  0.17217300015E+01 -0.16229840636E+01 -0.93038208004E+01  0.95999746466E+01  0.51100000000E-03 0. -1.
        -11    1    4    4    0    0 -0.79093504035E+01 -0.15230711971E+02 -0.88247453841E+01  0.19297889582E+02  0.51100000000E-03 0.  1.
        -12    1    4    4    0    0 -0.14609561013E+02  0.16882485941E+02 -0.12256568261E+02  0.25469218090E+02  0.00000000000E+00 0.  1.
</event>
<event>
 8    1  0.2504019E-006  0.9118800E+02  0.7816164E-02  0.1184000E+00
        -11   -1    0    0    0    0  0.00000000000E+00  0.00000000000E+00  0.45593999997E+02  0.45594000000E+02  0.51100000000E-03 0. -1.
         11   -1    0    0    0    0 -0.00000000000E+00 -0.00000000000E+00 -0.45593999997E+02  0.45594000000E+02  0.51100000000E-03 0.  1.
         23    2    1    2    0    0  0.00000000000E+00  0.00000000000E+00  0.35527136788E-14  0.91188000000E+02  0.91188000000E+02 0.  0.
    9900012    2    3    3    0    0 -0.70653791995E+01 -0.29042438784E+02 -0.21503431440E+02  0.54367076635E+02  0.39999982806E+02 0.  0.
         12    1    3    3    0    0  0.70653791995E+01  0.29042438784E+02  0.21503431440E+02  0.36820923365E+02  0.00000000000E+00 0. -1.
         11    1    4    4    0    0  0.12173816657E+02 -0.32376707610E+01  0.16279787391E+01  0.12701757319E+02  0.51100000000E-03 0.  1.
        -11    1    4    4    0    0 -0.13946089427E+02 -0.18454103650E+02 -0.88762192285E+01  0.24775686063E+02  0.51100000000E-03 0. -1.
        -12    1    4    4    0    0 -0.52931064294E+01 -0.73506643724E+01 -0.14255190950E+02  0.16889633253E+02  0.00000000000E+00 0.  1.
</event>
<event>
 8    1  0.2504019E-006  0.9118800E+02  0.7816164E-02  0.1184000E+00
        -11   -1    0    0    0    0  0.00000000000E+00  0.00000000000E+00  0.45593999997E+02  0.45594000000E+02  0.51100000000E-03 0. -1.
         11   -1    0    0    0    0 -0.00000000000E+00 -0.00000000000E+00 -0.45593999997E+02  0.45594000000E+02  0.51100000000E-03 0.  1.
         23    2    1    2    0    0  0.00000000000E+00  0.00000000000E+00 -0.35527136788E-14  0.91188000000E+02  0.91188000000E+02 0.  0.
    9900012    2    3    3    0    0 -0.32781078641E+02 -0.12528965955E+02  0.11144826012E+02  0.54367065037E+02  0.39999956364E+02 0.  0.
        -12    1    3    3    0    0  0.32781078641E+02  0.12528965955E+02 -0.11144826012E+02  0.36820934963E+02  0.00000000000E+00 0.  1.
         11    1    4    4    0    0 -0.30019161323E+02 -0.92846698048E+01  0.19485264480E+02  0.36973377883E+02  0.51100000000E-03 0. -1.
        -11    1    4    4    0    0 -0.15818478194E+01 -0.86975556339E+01 -0.77977056108E+01  0.11787872140E+02  0.51100000000E-03 0.  1.
        -12    1    4    4    0    0 -0.11800694981E+01  0.54532594842E+01 -0.54273285718E+00  0.56058150145E+01  0.00000000000E+00 0.  1.
</event>
<event>
 8    1  0.2504019E-006  0.9118800E+02  0.7816164E-02  0.1184000E+00
        -11   -1    0    0    0    0  0.00000000000E+00  0.00000000000E+00  0.45593999997E+02  0.45594000000E+02  0.51100000000E-03 0.  1.
         11   -1    0    0    0    0 -0.00000000000E+00 -0.00000000000E+00 -0.45593999997E+02  0.45594000000E+02  0.51100000000E-03 0. -1.
         23    2    1    2    0    0 -0.35527136788E-14  0.00000000000E+00  0.17763568394E-14  0.91188000000E+02  0.91188000000E+02 0.  0.
    9900012    2    3    3    0    0  0.24547946395E+02 -0.25916305352E+02  0.90290351486E+01  0.54367081611E+02  0.39999994149E+02 0.  0.
        -12    1    3    3    0    0 -0.24547946395E+02  0.25916305352E+02 -0.90290351486E+01  0.36820918389E+02  0.00000000000E+00 0.  1.
         11    1    4    4    0    0  0.58473621538E+01 -0.12626387295E+02 -0.64616207929E+01  0.15341767949E+02  0.51100000000E-03 0. -1.
        -11    1    4    4    0    0 -0.25006766618E+01  0.61142348919E+01  0.55068153756E+01  0.86001318550E+01  0.51100000000E-03 0.  1.
        -12    1    4    4    0    0  0.21201260903E+02 -0.19404152949E+02  0.99838405659E+01  0.30425181807E+02  0.00000000000E+00 0.  1.
</event>
<event>
 8    1  0.2504019E-006  0.9118800E+02  0.7816164E-02  0.1184000E+00
        -11   -1    0    0    0    0  0.00000000000E+00  0.00000000000E+00  0.45593999997E+02  0.45594000000E+02  0.51100000000E-03 0.  1.
         11   -1    0    0    0    0 -0.00000000000E+00 -0.00000000000E+00 -0.45593999997E+02  0.45594000000E+02  0.51100000000E-03 0. -1.
         23    2    1    2    0    0  0.00000000000E+00  0.00000000000E+00  0.00000000000E+00  0.91188000000E+02  0.91188000000E+02 0.  0.
    9900012    2    3    3    0    0 -0.28603366703E+02  0.20339435119E+02  0.11132577877E+02  0.54367088850E+02  0.40000010651E+02 0.  0.
         12    1    3    3    0    0  0.28603366703E+02 -0.20339435119E+02 -0.11132577877E+02  0.36820911150E+02  0.00000000000E+00 0. -1.
         11    1    4    4    0    0 -0.24188509743E+02 -0.11281425810E+00  0.11118801934E+02  0.26621879861E+02  0.51100000000E-03 0. -1.
        -11    1    4    4    0    0 -0.26487029448E+01  0.57309346025E-01  0.58806091104E+01  0.64498430540E+01  0.51100000000E-03 0.  1.
         12    1    4    4    0    0 -0.17661540153E+01  0.20394940031E+02 -0.58668331669E+01  0.21295365935E+02  0.00000000000E+00 0. -1.
</event>
<event>
 8    1  0.2504019E-006  0.9118800E+02  0.7816164E-02  0.1184000E+00
        -11   -1    0    0    0    0  0.00000000000E+00  0.00000000000E+00  0.45593999997E+02  0.45594000000E+02  0.51100000000E-03 0. -1.
         11   -1    0    0    0    0 -0.00000000000E+00 -0.00000000000E+00 -0.45593999997E+02  0.45594000000E+02  0.51100000000E-03 0.  1.
         23    2    1    2    0    0  0.00000000000E+00  0.00000000000E+00  0.00000000000E+00  0.91188000000E+02  0.91188000000E+02 0.  0.
    9900012    2    3    3    0    0 -0.11273783229E+02 -0.14901915735E+02 -0.31727208023E+02  0.54367068320E+02  0.39999963850E+02 0.  0.
         12    1    3    3    0    0  0.11273783229E+02  0.14901915735E+02  0.31727208023E+02  0.36820931680E+02  0.00000000000E+00 0. -1.
         11    1    4    4    0    0 -0.76005022696E+01  0.81206680029E+01 -0.50996442612E+01  0.12235981996E+02  0.51100000000E-03 0. -1.
        -11    1    4    4    0    0 -0.76929630631E+01 -0.39675435212E+01  0.57644832458E+00  0.86749856031E+01  0.51100000000E-03 0.  1.
        -12    1    4    4    0    0  0.40196821040E+01 -0.19055040216E+02 -0.27204012086E+02  0.33456100721E+02  0.00000000000E+00 0.  1.
</event>
<event>
 8    1  0.2504019E-006  0.9118800E+02  0.7816164E-02  0.1184000E+00
        -11   -1    0    0    0    0  0.00000000000E+00  0.00000000000E+00  0.45593999997E+02  0.45594000000E+02  0.51100000000E-03 0. -1.
         11   -1    0    0    0    0 -0.00000000000E+00 -0.00000000000E+00 -0.45593999997E+02  0.45594000000E+02  0.51100000000E-03 0.  1.
         23    2    1    2    0    0  0.17763568394E-14 -0.17763568394E-14  0.71054273576E-14  0.91188000000E+02  0.91188000000E+02 0.  0.
    9900012    2    3    3    0    0  0.90087685666E+01 -0.14580135505E+02  0.32588978723E+02  0.54367084793E+02  0.40000001403E+02 0.  0.
        -12    1    3    3    0    0 -0.90087685666E+01  0.14580135505E+02 -0.32588978723E+02  0.36820915207E+02  0.00000000000E+00 0.  1.
         11    1    4    4    0    0  0.92110586841E+01 -0.90922915927E+01 -0.55872333670E+01  0.14097182181E+02  0.51100000000E-03 0. -1.
        -11    1    4    4    0    0 -0.35342376607E+01 -0.64217769208E-01  0.33611762296E+01  0.48777521125E+01  0.51100000000E-03 0.  1.
         12    1    4    4    0    0  0.33319475432E+01 -0.54236261433E+01  0.34815035861E+02  0.35392150499E+02  0.00000000000E+00 0. -1.
</event>
<event>
 8    1  0.2504019E-006  0.9118800E+02  0.7816164E-02  0.1184000E+00
        -11   -1    0    0    0    0  0.00000000000E+00  0.00000000000E+00  0.45593999997E+02  0.45594000000E+02  0.51100000000E-03 0. -1.
         11   -1    0    0    0    0 -0.00000000000E+00 -0.00000000000E+00 -0.45593999997E+02  0.45594000000E+02  0.51100000000E-03 0.  1.
         23    2    1    2    0    0 -0.35527136788E-14  0.35527136788E-14 -0.35527136788E-14  0.91188000000E+02  0.91188000000E+02 0.  0.
    9900012    2    3    3    0    0 -0.19883189617E+02  0.25550719168E+02 -0.17538498212E+02  0.54367090194E+02  0.40000013716E+02 0.  0.
         12    1    3    3    0    0  0.19883189617E+02 -0.25550719168E+02  0.17538498212E+02  0.36820909806E+02  0.00000000000E+00 0. -1.
         11    1    4    4    0    0 -0.10682288931E+02  0.20140707077E+02 -0.16273316639E+01  0.22856237376E+02  0.51100000000E-03 0. -1.
        -11    1    4    4    0    0  0.72440043807E+01  0.63376311994E+01 -0.17367331126E+01  0.97804606667E+01  0.51100000000E-03 0.  1.
        -12    1    4    4    0    0 -0.16444905067E+02 -0.92761910798E+00 -0.14174433435E+02  0.21730392152E+02  0.00000000000E+00 0.  1.
</event>
<event>
 8    1  0.2504019E-006  0.9118800E+02  0.7816164E-02  0.1184000E+00
        -11   -1    0    0    0    0  0.00000000000E+00  0.00000000000E+00  0.45593999997E+02  0.45594000000E+02  0.51100000000E-03 0. -1.
         11   -1    0    0    0    0 -0.00000000000E+00 -0.00000000000E+00 -0.45593999997E+02  0.45594000000E+02  0.51100000000E-03 0.  1.
         23    2    1    2    0    0  0.00000000000E+00  0.00000000000E+00  0.00000000000E+00  0.91188000000E+02  0.91188000000E+02 0.  0.
    9900012    2    3    3    0    0  0.57634770963E+01 -0.31069254656E+02 -0.18901432949E+02  0.54367076320E+02  0.39999982086E+02 0.  0.
         12    1    3    3    0    0 -0.57634770963E+01  0.31069254656E+02  0.18901432949E+02  0.36820923680E+02  0.00000000000E+00 0. -1.
         11    1    4    4    0    0  0.24321756492E+01 -0.44009832108E+01  0.53491804567E+01  0.73415164257E+01  0.51100000000E-03 0. -1.
        -11    1    4    4    0    0  0.29448140862E+01  0.64875855957E+01 -0.39441933997E+01  0.81435470588E+01  0.51100000000E-03 0.  1.
         12    1    4    4    0    0  0.38648736094E+00 -0.33155857041E+02 -0.20306420006E+02  0.38882012835E+02  0.00000000000E+00 0. -1.
</event>
<event>
 8    1  0.2504019E-006  0.9118800E+02  0.7816164E-02  0.1184000E+00
        -11   -1    0    0    0    0  0.00000000000E+00  0.00000000000E+00  0.45593999997E+02  0.45594000000E+02  0.51100000000E-03 0. -1.
         11   -1    0    0    0    0 -0.00000000000E+00 -0.00000000000E+00 -0.45593999997E+02  0.45594000000E+02  0.51100000000E-03 0.  1.
         23    2    1    2    0    0 -0.44408920985E-15  0.00000000000E+00  0.00000000000E+00  0.91188000000E+02  0.91188000000E+02 0.  0.
    9900012    2    3    3    0    0  0.29932773672E+01 -0.23437008420E+02  0.28240507180E+02  0.54367091282E+02  0.40000016195E+02 0.  0.
        -12    1    3    3    0    0 -0.29932773672E+01  0.23437008420E+02 -0.28240507180E+02  0.36820908718E+02  0.00000000000E+00 0.  1.
         11    1    4    4    0    0 -0.53595204598E+00 -0.15546694226E+02  0.14576851001E+02  0.21318337912E+02  0.51100000000E-03 0.  1.
        -11    1    4    4    0    0  0.45489536924E+01 -0.17963641645E+02  0.13492802705E+02  0.22922502610E+02  0.51100000000E-03 0. -1.
        -12    1    4    4    0    0 -0.10197242792E+01  0.10073327451E+02  0.17085347415E+00  0.10126250759E+02  0.00000000000E+00 0.  1.
</event>
<event>
 8    1  0.2504019E-006  0.9118800E+02  0.7816164E-02  0.1184000E+00
        -11   -1    0    0    0    0  0.00000000000E+00  0.00000000000E+00  0.45593999997E+02  0.45594000000E+02  0.51100000000E-03 0.  1.
         11   -1    0    0    0    0 -0.00000000000E+00 -0.00000000000E+00 -0.45593999997E+02  0.45594000000E+02  0.51100000000E-03 0. -1.
         23    2    1    2    0    0  0.00000000000E+00  0.00000000000E+00  0.26645352591E-14  0.91188000000E+02  0.91188000000E+02 0.  0.
    9900012    2    3    3    0    0  0.34990565910E+02  0.83620146620E+01 -0.78432635850E+01  0.54367085079E+02  0.40000002055E+02 0.  0.
        -12    1    3    3    0    0 -0.34990565910E+02 -0.83620146620E+01  0.78432635850E+01  0.36820914921E+02  0.00000000000E+00 0.  1.
         11    1    4    4    0    0  0.18511787319E+02  0.69162032843E+01 -0.20156004246E+02  0.28227374038E+02  0.51100000000E-03 0. -1.
        -11    1    4    4    0    0  0.89394260528E+00  0.46342210465E+01  0.85916772266E+01  0.98026555543E+01  0.51100000000E-03 0.  1.
         12    1    4    4    0    0  0.15584835986E+02 -0.31884096687E+01  0.37210634344E+01  0.16337055487E+02  0.00000000000E+00 0. -1.
</event>
<event>
 8    1  0.2504019E-006  0.9118800E+02  0.7816164E-02  0.1184000E+00
        -11   -1    0    0    0    0  0.00000000000E+00  0.00000000000E+00  0.45593999997E+02  0.45594000000E+02  0.51100000000E-03 0.  1.
         11   -1    0    0    0    0 -0.00000000000E+00 -0.00000000000E+00 -0.45593999997E+02  0.45594000000E+02  0.51100000000E-03 0. -1.
         23    2    1    2    0    0 -0.88817841970E-15  0.00000000000E+00 -0.71054273576E-14  0.91188000000E+02  0.91188000000E+02 0.  0.
    9900012    2    3    3    0    0  0.19984471967E+01 -0.86723655664E+01  0.35729226279E+02  0.54367064023E+02  0.39999954053E+02 0.  0.
         12    1    3    3    0    0 -0.19984471967E+01  0.86723655664E+01 -0.35729226279E+02  0.36820935977E+02  0.00000000000E+00 0. -1.
         11    1    4    4    0    0  0.99300310651E+01  0.15744006245E+01 -0.29137020799E+01  0.10467755937E+02  0.51100000000E-03 0. -1.
        -11    1    4    4    0    0  0.10575714837E+01  0.26956747172E+01  0.16319793738E+02  0.16574703241E+02  0.51100000000E-03 0.  1.
        -12    1    4    4    0    0 -0.89891553521E+01 -0.12942440908E+02  0.22323134621E+02  0.27324604845E+02  0.00000000000E+00 0.  1.
</event>
<event>
 8    1  0.2504019E-006  0.9118800E+02  0.7816164E-02  0.1184000E+00
        -11   -1    0    0    0    0  0.00000000000E+00  0.00000000000E+00  0.45593999997E+02  0.45594000000E+02  0.51100000000E-03 0. -1.
         11   -1    0    0    0    0 -0.00000000000E+00 -0.00000000000E+00 -0.45593999997E+02  0.45594000000E+02  0.51100000000E-03 0.  1.
         23    2    1    2    0    0 -0.17763568394E-14  0.00000000000E+00  0.71054273576E-14  0.91188000000E+02  0.91188000000E+02 0.  0.
    9900012    2    3    3    0    0 -0.92495823731E+01  0.18688368359E+02  0.30347493008E+02  0.54367079074E+02  0.39999988364E+02 0.  0.
        -12    1    3    3    0    0  0.92495823731E+01 -0.18688368359E+02 -0.30347493008E+02  0.36820920926E+02  0.00000000000E+00 0.  1.
         11    1    4    4    0    0  0.37416335385E+01  0.73327148346E+01  0.33673719665E+02  0.34665370685E+02  0.51100000000E-03 0. -1.
        -11    1    4    4    0    0  0.83413578619E-01  0.18847621213E+01 -0.30121380129E+01  0.35541893237E+01  0.51100000000E-03 0.  1.
        -12    1    4    4    0    0 -0.13074629490E+02  0.94708914027E+01 -0.31408864422E+00  0.16147519065E+02  0.00000000000E+00 0.  1.
</event>
<event>
 8    1  0.2504019E-006  0.9118800E+02  0.7816164E-02  0.1184000E+00
        -11   -1    0    0    0    0  0.00000000000E+00  0.00000000000E+00  0.45593999997E+02  0.45594000000E+02  0.51100000000E-03 0.  1.
         11   -1    0    0    0    0 -0.00000000000E+00 -0.00000000000E+00 -0.45593999997E+02  0.45594000000E+02  0.51100000000E-03 0. -1.
         23    2    1    2    0    0  0.00000000000E+00  0.35527136788E-14 -0.35527136788E-14  0.91188000000E+02  0.91188000000E+02 0.  0.
    9900012    2    3    3    0    0  0.10261081379E+02 -0.25120110261E+02  0.24889144964E+02  0.54367091977E+02  0.40000017779E+02 0.  0.
         12    1    3    3    0    0 -0.10261081379E+02  0.25120110261E+02 -0.24889144964E+02  0.36820908023E+02  0.00000000000E+00 0. -1.
         11    1    4    4    0    0  0.47737765147E+01 -0.71906466312E+01  0.11884191379E+02  0.14687693699E+02  0.51100000000E-03 0. -1.
        -11    1    4    4    0    0  0.15506669669E+02 -0.10655426834E+02  0.18269376673E+02  0.26225275013E+02  0.51100000000E-03 0.  1.
         12    1    4    4    0    0 -0.10019364804E+02 -0.72740367962E+01 -0.52644230876E+01  0.13454123265E+02  0.00000000000E+00 0. -1.
</event>
<event>
 8    1  0.2504019E-006  0.9118800E+02  0.7816164E-02  0.1184000E+00
        -11   -1    0    0    0    0  0.00000000000E+00  0.00000000000E+00  0.45593999997E+02  0.45594000000E+02  0.51100000000E-03 0. -1.
         11   -1    0    0    0    0 -0.00000000000E+00 -0.00000000000E+00 -0.45593999997E+02  0.45594000000E+02  0.51100000000E-03 0.  1.
         23    2    1    2    0    0  0.00000000000E+00  0.17763568394E-14  0.00000000000E+00  0.91188000000E+02  0.91188000000E+02 0.  0.
    9900012    2    3    3    0    0  0.28065567053E+02  0.10078615802E+02 -0.21599204460E+02  0.54367079536E+02  0.39999989418E+02 0.  0.
        -12    1    3    3    0    0 -0.28065567053E+02 -0.10078615802E+02  0.21599204460E+02  0.36820920464E+02  0.00000000000E+00 0.  1.
         11    1    4    4    0    0  0.19381379183E+02  0.14964410550E+02  0.31371948569E+01  0.24686300532E+02  0.51100000000E-03 0. -1.
        -11    1    4    4    0    0  0.48989693313E+01 -0.59509033457E+01 -0.42132892917E+01  0.87843587162E+01  0.51100000000E-03 0.  1.
         12    1    4    4    0    0  0.37852185391E+01  0.10651085981E+01 -0.20523110026E+02  0.20896420288E+02  0.00000000000E+00 0. -1.
</event>
<event>
 8    1  0.2504019E-006  0.9118800E+02  0.7816164E-02  0.1184000E+00
        -11   -1    0    0    0    0  0.00000000000E+00  0.00000000000E+00  0.45593999997E+02  0.45594000000E+02  0.51100000000E-03 0.  1.
         11   -1    0    0    0    0 -0.00000000000E+00 -0.00000000000E+00 -0.45593999997E+02  0.45594000000E+02  0.51100000000E-03 0. -1.
         23    2    1    2    0    0 -0.17763568394E-14  0.17763568394E-14  0.00000000000E+00  0.91188000000E+02  0.91188000000E+02 0.  0.
    9900012    2    3    3    0    0 -0.12169322430E+02  0.89225826164E+01 -0.33586832465E+02  0.54367079262E+02  0.39999988794E+02 0.  0.
        -12    1    3    3    0    0  0.12169322430E+02 -0.89225826164E+01  0.33586832465E+02  0.36820920738E+02  0.00000000000E+00 0.  1.
         11    1    4    4    0    0 -0.14124839732E+01  0.98277270526E+01 -0.87864005489E+01  0.13258211224E+02  0.51100000000E-03 0. -1.
        -11    1    4    4    0    0  0.78928761002E+01 -0.30188492570E+01  0.17149819489E+01  0.86227668017E+01  0.51100000000E-03 0.  1.
        -12    1    4    4    0    0 -0.18649714557E+02  0.21137048209E+01 -0.26515413865E+02  0.32486101237E+02  0.00000000000E+00 0.  1.
</event>
<event>
 8    1  0.2504019E-006  0.9118800E+02  0.7816164E-02  0.1184000E+00
        -11   -1    0    0    0    0  0.00000000000E+00  0.00000000000E+00  0.45593999997E+02  0.45594000000E+02  0.51100000000E-03 0.  1.
         11   -1    0    0    0    0 -0.00000000000E+00 -0.00000000000E+00 -0.45593999997E+02  0.45594000000E+02  0.51100000000E-03 0. -1.
         23    2    1    2    0    0  0.00000000000E+00  0.35527136788E-14  0.00000000000E+00  0.91188000000E+02  0.91188000000E+02 0.  0.
    9900012    2    3    3    0    0 -0.21436081807E+02 -0.28196053884E+02  0.10062633159E+02  0.54367086867E+02  0.40000006131E+02 0.  0.
         12    1    3    3    0    0  0.21436081807E+02  0.28196053884E+02 -0.10062633159E+02  0.36820913133E+02  0.00000000000E+00 0. -1.
         11    1    4    4    0    0 -0.76204733614E+01  0.73358002267E+01 -0.23090504674E+01  0.10826693565E+02  0.51100000000E-03 0. -1.
        -11    1    4    4    0    0 -0.16146914409E+02 -0.22577430481E+02  0.42683519540E+01  0.28083483415E+02  0.51100000000E-03 0.  1.
         12    1    4    4    0    0  0.23313059642E+01 -0.12954423630E+02  0.81033316726E+01  0.15456909887E+02  0.00000000000E+00 0. -1.
</event>
<event>
 8    1  0.2504019E-006  0.9118800E+02  0.7816164E-02  0.1184000E+00
        -11   -1    0    0    0    0  0.00000000000E+00  0.00000000000E+00  0.45593999997E+02  0.45594000000E+02  0.51100000000E-03 0.  1.
         11   -1    0    0    0    0 -0.00000000000E+00 -0.00000000000E+00 -0.45593999997E+02  0.45594000000E+02  0.51100000000E-03 0. -1.
         23    2    1    2    0    0 -0.71054273576E-14 -0.44408920985E-15 -0.17763568394E-14  0.91188000000E+02  0.91188000000E+02 0.  0.
    9900012    2    3    3    0    0  0.34754362529E+02  0.37706443430E+01  0.11562384512E+02  0.54367187826E+02  0.40000236286E+02 0.  0.
         12    1    3    3    0    0 -0.34754362529E+02 -0.37706443430E+01 -0.11562384512E+02  0.36820812174E+02  0.00000000000E+00 0. -1.
         11    1    4    4    0    0  0.72120967605E+00 -0.12524709246E-01 -0.52340734576E+01  0.52835428915E+01  0.51100000000E-03 0. -1.
        -11    1    4    4    0    0 -0.35521989229E+01  0.20838966790E+01 -0.42957404775E+01  0.59509771523E+01  0.51100000000E-03 0.  1.
        -12    1    4    4    0    0  0.37585351776E+02  0.16992723732E+01  0.21092198447E+02  0.43132667782E+02  0.00000000000E+00 0.  1.
</event>
<event>
 8    1  0.2504019E-006  0.9118800E+02  0.7816164E-02  0.1184000E+00
        -11   -1    0    0    0    0  0.00000000000E+00  0.00000000000E+00  0.45593999997E+02  0.45594000000E+02  0.51100000000E-03 0. -1.
         11   -1    0    0    0    0 -0.00000000000E+00 -0.00000000000E+00 -0.45593999997E+02  0.45594000000E+02  0.51100000000E-03 0.  1.
         23    2    1    2    0    0 -0.71054273576E-14  0.00000000000E+00  0.00000000000E+00  0.91188000000E+02  0.91188000000E+02 0.  0.
    9900012    2    3    3    0    0  0.33485462164E+02 -0.11303711853E+02 -0.10331017510E+02  0.54367082021E+02  0.39999995084E+02 0.  0.
         12    1    3    3    0    0 -0.33485462164E+02  0.11303711853E+02  0.10331017510E+02  0.36820917979E+02  0.00000000000E+00 0. -1.
         11    1    4    4    0    0 -0.41958424992E+00  0.17557649384E+01 -0.12062296837E+02  0.12196629318E+02  0.51100000000E-03 0. -1.
        -11    1    4    4    0    0  0.27868178357E+02 -0.59596381568E+01  0.94975417649E+01  0.30039240199E+02  0.51100000000E-03 0.  1.
        -12    1    4    4    0    0  0.60368680567E+01 -0.70998386349E+01 -0.77662624375E+01  0.12131212504E+02  0.00000000000E+00 0.  1.
</event>
<event>
 8    1  0.2504019E-006  0.9118800E+02  0.7816164E-02  0.1184000E+00
        -11   -1    0    0    0    0  0.00000000000E+00  0.00000000000E+00  0.45593999997E+02  0.45594000000E+02  0.51100000000E-03 0.  1.
         11   -1    0    0    0    0 -0.00000000000E+00 -0.00000000000E+00 -0.45593999997E+02  0.45594000000E+02  0.51100000000E-03 0. -1.
         23    2    1    2    0    0 -0.35527136788E-14 -0.35527136788E-14  0.44408920985E-15  0.91188000000E+02  0.91188000000E+02 0.  0.
    9900012    2    3    3    0    0 -0.18796135349E+02 -0.31525351535E+02  0.29386599408E+01  0.54367106261E+02  0.40000050343E+02 0.  0.
         12    1    3    3    0    0  0.18796135349E+02  0.31525351535E+02 -0.29386599408E+01  0.36820893739E+02  0.00000000000E+00 0. -1.
         11    1    4    4    0    0 -0.10114052829E+02 -0.43750870181E+01 -0.49157409495E+01  0.12066480862E+02  0.51100000000E-03 0. -1.
        -11    1    4    4    0    0 -0.15532712298E+02 -0.55878099404E+01 -0.36696212054E+01  0.16910200806E+02  0.51100000000E-03 0.  1.
        -12    1    4    4    0    0  0.68506297779E+01 -0.21562454577E+02  0.11524022096E+02  0.25390424593E+02  0.00000000000E+00 0.  1.
</event>
<event>
 8    1  0.2504019E-006  0.9118800E+02  0.7816164E-02  0.1184000E+00
        -11   -1    0    0    0    0  0.00000000000E+00  0.00000000000E+00  0.45593999997E+02  0.45594000000E+02  0.51100000000E-03 0. -1.
         11   -1    0    0    0    0 -0.00000000000E+00 -0.00000000000E+00 -0.45593999997E+02  0.45594000000E+02  0.51100000000E-03 0.  1.
         23    2    1    2    0    0  0.17763568394E-14  0.00000000000E+00 -0.35527136788E-14  0.91188000000E+02  0.91188000000E+02 0.  0.
    9900012    2    3    3    0    0 -0.45389472631E+01  0.22170007789E+02  0.29045965556E+02  0.54367090143E+02  0.40000013600E+02 0.  0.
        -12    1    3    3    0    0  0.45389472631E+01 -0.22170007789E+02 -0.29045965556E+02  0.36820909857E+02  0.00000000000E+00 0.  1.
         11    1    4    4    0    0  0.64140269081E+01  0.44254173645E+01  0.13120143055E+02  0.15259823527E+02  0.51100000000E-03 0. -1.
        -11    1    4    4    0    0 -0.15808113376E+02  0.23192192549E+02  0.14778930970E+02  0.31720514570E+02  0.51100000000E-03 0.  1.
        -12    1    4    4    0    0  0.48551392048E+01 -0.54476021247E+01  0.11468915313E+01  0.73867520462E+01  0.00000000000E+00 0.  1.
</event>
<event>
 8    1  0.2504019E-006  0.9118800E+02  0.7816164E-02  0.1184000E+00
        -11   -1    0    0    0    0  0.00000000000E+00  0.00000000000E+00  0.45593999997E+02  0.45594000000E+02  0.51100000000E-03 0.  1.
         11   -1    0    0    0    0 -0.00000000000E+00 -0.00000000000E+00 -0.45593999997E+02  0.45594000000E+02  0.51100000000E-03 0. -1.
         23    2    1    2    0    0  0.00000000000E+00  0.17763568394E-14  0.00000000000E+00  0.91188000000E+02  0.91188000000E+02 0.  0.
    9900012    2    3    3    0    0  0.18555217071E+02 -0.14036299240E+02 -0.28538848962E+02  0.54367086418E+02  0.40000005108E+02 0.  0.
        -12    1    3    3    0    0 -0.18555217071E+02  0.14036299240E+02  0.28538848962E+02  0.36820913582E+02  0.00000000000E+00 0.  1.
         11    1    4    4    0    0  0.13293033868E+02 -0.41246229189E+01 -0.25251427411E+02  0.28833172739E+02  0.51100000000E-03 0. -1.
        -11    1    4    4    0    0  0.77568706878E+01 -0.10318144667E+02 -0.11285281535E+02  0.17146157932E+02  0.51100000000E-03 0.  1.
         12    1    4    4    0    0 -0.24946874852E+01  0.40646834631E+00  0.79978599834E+01  0.83877557475E+01  0.00000000000E+00 0. -1.
</event>
<event>
 8    1  0.2504019E-006  0.9118800E+02  0.7816164E-02  0.1184000E+00
        -11   -1    0    0    0    0  0.00000000000E+00  0.00000000000E+00  0.45593999997E+02  0.45594000000E+02  0.51100000000E-03 0. -1.
         11   -1    0    0    0    0 -0.00000000000E+00 -0.00000000000E+00 -0.45593999997E+02  0.45594000000E+02  0.51100000000E-03 0.  1.
         23    2    1    2    0    0  0.00000000000E+00 -0.17763568394E-14 -0.17763568394E-14  0.91188000000E+02  0.91188000000E+02 0.  0.
    9900012    2    3    3    0    0  0.34300493575E+02 -0.42589196834E+01 -0.12693198089E+02  0.54367088359E+02  0.40000009533E+02 0.  0.
        -12    1    3    3    0    0 -0.34300493575E+02  0.42589196834E+01  0.12693198089E+02  0.36820911641E+02  0.00000000000E+00 0.  1.
         11    1    4    4    0    0  0.13295704753E+01 -0.21683721079E+01  0.13932399714E+01  0.29001229502E+01  0.51100000000E-03 0. -1.
        -11    1    4    4    0    0  0.91291551594E+01 -0.10275348942E+02 -0.21208138608E+02  0.25272700949E+02  0.51100000000E-03 0.  1.
        -12    1    4    4    0    0  0.23841767940E+02  0.81848013661E+01  0.71217005480E+01  0.26194264460E+02  0.00000000000E+00 0.  1.
</event>
<event>
 8    1  0.2504019E-006  0.9118800E+02  0.7816164E-02  0.1184000E+00
        -11   -1    0    0    0    0  0.00000000000E+00  0.00000000000E+00  0.45593999997E+02  0.45594000000E+02  0.51100000000E-03 0.  1.
         11   -1    0    0    0    0 -0.00000000000E+00 -0.00000000000E+00 -0.45593999997E+02  0.45594000000E+02  0.51100000000E-03 0. -1.
         23    2    1    2    0    0  0.00000000000E+00  0.00000000000E+00 -0.44408920985E-15  0.91188000000E+02  0.91188000000E+02 0.  0.
    9900012    2    3    3    0    0  0.15263843472E+02 -0.33441462276E+02 -0.21135019895E+01  0.54367038479E+02  0.39999895821E+02 0.  0.
        -12    1    3    3    0    0 -0.15263843472E+02  0.33441462276E+02  0.21135019895E+01  0.36820961521E+02  0.00000000000E+00 0.  1.
         11    1    4    4    0    0  0.21949225277E+01  0.52899035418E+00  0.57791104612E+01  0.62044849650E+01  0.51100000000E-03 0. -1.
        -11    1    4    4    0    0 -0.39437697119E+01  0.41446319496E+01 -0.23205991849E+00  0.57258314335E+01  0.51100000000E-03 0.  1.
         12    1    4    4    0    0  0.17012690656E+02 -0.38115084579E+02 -0.76605525322E+01  0.42436722081E+02  0.00000000000E+00 0. -1.
</event>
<event>
 8    1  0.2504019E-006  0.9118800E+02  0.7816164E-02  0.1184000E+00
        -11   -1    0    0    0    0  0.00000000000E+00  0.00000000000E+00  0.45593999997E+02  0.45594000000E+02  0.51100000000E-03 0.  1.
         11   -1    0    0    0    0 -0.00000000000E+00 -0.00000000000E+00 -0.45593999997E+02  0.45594000000E+02  0.51100000000E-03 0. -1.
         23    2    1    2    0    0 -0.35527136788E-14  0.17763568394E-14  0.00000000000E+00  0.91188000000E+02  0.91188000000E+02 0.  0.
    9900012    2    3    3    0    0 -0.30176811709E+02  0.13596617982E+02  0.16132935573E+02  0.54367087523E+02  0.40000007625E+02 0.  0.
        -12    1    3    3    0    0  0.30176811709E+02 -0.13596617982E+02 -0.16132935573E+02  0.36820912477E+02  0.00000000000E+00 0.  1.
         11    1    4    4    0    0 -0.55135897403E+01  0.18870689413E+02  0.95345122315E+01  0.21849702847E+02  0.51100000000E-03 0. -1.
        -11    1    4    4    0    0 -0.58599192926E+01 -0.15897429229E+01  0.11264401051E+02  0.12796588138E+02  0.51100000000E-03 0.  1.
         12    1    4    4    0    0 -0.18803302676E+02 -0.36843285078E+01 -0.46659777099E+01  0.19720796537E+02  0.00000000000E+00 0. -1.
</event>
<event>
 8    1  0.2504019E-006  0.9118800E+02  0.7816164E-02  0.1184000E+00
        -11   -1    0    0    0    0  0.00000000000E+00  0.00000000000E+00  0.45593999997E+02  0.45594000000E+02  0.51100000000E-03 0.  1.
         11   -1    0    0    0    0 -0.00000000000E+00 -0.00000000000E+00 -0.45593999997E+02  0.45594000000E+02  0.51100000000E-03 0. -1.
         23    2    1    2    0    0 -0.71054273576E-14  0.88817841970E-15  0.00000000000E+00  0.91188000000E+02  0.91188000000E+02 0.  0.
    9900012    2    3    3    0    0 -0.32983864620E+02 -0.40936011179E+01 -0.15845673931E+02  0.54367105420E+02  0.40000048425E+02 0.  0.
         12    1    3    3    0    0  0.32983864620E+02  0.40936011179E+01  0.15845673931E+02  0.36820894580E+02  0.00000000000E+00 0. -1.
         11    1    4    4    0    0 -0.11636033784E+02 -0.79150700148E+01 -0.10573728521E+02  0.17602538188E+02  0.51100000000E-03 0. -1.
        -11    1    4    4    0    0 -0.32734693166E+00 -0.10213499145E+02 -0.52516879187E+01  0.11489253547E+02  0.51100000000E-03 0.  1.
         12    1    4    4    0    0 -0.21020483904E+02  0.14034968042E+02 -0.20257491170E-01  0.25275313685E+02  0.00000000000E+00 0. -1.
</event>
<event>
 8    1  0.2504019E-006  0.9118800E+02  0.7816164E-02  0.1184000E+00
        -11   -1    0    0    0    0  0.00000000000E+00  0.00000000000E+00  0.45593999997E+02  0.45594000000E+02  0.51100000000E-03 0.  1.
         11   -1    0    0    0    0 -0.00000000000E+00 -0.00000000000E+00 -0.45593999997E+02  0.45594000000E+02  0.51100000000E-03 0. -1.
         23    2    1    2    0    0 -0.35527136788E-14  0.88817841970E-15  0.00000000000E+00  0.91188000000E+02  0.91188000000E+02 0.  0.
    9900012    2    3    3    0    0  0.31012748968E+02  0.34433213365E+00  0.19846284983E+02  0.54367025124E+02  0.39999865376E+02 0.  0.
         12    1    3    3    0    0 -0.31012748968E+02 -0.34433213365E+00 -0.19846284983E+02  0.36820974876E+02  0.00000000000E+00 0. -1.
         11    1    4    4    0    0  0.80592906147E+01  0.58497321581E+01  0.34664533091E+00  0.99645218039E+01  0.51100000000E-03 0. -1.
        -11    1    4    4    0    0  0.28835203050E+02 -0.10597037777E+02  0.10406082710E+02  0.32435361910E+02  0.51100000000E-03 0.  1.
        -12    1    4    4    0    0 -0.58817446973E+01  0.50916377523E+01  0.90935569420E+01  0.11967141411E+02  0.00000000000E+00 0.  1.
</event>
<event>
 8    1  0.2504019E-006  0.9118800E+02  0.7816164E-02  0.1184000E+00
        -11   -1    0    0    0    0  0.00000000000E+00  0.00000000000E+00  0.45593999997E+02  0.45594000000E+02  0.51100000000E-03 0.  1.
         11   -1    0    0    0    0 -0.00000000000E+00 -0.00000000000E+00 -0.45593999997E+02  0.45594000000E+02  0.51100000000E-03 0. -1.
         23    2    1    2    0    0  0.00000000000E+00  0.00000000000E+00  0.17763568394E-14  0.91188000000E+02  0.91188000000E+02 0.  0.
    9900012    2    3    3    0    0  0.11367105639E+02  0.33417969104E+02  0.10478939488E+02  0.54367083085E+02  0.39999997509E+02 0.  0.
         12    1    3    3    0    0 -0.11367105639E+02 -0.33417969104E+02 -0.10478939488E+02  0.36820916915E+02  0.00000000000E+00 0. -1.
         11    1    4    4    0    0  0.91515583690E+00 -0.43240286713E+01  0.63609960290E+01  0.77457733570E+01  0.51100000000E-03 0. -1.
        -11    1    4    4    0    0  0.17927844865E+02  0.23282020374E+02 -0.14412458710E+01  0.29420015026E+02  0.51100000000E-03 0.  1.
        -12    1    4    4    0    0 -0.74758950623E+01  0.14459977401E+02  0.55591893301E+01  0.17201294702E+02  0.00000000000E+00 0.  1.
</event>
<event>
 8    1  0.2504019E-006  0.9118800E+02  0.7816164E-02  0.1184000E+00
        -11   -1    0    0    0    0  0.00000000000E+00  0.00000000000E+00  0.45593999997E+02  0.45594000000E+02  0.51100000000E-03 0.  1.
         11   -1    0    0    0    0 -0.00000000000E+00 -0.00000000000E+00 -0.45593999997E+02  0.45594000000E+02  0.51100000000E-03 0. -1.
         23    2    1    2    0    0  0.35527136788E-14  0.35527136788E-14 -0.35527136788E-14  0.91188000000E+02  0.91188000000E+02 0.  0.
    9900012    2    3    3    0    0 -0.20509577243E+02  0.24264962596E+02  0.18610452006E+02  0.54367080778E+02  0.39999992250E+02 0.  0.
         12    1    3    3    0    0  0.20509577243E+02 -0.24264962596E+02 -0.18610452006E+02  0.36820919222E+02  0.00000000000E+00 0. -1.
         11    1    4    4    0    0 -0.96025232977E+01  0.12936364092E+02 -0.83401707838E+01  0.18141566045E+02  0.51100000000E-03 0.  1.
        -11    1    4    4    0    0 -0.37818662795E+01  0.22414112811E+01 -0.21673241397E+01  0.49014009502E+01  0.51100000000E-03 0. -1.
        -12    1    4    4    0    0 -0.71251876662E+01  0.90871872228E+01  0.29117946930E+02  0.31324113783E+02  0.00000000000E+00 0.  1.
</event>
<event>
 8    1  0.2504019E-006  0.9118800E+02  0.7816164E-02  0.1184000E+00
        -11   -1    0    0    0    0  0.00000000000E+00  0.00000000000E+00  0.45593999997E+02  0.45594000000E+02  0.51100000000E-03 0.  1.
         11   -1    0    0    0    0 -0.00000000000E+00 -0.00000000000E+00 -0.45593999997E+02  0.45594000000E+02  0.51100000000E-03 0. -1.
         23    2    1    2    0    0 -0.35527136788E-14  0.35527136788E-14  0.00000000000E+00  0.91188000000E+02  0.91188000000E+02 0.  0.
    9900012    2    3    3    0    0 -0.20378090418E+02  0.22017802517E+02 -0.21347830490E+02  0.54367081171E+02  0.39999993146E+02 0.  0.
        -12    1    3    3    0    0  0.20378090418E+02 -0.22017802517E+02  0.21347830490E+02  0.36820918829E+02  0.00000000000E+00 0.  1.
         11    1    4    4    0    0  0.36875658219E+00  0.36562970604E+01 -0.25866092608E+01  0.44938888883E+01  0.51100000000E-03 0. -1.
        -11    1    4    4    0    0 -0.82635155506E+00  0.23515916822E+02 -0.25312112081E+01  0.23666183286E+02  0.51100000000E-03 0.  1.
         12    1    4    4    0    0 -0.19920495445E+02 -0.51544113655E+01 -0.16230010021E+02  0.26207008997E+02  0.00000000000E+00 0. -1.
</event>
<event>
 8    1  0.2504019E-006  0.9118800E+02  0.7816164E-02  0.1184000E+00
        -11   -1    0    0    0    0  0.00000000000E+00  0.00000000000E+00  0.45593999997E+02  0.45594000000E+02  0.51100000000E-03 0.  1.
         11   -1    0    0    0    0 -0.00000000000E+00 -0.00000000000E+00 -0.45593999997E+02  0.45594000000E+02  0.51100000000E-03 0. -1.
         23    2    1    2    0    0  0.00000000000E+00  0.00000000000E+00  0.00000000000E+00  0.91188000000E+02  0.91188000000E+02 0.  0.
    9900012    2    3    3    0    0  0.58270493314E+00  0.15952571087E+02 -0.33180647010E+02  0.54367090107E+02  0.40000013518E+02 0.  0.
        -12    1    3    3    0    0 -0.58270493314E+00 -0.15952571087E+02  0.33180647010E+02  0.36820909893E+02  0.00000000000E+00 0.  1.
         11    1    4    4    0    0  0.13924695172E+02  0.14446070412E+02 -0.25202898239E+02  0.32214471374E+02  0.51100000000E-03 0. -1.
        -11    1    4    4    0    0 -0.11856333751E+02 -0.14653296599E+01 -0.12001878595E+02  0.16934135086E+02  0.51100000000E-03 0.  1.
         12    1    4    4    0    0 -0.14856564873E+01  0.29718303349E+01  0.40241298242E+01  0.52184836476E+01  0.00000000000E+00 0. -1.
</event>
<event>
 8    1  0.2504019E-006  0.9118800E+02  0.7816164E-02  0.1184000E+00
        -11   -1    0    0    0    0  0.00000000000E+00  0.00000000000E+00  0.45593999997E+02  0.45594000000E+02  0.51100000000E-03 0.  1.
         11   -1    0    0    0    0 -0.00000000000E+00 -0.00000000000E+00 -0.45593999997E+02  0.45594000000E+02  0.51100000000E-03 0. -1.
         23    2    1    2    0    0  0.00000000000E+00  0.00000000000E+00  0.00000000000E+00  0.91188000000E+02  0.91188000000E+02 0.  0.
    9900012    2    3    3    0    0  0.18066696171E+02 -0.31494286536E+02 -0.61215293982E+01  0.54367235246E+02  0.40000344389E+02 0.  0.
         12    1    3    3    0    0 -0.18066696171E+02  0.31494286536E+02  0.61215293982E+01  0.36820764754E+02  0.00000000000E+00 0. -1.
         11    1    4    4    0    0  0.19637004910E+01 -0.59996168897E+01 -0.11351251215E+02  0.12988549836E+02  0.51100000000E-03 0. -1.
        -11    1    4    4    0    0  0.84041389334E+01 -0.20317544110E+02 -0.95152724844E+01  0.23957724445E+02  0.51100000000E-03 0.  1.
        -12    1    4    4    0    0  0.76988567462E+01 -0.51771255362E+01  0.14744994301E+02  0.17420960965E+02  0.00000000000E+00 0.  1.
</event>
<event>
 8    1  0.2504019E-006  0.9118800E+02  0.7816164E-02  0.1184000E+00
        -11   -1    0    0    0    0  0.00000000000E+00  0.00000000000E+00  0.45593999997E+02  0.45594000000E+02  0.51100000000E-03 0. -1.
         11   -1    0    0    0    0 -0.00000000000E+00 -0.00000000000E+00 -0.45593999997E+02  0.45594000000E+02  0.51100000000E-03 0.  1.
         23    2    1    2    0    0  0.00000000000E+00  0.00000000000E+00  0.00000000000E+00  0.91188000000E+02  0.91188000000E+02 0.  0.
    9900012    2    3    3    0    0  0.11439913834E+02 -0.57008424203E+01  0.34531259117E+02  0.54367094403E+02  0.40000023310E+02 0.  0.
        -12    1    3    3    0    0 -0.11439913834E+02  0.57008424203E+01 -0.34531259117E+02  0.36820905597E+02  0.00000000000E+00 0.  1.
         11    1    4    4    0    0  0.20971582534E+01  0.66611076199E+01  0.22040137854E+02  0.23120036859E+02  0.51100000000E-03 0. -1.
        -11    1    4    4    0    0 -0.40489914463E+01 -0.12861138255E+02  0.87419353569E+00  0.13511751313E+02  0.51100000000E-03 0.  1.
        -12    1    4    4    0    0  0.13391747027E+02  0.49918821442E+00  0.11616927727E+02  0.17735306231E+02  0.00000000000E+00 0.  1.
</event>
<event>
 8    1  0.2504019E-006  0.9118800E+02  0.7816164E-02  0.1184000E+00
        -11   -1    0    0    0    0  0.00000000000E+00  0.00000000000E+00  0.45593999997E+02  0.45594000000E+02  0.51100000000E-03 0. -1.
         11   -1    0    0    0    0 -0.00000000000E+00 -0.00000000000E+00 -0.45593999997E+02  0.45594000000E+02  0.51100000000E-03 0.  1.
         23    2    1    2    0    0  0.00000000000E+00  0.00000000000E+00  0.88817841970E-15  0.91188000000E+02  0.91188000000E+02 0.  0.
    9900012    2    3    3    0    0 -0.78158123884E+01  0.35248590507E+02 -0.72266847776E+01  0.54367149536E+02  0.40000148997E+02 0.  0.
         12    1    3    3    0    0  0.78158123884E+01 -0.35248590507E+02  0.72266847776E+01  0.36820850464E+02  0.00000000000E+00 0. -1.
         11    1    4    4    0    0 -0.12661763060E+02  0.18338105595E+02 -0.10442465737E+02  0.24609986825E+02  0.51100000000E-03 0. -1.
        -11    1    4    4    0    0 -0.66154431575E+01  0.15762801391E+01 -0.54768941483E+01  0.87318449952E+01  0.51100000000E-03 0.  1.
         12    1    4    4    0    0  0.11461393829E+02  0.15334204773E+02  0.86926751080E+01  0.21025317716E+02  0.00000000000E+00 0. -1.
</event>
<event>
 8    1  0.2504019E-006  0.9118800E+02  0.7816164E-02  0.1184000E+00
        -11   -1    0    0    0    0  0.00000000000E+00  0.00000000000E+00  0.45593999997E+02  0.45594000000E+02  0.51100000000E-03 0. -1.
         11   -1    0    0    0    0 -0.00000000000E+00 -0.00000000000E+00 -0.45593999997E+02  0.45594000000E+02  0.51100000000E-03 0.  1.
         23    2    1    2    0    0  0.00000000000E+00  0.00000000000E+00  0.00000000000E+00  0.91188000000E+02  0.91188000000E+02 0.  0.
    9900012    2    3    3    0    0 -0.21344452261E+02  0.21869029164E+02  0.20541158265E+02  0.54367092057E+02  0.40000017962E+02 0.  0.
         12    1    3    3    0    0  0.21344452261E+02 -0.21869029164E+02 -0.20541158265E+02  0.36820907943E+02  0.00000000000E+00 0. -1.
         11    1    4    4    0    0 -0.48248570905E+01 -0.93585501407E-01  0.10932234844E+02  0.11949969169E+02  0.51100000000E-03 0. -1.
        -11    1    4    4    0    0 -0.20649687454E+02  0.26888098242E+01  0.90291713268E+01  0.22697251493E+02  0.51100000000E-03 0.  1.
         12    1    4    4    0    0  0.41300922838E+01  0.19273804841E+02  0.57975209360E+00  0.19719871395E+02  0.00000000000E+00 0. -1.
</event>
<event>
 8    1  0.2504019E-006  0.9118800E+02  0.7816164E-02  0.1184000E+00
        -11   -1    0    0    0    0  0.00000000000E+00  0.00000000000E+00  0.45593999997E+02  0.45594000000E+02  0.51100000000E-03 0.  1.
         11   -1    0    0    0    0 -0.00000000000E+00 -0.00000000000E+00 -0.45593999997E+02  0.45594000000E+02  0.51100000000E-03 0. -1.
         23    2    1    2    0    0  0.88817841970E-15  0.17763568394E-14 -0.71054273576E-14  0.91188000000E+02  0.91188000000E+02 0.  0.
    9900012    2    3    3    0    0  0.75426868105E+01 -0.12281284373E+02  0.33882996353E+02  0.54367088658E+02  0.40000010215E+02 0.  0.
         12    1    3    3    0    0 -0.75426868105E+01  0.12281284373E+02 -0.33882996353E+02  0.36820911342E+02  0.00000000000E+00 0. -1.
         11    1    4    4    0    0 -0.57209207002E+01 -0.13527277545E+00  0.26070201280E+01  0.62883850543E+01  0.51100000000E-03 0. -1.
        -11    1    4    4    0    0 -0.82460073990E+01 -0.11278886648E+02  0.18003344502E+02  0.22788820408E+02  0.51100000000E-03 0.  1.
         12    1    4    4    0    0  0.21509614910E+02 -0.86712494960E+00  0.13272631723E+02  0.25289883196E+02  0.00000000000E+00 0. -1.
</event>
<event>
 8    1  0.2504019E-006  0.9118800E+02  0.7816164E-02  0.1184000E+00
        -11   -1    0    0    0    0  0.00000000000E+00  0.00000000000E+00  0.45593999997E+02  0.45594000000E+02  0.51100000000E-03 0.  1.
         11   -1    0    0    0    0 -0.00000000000E+00 -0.00000000000E+00 -0.45593999997E+02  0.45594000000E+02  0.51100000000E-03 0. -1.
         23    2    1    2    0    0 -0.35527136788E-14 -0.35527136788E-14  0.00000000000E+00  0.91188000000E+02  0.91188000000E+02 0.  0.
    9900012    2    3    3    0    0 -0.18284511188E+02 -0.26413321105E+02  0.17994253518E+02  0.54367081477E+02  0.39999993844E+02 0.  0.
        -12    1    3    3    0    0  0.18284511188E+02  0.26413321105E+02 -0.17994253518E+02  0.36820918523E+02  0.00000000000E+00 0.  1.
         11    1    4    4    0    0 -0.33700071039E+01 -0.20895364207E+02 -0.21044988487E+00  0.21166423473E+02  0.51100000000E-03 0. -1.
        -11    1    4    4    0    0  0.26702850593E+00  0.21865175150E+01  0.15863620245E+02  0.16015823756E+02  0.51100000000E-03 0.  1.
        -12    1    4    4    0    0 -0.15181532590E+02 -0.77044744132E+01  0.23410831579E+01  0.17184834248E+02  0.00000000000E+00 0.  1.
</event>
<event>
 8    1  0.2504019E-006  0.9118800E+02  0.7816164E-02  0.1184000E+00
        -11   -1    0    0    0    0  0.00000000000E+00  0.00000000000E+00  0.45593999997E+02  0.45594000000E+02  0.51100000000E-03 0. -1.
         11   -1    0    0    0    0 -0.00000000000E+00 -0.00000000000E+00 -0.45593999997E+02  0.45594000000E+02  0.51100000000E-03 0.  1.
         23    2    1    2    0    0  0.00000000000E+00 -0.88817841970E-15 -0.17763568394E-14  0.91188000000E+02  0.91188000000E+02 0.  0.
    9900012    2    3    3    0    0  0.34056449775E+02  0.63163784848E+01  0.12491640355E+02  0.54367088995E+02  0.40000010983E+02 0.  0.
        -12    1    3    3    0    0 -0.34056449775E+02 -0.63163784848E+01 -0.12491640355E+02  0.36820911005E+02  0.00000000000E+00 0.  1.
         11    1    4    4    0    0  0.18313429805E+02 -0.69792179332E+01 -0.10433798953E+02  0.22202597934E+02  0.51100000000E-03 0. -1.
        -11    1    4    4    0    0  0.28085901947E+01  0.68697108073E+01  0.42379888083E+01  0.85464410639E+01  0.51100000000E-03 0.  1.
         12    1    4    4    0    0  0.12934429776E+02  0.64258856106E+01  0.18687450500E+02  0.23618049997E+02  0.00000000000E+00 0. -1.
</event>
<event>
 8    1  0.2504019E-006  0.9118800E+02  0.7816164E-02  0.1184000E+00
        -11   -1    0    0    0    0  0.00000000000E+00  0.00000000000E+00  0.45593999997E+02  0.45594000000E+02  0.51100000000E-03 0.  1.
         11   -1    0    0    0    0 -0.00000000000E+00 -0.00000000000E+00 -0.45593999997E+02  0.45594000000E+02  0.51100000000E-03 0. -1.
         23    2    1    2    0    0  0.00000000000E+00  0.00000000000E+00  0.00000000000E+00  0.91188000000E+02  0.91188000000E+02 0.  0.
    9900012    2    3    3    0    0 -0.15621954396E+02  0.23600071419E+02  0.23553568945E+02  0.54367089634E+02  0.40000012439E+02 0.  0.
         12    1    3    3    0    0  0.15621954396E+02 -0.23600071419E+02 -0.23553568945E+02  0.36820910366E+02  0.00000000000E+00 0. -1.
         11    1    4    4    0    0  0.52373032382E+01  0.33906393255E+01 -0.13173620171E+01  0.63766153396E+01  0.51100000000E-03 0. -1.
        -11    1    4    4    0    0 -0.20059523736E+02  0.27315716387E+02  0.20367126691E+02  0.39539255230E+02  0.51100000000E-03 0.  1.
        -12    1    4    4    0    0 -0.79973389795E+00 -0.71062842933E+01  0.45038042705E+01  0.84512190642E+01  0.00000000000E+00 0.  1.
</event>
<event>
 8    1  0.2504019E-006  0.9118800E+02  0.7816164E-02  0.1184000E+00
        -11   -1    0    0    0    0  0.00000000000E+00  0.00000000000E+00  0.45593999997E+02  0.45594000000E+02  0.51100000000E-03 0.  1.
         11   -1    0    0    0    0 -0.00000000000E+00 -0.00000000000E+00 -0.45593999997E+02  0.45594000000E+02  0.51100000000E-03 0. -1.
         23    2    1    2    0    0  0.00000000000E+00  0.00000000000E+00 -0.35527136788E-14  0.91188000000E+02  0.91188000000E+02 0.  0.
    9900012    2    3    3    0    0 -0.14929498480E+02 -0.14184195347E+02  0.30523664359E+02  0.54367144383E+02  0.40000137249E+02 0.  0.
         12    1    3    3    0    0  0.14929498480E+02  0.14184195347E+02 -0.30523664359E+02  0.36820855617E+02  0.00000000000E+00 0. -1.
         11    1    4    4    0    0 -0.11076279054E+02 -0.30529876287E+01  0.12812319822E+02  0.17209306513E+02  0.51100000000E-03 0. -1.
        -11    1    4    4    0    0 -0.12420145084E+02 -0.17808856038E+02  0.10481409267E+02  0.24109651548E+02  0.51100000000E-03 0.  1.
         12    1    4    4    0    0  0.85669256586E+01  0.66776483189E+01  0.72299352688E+01  0.13048186322E+02  0.00000000000E+00 0. -1.
</event>
<event>
 8    1  0.2504019E-006  0.9118800E+02  0.7816164E-02  0.1184000E+00
        -11   -1    0    0    0    0  0.00000000000E+00  0.00000000000E+00  0.45593999997E+02  0.45594000000E+02  0.51100000000E-03 0.  1.
         11   -1    0    0    0    0 -0.00000000000E+00 -0.00000000000E+00 -0.45593999997E+02  0.45594000000E+02  0.51100000000E-03 0. -1.
         23    2    1    2    0    0  0.00000000000E+00  0.00000000000E+00  0.00000000000E+00  0.91188000000E+02  0.91188000000E+02 0.  0.
    9900012    2    3    3    0    0 -0.18681774889E+02 -0.11827021557E+02  0.29443061388E+02  0.54367068238E+02  0.39999963662E+02 0.  0.
        -12    1    3    3    0    0  0.18681774889E+02  0.11827021557E+02 -0.29443061388E+02  0.36820931762E+02  0.00000000000E+00 0.  1.
         11    1    4    4    0    0 -0.39388441127E+01 -0.67846191374E+01 -0.34353155981E+01  0.85642830000E+01  0.51100000000E-03 0. -1.
        -11    1    4    4    0    0 -0.34866543608E+01 -0.10801012049E+02  0.31009882687E+02  0.33021681430E+02  0.51100000000E-03 0.  1.
         12    1    4    4    0    0 -0.11256276415E+02  0.57586096299E+01  0.18684942997E+01  0.12781103808E+02  0.00000000000E+00 0. -1.
</event>
<event>
 8    1  0.2504019E-006  0.9118800E+02  0.7816164E-02  0.1184000E+00
        -11   -1    0    0    0    0  0.00000000000E+00  0.00000000000E+00  0.45593999997E+02  0.45594000000E+02  0.51100000000E-03 0.  1.
         11   -1    0    0    0    0 -0.00000000000E+00 -0.00000000000E+00 -0.45593999997E+02  0.45594000000E+02  0.51100000000E-03 0. -1.
         23    2    1    2    0    0  0.17763568394E-14  0.00000000000E+00  0.35527136788E-14  0.91188000000E+02  0.91188000000E+02 0.  0.
    9900012    2    3    3    0    0  0.82917732290E+01  0.17589770911E+02  0.31266991789E+02  0.54367104852E+02  0.40000047132E+02 0.  0.
         12    1    3    3    0    0 -0.82917732290E+01 -0.17589770911E+02 -0.31266991789E+02  0.36820895148E+02  0.00000000000E+00 0. -1.
         11    1    4    4    0    0  0.85702762903E+01  0.19915358579E+02  0.30018472213E+02  0.37029445274E+02  0.51100000000E-03 0.  1.
        -11    1    4    4    0    0 -0.63009093277E+01  0.28650798713E+00  0.64056008229E+01  0.89897312166E+01  0.51100000000E-03 0. -1.
         12    1    4    4    0    0  0.60224062664E+01 -0.26120956554E+01 -0.51570812469E+01  0.83479283620E+01  0.00000000000E+00 0. -1.
</event>
<event>
 8    1  0.2504019E-006  0.9118800E+02  0.7816164E-02  0.1184000E+00
        -11   -1    0    0    0    0  0.00000000000E+00  0.00000000000E+00  0.45593999997E+02  0.45594000000E+02  0.51100000000E-03 0.  1.
         11   -1    0    0    0    0 -0.00000000000E+00 -0.00000000000E+00 -0.45593999997E+02  0.45594000000E+02  0.51100000000E-03 0. -1.
         23    2    1    2    0    0  0.00000000000E+00 -0.35527136788E-14  0.00000000000E+00  0.91188000000E+02  0.91188000000E+02 0.  0.
    9900012    2    3    3    0    0  0.85178121275E+01  0.27641199408E+02  0.22785704610E+02  0.54367117844E+02  0.40000076749E+02 0.  0.
         12    1    3    3    0    0 -0.85178121275E+01 -0.27641199408E+02 -0.22785704610E+02  0.36820882156E+02  0.00000000000E+00 0. -1.
         11    1    4    4    0    0  0.19094569356E+02  0.19480297261E+02  0.29918825087E+01  0.27441499986E+02  0.51100000000E-03 0.  1.
        -11    1    4    4    0    0 -0.85872916694E+01  0.48777260161E-01  0.50006853301E+01  0.99373442865E+01  0.51100000000E-03 0. -1.
        -12    1    4    4    0    0 -0.19894655593E+01  0.81121248873E+01  0.14793136772E+02  0.16988273571E+02  0.00000000000E+00 0.  1.
</event>
<event>
 8    1  0.2504019E-006  0.9118800E+02  0.7816164E-02  0.1184000E+00
        -11   -1    0    0    0    0  0.00000000000E+00  0.00000000000E+00  0.45593999997E+02  0.45594000000E+02  0.51100000000E-03 0.  1.
         11   -1    0    0    0    0 -0.00000000000E+00 -0.00000000000E+00 -0.45593999997E+02  0.45594000000E+02  0.51100000000E-03 0. -1.
         23    2    1    2    0    0  0.35527136788E-14  0.00000000000E+00 -0.44408920985E-15  0.91188000000E+02  0.91188000000E+02 0.  0.
    9900012    2    3    3    0    0 -0.20104450305E+02  0.30666974606E+02  0.33361335756E+01  0.54367054319E+02  0.39999931932E+02 0.  0.
        -12    1    3    3    0    0  0.20104450305E+02 -0.30666974606E+02 -0.33361335756E+01  0.36820945681E+02  0.00000000000E+00 0.  1.
         11    1    4    4    0    0 -0.13712424304E+02  0.17040976693E+02 -0.54184368719E+01  0.22534083637E+02  0.51100000000E-03 0. -1.
        -11    1    4    4    0    0 -0.92303545859E+01  0.19288476593E+02  0.44929556711E+00  0.21388002287E+02  0.51100000000E-03 0.  1.
        -12    1    4    4    0    0  0.28383285847E+01 -0.56624786797E+01  0.83052748804E+01  0.10444968396E+02  0.00000000000E+00 0.  1.
</event>
<event>
 8    1  0.2504019E-006  0.9118800E+02  0.7816164E-02  0.1184000E+00
        -11   -1    0    0    0    0  0.00000000000E+00  0.00000000000E+00  0.45593999997E+02  0.45594000000E+02  0.51100000000E-03 0. -1.
         11   -1    0    0    0    0 -0.00000000000E+00 -0.00000000000E+00 -0.45593999997E+02  0.45594000000E+02  0.51100000000E-03 0.  1.
         23    2    1    2    0    0 -0.71054273576E-14 -0.13322676296E-14 -0.17763568394E-14  0.91188000000E+02  0.91188000000E+02 0.  0.
    9900012    2    3    3    0    0 -0.33476578317E+02 -0.18593837708E+01  0.15219773657E+02  0.54367080484E+02  0.39999991579E+02 0.  0.
        -12    1    3    3    0    0  0.33476578317E+02  0.18593837708E+01 -0.15219773657E+02  0.36820919516E+02  0.00000000000E+00 0.  1.
         11    1    4    4    0    0  0.52244231662E+01 -0.12320537625E+01  0.40796098350E+01  0.67420894803E+01  0.51100000000E-03 0. -1.
        -11    1    4    4    0    0 -0.43669685273E+01 -0.97928595143E+01  0.17023221402E+01  0.10856721997E+02  0.51100000000E-03 0.  1.
         12    1    4    4    0    0 -0.34334032956E+02  0.91655295060E+01  0.94378416822E+01  0.36768269007E+02  0.00000000000E+00 0. -1.
</event>
<event>
 8    1  0.2504019E-006  0.9118800E+02  0.7816164E-02  0.1184000E+00
        -11   -1    0    0    0    0  0.00000000000E+00  0.00000000000E+00  0.45593999997E+02  0.45594000000E+02  0.51100000000E-03 0. -1.
         11   -1    0    0    0    0 -0.00000000000E+00 -0.00000000000E+00 -0.45593999997E+02  0.45594000000E+02  0.51100000000E-03 0.  1.
         23    2    1    2    0    0  0.35527136788E-14  0.88817841970E-15  0.00000000000E+00  0.91188000000E+02  0.91188000000E+02 0.  0.
    9900012    2    3    3    0    0 -0.21491366837E+02  0.13737850509E+01 -0.29866575362E+02  0.54367102975E+02  0.40000042851E+02 0.  0.
         12    1    3    3    0    0  0.21491366837E+02 -0.13737850509E+01  0.29866575362E+02  0.36820897025E+02  0.00000000000E+00 0. -1.
         11    1    4    4    0    0  0.34901020754E+01 -0.73704978296E+01 -0.23734481320E+01  0.84934272852E+01  0.51100000000E-03 0. -1.
        -11    1    4    4    0    0  0.48673501931E+01  0.39529706573E+01 -0.29271976400E+01  0.69199393931E+01  0.51100000000E-03 0.  1.
         12    1    4    4    0    0 -0.29848819105E+02  0.47913122233E+01 -0.24565929590E+02  0.38953736296E+02  0.00000000000E+00 0. -1.
</event>
<event>
 8    1  0.2504019E-006  0.9118800E+02  0.7816164E-02  0.1184000E+00
        -11   -1    0    0    0    0  0.00000000000E+00  0.00000000000E+00  0.45593999997E+02  0.45594000000E+02  0.51100000000E-03 0. -1.
         11   -1    0    0    0    0 -0.00000000000E+00 -0.00000000000E+00 -0.45593999997E+02  0.45594000000E+02  0.51100000000E-03 0.  1.
         23    2    1    2    0    0 -0.35527136788E-14  0.00000000000E+00 -0.35527136788E-14  0.91188000000E+02  0.91188000000E+02 0.  0.
    9900012    2    3    3    0    0 -0.17559123177E+02 -0.17272502835E+02 -0.27370013929E+02  0.54367084430E+02  0.40000000576E+02 0.  0.
         12    1    3    3    0    0  0.17559123177E+02  0.17272502835E+02  0.27370013929E+02  0.36820915570E+02  0.00000000000E+00 0. -1.
         11    1    4    4    0    0  0.53457578420E+01 -0.21457980602E+02 -0.12849167555E+02  0.25575831669E+02  0.51100000000E-03 0.  1.
        -11    1    4    4    0    0 -0.26807635951E+01  0.11526149264E+01 -0.59314604553E+01  0.66103886433E+01  0.51100000000E-03 0. -1.
        -12    1    4    4    0    0 -0.20224117424E+02  0.30328628407E+01 -0.85893859185E+01  0.22180864118E+02  0.00000000000E+00 0.  1.
</event>
<event>
 8    1  0.2504019E-006  0.9118800E+02  0.7816164E-02  0.1184000E+00
        -11   -1    0    0    0    0  0.00000000000E+00  0.00000000000E+00  0.45593999997E+02  0.45594000000E+02  0.51100000000E-03 0.  1.
         11   -1    0    0    0    0 -0.00000000000E+00 -0.00000000000E+00 -0.45593999997E+02  0.45594000000E+02  0.51100000000E-03 0. -1.
         23    2    1    2    0    0 -0.17763568394E-14 -0.17763568394E-14  0.71054273576E-14  0.91188000000E+02  0.91188000000E+02 0.  0.
    9900012    2    3    3    0    0  0.12879710098E+02  0.84793240126E+01 -0.33436424671E+02  0.54367077107E+02  0.39999983880E+02 0.  0.
        -12    1    3    3    0    0 -0.12879710098E+02 -0.84793240126E+01  0.33436424671E+02  0.36820922893E+02  0.00000000000E+00 0.  1.
         11    1    4    4    0    0 -0.91417458090E+01 -0.68037539683E+00 -0.11702720683E+02  0.14865668460E+02  0.51100000000E-03 0. -1.
        -11    1    4    4    0    0  0.39665990196E+01 -0.67485053639E+01 -0.10085756747E+02  0.12767095279E+02  0.51100000000E-03 0.  1.
        -12    1    4    4    0    0  0.18054856888E+02  0.15908204773E+02 -0.11647947241E+02  0.26734313368E+02  0.00000000000E+00 0.  1.
</event>
<event>
 8    1  0.2504019E-006  0.9118800E+02  0.7816164E-02  0.1184000E+00
        -11   -1    0    0    0    0  0.00000000000E+00  0.00000000000E+00  0.45593999997E+02  0.45594000000E+02  0.51100000000E-03 0. -1.
         11   -1    0    0    0    0 -0.00000000000E+00 -0.00000000000E+00 -0.45593999997E+02  0.45594000000E+02  0.51100000000E-03 0.  1.
         23    2    1    2    0    0 -0.35527136788E-14  0.00000000000E+00  0.88817841970E-15  0.91188000000E+02  0.91188000000E+02 0.  0.
    9900012    2    3    3    0    0  0.21689007647E+02  0.29346591760E+02 -0.49137362452E+01  0.54367077897E+02  0.39999985682E+02 0.  0.
        -12    1    3    3    0    0 -0.21689007647E+02 -0.29346591760E+02  0.49137362452E+01  0.36820922103E+02  0.00000000000E+00 0.  1.
         11    1    4    4    0    0  0.12399184203E+02  0.73521493689E+01 -0.14376736189E+02  0.20358890268E+02  0.51100000000E-03 0. -1.
        -11    1    4    4    0    0  0.52912537676E+01  0.25763137925E+02  0.46606489016E+01  0.26710640026E+02  0.51100000000E-03 0.  1.
        -12    1    4    4    0    0  0.39985696765E+01 -0.37686955338E+01  0.48023510418E+01  0.72975476027E+01  0.00000000000E+00 0.  1.
</event>
<event>
 8    1  0.2504019E-006  0.9118800E+02  0.7816164E-02  0.1184000E+00
        -11   -1    0    0    0    0  0.00000000000E+00  0.00000000000E+00  0.45593999997E+02  0.45594000000E+02  0.51100000000E-03 0.  1.
         11   -1    0    0    0    0 -0.00000000000E+00 -0.00000000000E+00 -0.45593999997E+02  0.45594000000E+02  0.51100000000E-03 0. -1.
         23    2    1    2    0    0  0.00000000000E+00  0.00000000000E+00  0.00000000000E+00  0.91188000000E+02  0.91188000000E+02 0.  0.
    9900012    2    3    3    0    0 -0.20517724959E+02 -0.15106711401E+02  0.26581750942E+02  0.54367092216E+02  0.40000018325E+02 0.  0.
         12    1    3    3    0    0  0.20517724959E+02  0.15106711401E+02 -0.26581750942E+02  0.36820907784E+02  0.00000000000E+00 0. -1.
         11    1    4    4    0    0  0.19424456478E+01  0.82123917973E+01  0.11688365469E+01  0.85195453670E+01  0.51100000000E-03 0. -1.
        -11    1    4    4    0    0  0.28959772552E+01 -0.12651476309E+01  0.66413401856E+01  0.73549087358E+01  0.51100000000E-03 0.  1.
        -12    1    4    4    0    0 -0.25356147862E+02 -0.22053955568E+02  0.18771574210E+02  0.38492638113E+02  0.00000000000E+00 0.  1.
</event>
<event>
 8    1  0.2504019E-006  0.9118800E+02  0.7816164E-02  0.1184000E+00
        -11   -1    0    0    0    0  0.00000000000E+00  0.00000000000E+00  0.45593999997E+02  0.45594000000E+02  0.51100000000E-03 0. -1.
         11   -1    0    0    0    0 -0.00000000000E+00 -0.00000000000E+00 -0.45593999997E+02  0.45594000000E+02  0.51100000000E-03 0.  1.
         23    2    1    2    0    0  0.00000000000E+00  0.00000000000E+00 -0.44408920985E-15  0.91188000000E+02  0.91188000000E+02 0.  0.
    9900012    2    3    3    0    0  0.16312713837E+02 -0.32833944836E+02  0.34070263254E+01  0.54367076673E+02  0.39999982892E+02 0.  0.
         12    1    3    3    0    0 -0.16312713837E+02  0.32833944836E+02 -0.34070263254E+01  0.36820923327E+02  0.00000000000E+00 0. -1.
         11    1    4    4    0    0  0.19683919176E+01 -0.41781892477E+01 -0.88902530381E+01  0.10018404637E+02  0.51100000000E-03 0. -1.
        -11    1    4    4    0    0  0.18391762436E+02 -0.19635343912E+02 -0.19866487836E+01  0.26976849885E+02  0.51100000000E-03 0.  1.
         12    1    4    4    0    0 -0.40474405166E+01 -0.90204116761E+01  0.14283928147E+02  0.17371822151E+02  0.00000000000E+00 0. -1.
</event>
<event>
 8    1  0.2504019E-006  0.9118800E+02  0.7816164E-02  0.1184000E+00
        -11   -1    0    0    0    0  0.00000000000E+00  0.00000000000E+00  0.45593999997E+02  0.45594000000E+02  0.51100000000E-03 0.  1.
         11   -1    0    0    0    0 -0.00000000000E+00 -0.00000000000E+00 -0.45593999997E+02  0.45594000000E+02  0.51100000000E-03 0. -1.
         23    2    1    2    0    0  0.00000000000E+00  0.00000000000E+00  0.00000000000E+00  0.91188000000E+02  0.91188000000E+02 0.  0.
    9900012    2    3    3    0    0 -0.78572086410E+01 -0.27073318447E+02  0.23687125074E+02  0.54367079402E+02  0.39999989113E+02 0.  0.
         12    1    3    3    0    0  0.78572086410E+01  0.27073318447E+02 -0.23687125074E+02  0.36820920598E+02  0.00000000000E+00 0. -1.
         11    1    4    4    0    0  0.10569040742E+01 -0.11768078169E+02  0.82985285336E+01  0.14438500133E+02  0.51100000000E-03 0. -1.
        -11    1    4    4    0    0 -0.73279285845E+01 -0.16280650635E+02  0.24675318849E+02  0.30457010408E+02  0.51100000000E-03 0.  1.
        -12    1    4    4    0    0 -0.15861841307E+01  0.97541035621E+00 -0.92867223082E+01  0.94715688610E+01  0.00000000000E+00 0.  1.
</event>
<event>
 8    1  0.2504019E-006  0.9118800E+02  0.7816164E-02  0.1184000E+00
        -11   -1    0    0    0    0  0.00000000000E+00  0.00000000000E+00  0.45593999997E+02  0.45594000000E+02  0.51100000000E-03 0.  1.
         11   -1    0    0    0    0 -0.00000000000E+00 -0.00000000000E+00 -0.45593999997E+02  0.45594000000E+02  0.51100000000E-03 0. -1.
         23    2    1    2    0    0  0.00000000000E+00  0.00000000000E+00  0.00000000000E+00  0.91188000000E+02  0.91188000000E+02 0.  0.
    9900012    2    3    3    0    0  0.26234984650E+02  0.40569538105E+01  0.25515600575E+02  0.54367093350E+02  0.40000020911E+02 0.  0.
         12    1    3    3    0    0 -0.26234984650E+02 -0.40569538105E+01 -0.25515600575E+02  0.36820906650E+02  0.00000000000E+00 0. -1.
         11    1    4    4    0    0 -0.70280565382E+01  0.23276178957E+01 -0.30358077885E+01  0.80017193754E+01  0.51100000000E-03 0. -1.
        -11    1    4    4    0    0  0.27515150390E+02  0.62911968102E+01  0.17871461256E+02  0.33407361254E+02  0.51100000000E-03 0.  1.
         12    1    4    4    0    0  0.57478907986E+01 -0.45618608954E+01  0.10679947107E+02  0.12958012721E+02  0.00000000000E+00 0. -1.
</event>
<event>
 8    1  0.2504019E-006  0.9118800E+02  0.7816164E-02  0.1184000E+00
        -11   -1    0    0    0    0  0.00000000000E+00  0.00000000000E+00  0.45593999997E+02  0.45594000000E+02  0.51100000000E-03 0.  1.
         11   -1    0    0    0    0 -0.00000000000E+00 -0.00000000000E+00 -0.45593999997E+02  0.45594000000E+02  0.51100000000E-03 0. -1.
         23    2    1    2    0    0  0.00000000000E+00  0.26645352591E-14 -0.35527136788E-14  0.91188000000E+02  0.91188000000E+02 0.  0.
    9900012    2    3    3    0    0 -0.29240522762E+02 -0.44449244941E+01 -0.21932040101E+02  0.54367083279E+02  0.39999997952E+02 0.  0.
        -12    1    3    3    0    0  0.29240522762E+02  0.44449244941E+01  0.21932040101E+02  0.36820916721E+02  0.00000000000E+00 0.  1.
         11    1    4    4    0    0 -0.17800131424E+01 -0.14567068371E+02 -0.85327720617E+01  0.16975751148E+02  0.51100000000E-03 0. -1.
        -11    1    4    4    0    0 -0.96379170471E+00  0.62169752631E+00  0.40929051324E+01  0.42505617215E+01  0.51100000000E-03 0.  1.
         12    1    4    4    0    0 -0.26496717915E+02  0.95004463504E+01 -0.17492173171E+02  0.33140770410E+02  0.00000000000E+00 0. -1.
</event>
<event>
 8    1  0.2504019E-006  0.9118800E+02  0.7816164E-02  0.1184000E+00
        -11   -1    0    0    0    0  0.00000000000E+00  0.00000000000E+00  0.45593999997E+02  0.45594000000E+02  0.51100000000E-03 0. -1.
         11   -1    0    0    0    0 -0.00000000000E+00 -0.00000000000E+00 -0.45593999997E+02  0.45594000000E+02  0.51100000000E-03 0.  1.
         23    2    1    2    0    0  0.17763568394E-14 -0.17763568394E-14  0.00000000000E+00  0.91188000000E+02  0.91188000000E+02 0.  0.
    9900012    2    3    3    0    0 -0.12368161655E+02  0.96594588171E+01 -0.33309092078E+02  0.54367188189E+02  0.40000237113E+02 0.  0.
         12    1    3    3    0    0  0.12368161655E+02 -0.96594588171E+01  0.33309092078E+02  0.36820811811E+02  0.00000000000E+00 0. -1.
         11    1    4    4    0    0 -0.12218300866E+02  0.12583450294E+02 -0.19939847147E+02  0.26556121740E+02  0.51100000000E-03 0. -1.
        -11    1    4    4    0    0  0.75788014920E+01  0.77514972844E+01 -0.36624199367E+01  0.11442782103E+02  0.51100000000E-03 0.  1.
        -12    1    4    4    0    0 -0.77286622806E+01 -0.10675488761E+02 -0.97068249946E+01  0.16368284346E+02  0.00000000000E+00 0.  1.
</event>
<event>
 8    1  0.2504019E-006  0.9118800E+02  0.7816164E-02  0.1184000E+00
        -11   -1    0    0    0    0  0.00000000000E+00  0.00000000000E+00  0.45593999997E+02  0.45594000000E+02  0.51100000000E-03 0. -1.
         11   -1    0    0    0    0 -0.00000000000E+00 -0.00000000000E+00 -0.45593999997E+02  0.45594000000E+02  0.51100000000E-03 0.  1.
         23    2    1    2    0    0 -0.71054273576E-14  0.00000000000E+00 -0.35527136788E-14  0.91188000000E+02  0.91188000000E+02 0.  0.
    9900012    2    3    3    0    0  0.16397380942E+02  0.23881365615E+02  0.22728530727E+02  0.54367084281E+02  0.40000000235E+02 0.  0.
        -12    1    3    3    0    0 -0.16397380942E+02 -0.23881365615E+02 -0.22728530727E+02  0.36820915719E+02  0.00000000000E+00 0.  1.
         11    1    4    4    0    0  0.21180261901E+02  0.52467782587E+01  0.44383295845E+01  0.22267261755E+02  0.51100000000E-03 0. -1.
        -11    1    4    4    0    0 -0.10782109154E+02  0.85135214563E+01  0.57164961249E+01  0.14879927876E+02  0.51100000000E-03 0.  1.
        -12    1    4    4    0    0  0.59992281942E+01  0.10121065900E+02  0.12573705018E+02  0.17219894650E+02  0.00000000000E+00 0.  1.
</event>
<event>
 8    1  0.2504019E-006  0.9118800E+02  0.7816164E-02  0.1184000E+00
        -11   -1    0    0    0    0  0.00000000000E+00  0.00000000000E+00  0.45593999997E+02  0.45594000000E+02  0.51100000000E-03 0. -1.
         11   -1    0    0    0    0 -0.00000000000E+00 -0.00000000000E+00 -0.45593999997E+02  0.45594000000E+02  0.51100000000E-03 0.  1.
         23    2    1    2    0    0  0.00000000000E+00  0.00000000000E+00  0.00000000000E+00  0.91188000000E+02  0.91188000000E+02 0.  0.
    9900012    2    3    3    0    0  0.29790032979E+02  0.12290042132E+02 -0.17812459665E+02  0.54367151017E+02  0.40000152373E+02 0.  0.
         12    1    3    3    0    0 -0.29790032979E+02 -0.12290042132E+02  0.17812459665E+02  0.36820848983E+02  0.00000000000E+00 0. -1.
         11    1    4    4    0    0  0.53690199547E+01  0.32022498467E+01  0.11288537183E+02  0.12903947122E+02  0.51100000000E-03 0. -1.
        -11    1    4    4    0    0  0.25817740144E+02  0.73901858300E+01 -0.28553171753E+02  0.39197629650E+02  0.51100000000E-03 0.  1.
        -12    1    4    4    0    0 -0.13967271199E+01  0.16976064553E+01 -0.54782509532E+00  0.22655742450E+01  0.00000000000E+00 0.  1.
</event>
<event>
 8    1  0.2504019E-006  0.9118800E+02  0.7816164E-02  0.1184000E+00
        -11   -1    0    0    0    0  0.00000000000E+00  0.00000000000E+00  0.45593999997E+02  0.45594000000E+02  0.51100000000E-03 0.  1.
         11   -1    0    0    0    0 -0.00000000000E+00 -0.00000000000E+00 -0.45593999997E+02  0.45594000000E+02  0.51100000000E-03 0. -1.
         23    2    1    2    0    0  0.00000000000E+00 -0.35527136788E-14  0.35527136788E-14  0.91188000000E+02  0.91188000000E+02 0.  0.
    9900012    2    3    3    0    0 -0.14955472346E+02 -0.23570534191E+02  0.24011323172E+02  0.54367083721E+02  0.39999998958E+02 0.  0.
         12    1    3    3    0    0  0.14955472346E+02  0.23570534191E+02 -0.24011323172E+02  0.36820916279E+02  0.00000000000E+00 0. -1.
         11    1    4    4    0    0 -0.67695885676E+01  0.12141800286E+01 -0.77036877092E+00  0.69206235861E+01  0.51100000000E-03 0. -1.
        -11    1    4    4    0    0 -0.10185844443E+02 -0.13018720562E+02  0.30131274226E+02  0.34367603914E+02  0.51100000000E-03 0.  1.
         12    1    4    4    0    0  0.19999606646E+01 -0.11765993658E+02 -0.53495822826E+01  0.13078856220E+02  0.00000000000E+00 0. -1.
</event>
<event>
 8    1  0.2504019E-006  0.9118800E+02  0.7816164E-02  0.1184000E+00
        -11   -1    0    0    0    0  0.00000000000E+00  0.00000000000E+00  0.45593999997E+02  0.45594000000E+02  0.51100000000E-03 0. -1.
         11   -1    0    0    0    0 -0.00000000000E+00 -0.00000000000E+00 -0.45593999997E+02  0.45594000000E+02  0.51100000000E-03 0.  1.
         23    2    1    2    0    0 -0.35527136788E-14  0.00000000000E+00  0.35527136788E-14  0.91188000000E+02  0.91188000000E+02 0.  0.
    9900012    2    3    3    0    0  0.25586070633E+02  0.19927081653E+02  0.17436867964E+02  0.54367082602E+02  0.39999996407E+02 0.  0.
        -12    1    3    3    0    0 -0.25586070633E+02 -0.19927081653E+02 -0.17436867964E+02  0.36820917398E+02  0.00000000000E+00 0.  1.
         11    1    4    4    0    0 -0.10130307017E+01  0.13324549352E+02 -0.37505551357E+01  0.13879355559E+02  0.51100000000E-03 0.  1.
        -11    1    4    4    0    0 -0.35059794684E-01 -0.23654696595E+01 -0.27101067585E+01  0.35974094572E+01  0.51100000000E-03 0. -1.
         12    1    4    4    0    0  0.26634161130E+02  0.89680019600E+01  0.23897529859E+02  0.36890317586E+02  0.00000000000E+00 0. -1.
</event>
<event>
 8    1  0.2504019E-006  0.9118800E+02  0.7816164E-02  0.1184000E+00
        -11   -1    0    0    0    0  0.00000000000E+00  0.00000000000E+00  0.45593999997E+02  0.45594000000E+02  0.51100000000E-03 0.  1.
         11   -1    0    0    0    0 -0.00000000000E+00 -0.00000000000E+00 -0.45593999997E+02  0.45594000000E+02  0.51100000000E-03 0. -1.
         23    2    1    2    0    0  0.17763568394E-14  0.00000000000E+00  0.71054273576E-14  0.91188000000E+02  0.91188000000E+02 0.  0.
    9900012    2    3    3    0    0  0.76520801328E+01 -0.15021982953E+02 -0.32734774730E+02  0.54367085036E+02  0.40000001956E+02 0.  0.
        -12    1    3    3    0    0 -0.76520801328E+01  0.15021982953E+02  0.32734774730E+02  0.36820914964E+02  0.00000000000E+00 0.  1.
         11    1    4    4    0    0  0.17257363397E+02 -0.57201705427E+01 -0.99471896443E+01  0.20723984282E+02  0.51100000000E-03 0. -1.
        -11    1    4    4    0    0 -0.14427944202E+01  0.90125129722E+00  0.37197615975E+01  0.40902978184E+01  0.51100000000E-03 0.  1.
         12    1    4    4    0    0 -0.81624888440E+01 -0.10203063707E+02 -0.26507346683E+02  0.29552802935E+02  0.00000000000E+00 0. -1.
</event>
<event>
 8    1  0.2504019E-006  0.9118800E+02  0.7816164E-02  0.1184000E+00
        -11   -1    0    0    0    0  0.00000000000E+00  0.00000000000E+00  0.45593999997E+02  0.45594000000E+02  0.51100000000E-03 0.  1.
         11   -1    0    0    0    0 -0.00000000000E+00 -0.00000000000E+00 -0.45593999997E+02  0.45594000000E+02  0.51100000000E-03 0. -1.
         23    2    1    2    0    0  0.00000000000E+00  0.00000000000E+00 -0.35527136788E-14  0.91188000000E+02  0.91188000000E+02 0.  0.
    9900012    2    3    3    0    0  0.44078354518E+01 -0.34955502778E+02 -0.10698772936E+02  0.54367082980E+02  0.39999997270E+02 0.  0.
        -12    1    3    3    0    0 -0.44078354518E+01  0.34955502778E+02  0.10698772936E+02  0.36820917020E+02  0.00000000000E+00 0.  1.
         11    1    4    4    0    0 -0.41782166140E+01 -0.26349114516E+01 -0.12641682618E+02  0.13572486586E+02  0.51100000000E-03 0. -1.
        -11    1    4    4    0    0 -0.45676912714E+01 -0.25355394007E+02 -0.15101518469E+00  0.25763979014E+02  0.51100000000E-03 0.  1.
        -12    1    4    4    0    0  0.13153743337E+02 -0.69651973200E+01  0.20939248676E+01  0.15030617380E+02  0.00000000000E+00 0.  1.
</event>
<event>
 8    1  0.2504019E-006  0.9118800E+02  0.7816164E-02  0.1184000E+00
        -11   -1    0    0    0    0  0.00000000000E+00  0.00000000000E+00  0.45593999997E+02  0.45594000000E+02  0.51100000000E-03 0.  1.
         11   -1    0    0    0    0 -0.00000000000E+00 -0.00000000000E+00 -0.45593999997E+02  0.45594000000E+02  0.51100000000E-03 0. -1.
         23    2    1    2    0    0  0.35527136788E-14  0.00000000000E+00  0.00000000000E+00  0.91188000000E+02  0.91188000000E+02 0.  0.
    9900012    2    3    3    0    0 -0.21492307150E+02  0.59821930071E+01  0.29292900467E+02  0.54367083152E+02  0.39999997661E+02 0.  0.
         12    1    3    3    0    0  0.21492307150E+02 -0.59821930071E+01 -0.29292900467E+02  0.36820916848E+02  0.00000000000E+00 0. -1.
         11    1    4    4    0    0  0.73708015491E+01  0.11373500345E+01  0.31411589626E+01  0.80925373318E+01  0.51100000000E-03 0.  1.
        -11    1    4    4    0    0 -0.23609571934E+02  0.13133191155E+02  0.13323037953E+02  0.30123013418E+02  0.51100000000E-03 0. -1.
        -12    1    4    4    0    0 -0.52535367650E+01 -0.82883481820E+01  0.12828703551E+02  0.16151532402E+02  0.00000000000E+00 0.  1.
</event>
<event>
 8    1  0.2504019E-006  0.9118800E+02  0.7816164E-02  0.1184000E+00
        -11   -1    0    0    0    0  0.00000000000E+00  0.00000000000E+00  0.45593999997E+02  0.45594000000E+02  0.51100000000E-03 0.  1.
         11   -1    0    0    0    0 -0.00000000000E+00 -0.00000000000E+00 -0.45593999997E+02  0.45594000000E+02  0.51100000000E-03 0. -1.
         23    2    1    2    0    0  0.00000000000E+00  0.35527136788E-14  0.00000000000E+00  0.91188000000E+02  0.91188000000E+02 0.  0.
    9900012    2    3    3    0    0 -0.81463647465E+01 -0.23361373779E+02  0.27270183727E+02  0.54367082522E+02  0.39999996226E+02 0.  0.
         12    1    3    3    0    0  0.81463647465E+01  0.23361373779E+02 -0.27270183727E+02  0.36820917478E+02  0.00000000000E+00 0. -1.
         11    1    4    4    0    0  0.10636932762E+02 -0.30373041319E+01  0.58064705173E+01  0.12493384454E+02  0.51100000000E-03 0. -1.
        -11    1    4    4    0    0 -0.74788789195E+01  0.33826358795E+01  0.41995178623E+00  0.82190154611E+01  0.51100000000E-03 0.  1.
        -12    1    4    4    0    0 -0.11304418589E+02 -0.23706705526E+02  0.21043761423E+02  0.33654682607E+02  0.00000000000E+00 0.  1.
</event>
<event>
 8    1  0.2504019E-006  0.9118800E+02  0.7816164E-02  0.1184000E+00
        -11   -1    0    0    0    0  0.00000000000E+00  0.00000000000E+00  0.45593999997E+02  0.45594000000E+02  0.51100000000E-03 0.  1.
         11   -1    0    0    0    0 -0.00000000000E+00 -0.00000000000E+00 -0.45593999997E+02  0.45594000000E+02  0.51100000000E-03 0. -1.
         23    2    1    2    0    0 -0.71054273576E-14  0.66613381478E-15  0.35527136788E-14  0.91188000000E+02  0.91188000000E+02 0.  0.
    9900012    2    3    3    0    0 -0.32456594797E+02  0.15992097690E+01  0.17314495657E+02  0.54367085053E+02  0.40000001996E+02 0.  0.
         12    1    3    3    0    0  0.32456594797E+02 -0.15992097690E+01 -0.17314495657E+02  0.36820914947E+02  0.00000000000E+00 0. -1.
         11    1    4    4    0    0 -0.96457923282E+01 -0.12918057574E+02 -0.39004676801E+01  0.16587078390E+02  0.51100000000E-03 0. -1.
        -11    1    4    4    0    0  0.33572911712E+00  0.59941768530E+01  0.73292333239E+01  0.94742034790E+01  0.51100000000E-03 0.  1.
         12    1    4    4    0    0 -0.23146531586E+02  0.85230904899E+01  0.13885730013E+02  0.28305803185E+02  0.00000000000E+00 0. -1.
</event>
<event>
 8    1  0.2504019E-006  0.9118800E+02  0.7816164E-02  0.1184000E+00
        -11   -1    0    0    0    0  0.00000000000E+00  0.00000000000E+00  0.45593999997E+02  0.45594000000E+02  0.51100000000E-03 0.  1.
         11   -1    0    0    0    0 -0.00000000000E+00 -0.00000000000E+00 -0.45593999997E+02  0.45594000000E+02  0.51100000000E-03 0. -1.
         23    2    1    2    0    0  0.00000000000E+00 -0.88817841970E-15 -0.13322676296E-14  0.91188000000E+02  0.91188000000E+02 0.  0.
    9900012    2    3    3    0    0  0.36676811590E+02  0.10519217725E+01  0.30797235427E+01  0.54367085496E+02  0.40000003006E+02 0.  0.
        -12    1    3    3    0    0 -0.36676811590E+02 -0.10519217725E+01 -0.30797235427E+01  0.36820914504E+02  0.00000000000E+00 0.  1.
         11    1    4    4    0    0  0.23794240660E+02  0.80989175504E+01 -0.12662579365E+02  0.28144258216E+02  0.51100000000E-03 0. -1.
        -11    1    4    4    0    0  0.12722805850E+02 -0.11111824101E+02  0.12334294711E+02  0.20915956823E+02  0.51100000000E-03 0.  1.
        -12    1    4    4    0    0  0.15976507931E+00  0.40648283231E+01  0.34080081974E+01  0.53068704573E+01  0.00000000000E+00 0.  1.
</event>
<event>
 8    1  0.2504019E-006  0.9118800E+02  0.7816164E-02  0.1184000E+00
        -11   -1    0    0    0    0  0.00000000000E+00  0.00000000000E+00  0.45593999997E+02  0.45594000000E+02  0.51100000000E-03 0.  1.
         11   -1    0    0    0    0 -0.00000000000E+00 -0.00000000000E+00 -0.45593999997E+02  0.45594000000E+02  0.51100000000E-03 0. -1.
         23    2    1    2    0    0  0.35527136788E-14 -0.35527136788E-14  0.00000000000E+00  0.91188000000E+02  0.91188000000E+02 0.  0.
    9900012    2    3    3    0    0  0.25442710015E+02 -0.19055320099E+02  0.18583472727E+02  0.54367052489E+02  0.39999927760E+02 0.  0.
         12    1    3    3    0    0 -0.25442710015E+02  0.19055320099E+02 -0.18583472727E+02  0.36820947511E+02  0.00000000000E+00 0. -1.
         11    1    4    4    0    0  0.14734599154E+01  0.99720594383E+01 -0.32983920139E+01  0.10606245504E+02  0.51100000000E-03 0. -1.
        -11    1    4    4    0    0  0.11865235826E+02 -0.12300453123E+02  0.79209607979E+01  0.18836841255E+02  0.51100000000E-03 0.  1.
        -12    1    4    4    0    0  0.12104014274E+02 -0.16726926414E+02  0.13960903943E+02  0.24923965730E+02  0.00000000000E+00 0.  1.
</event>
<event>
 8    1  0.2504019E-006  0.9118800E+02  0.7816164E-02  0.1184000E+00
        -11   -1    0    0    0    0  0.00000000000E+00  0.00000000000E+00  0.45593999997E+02  0.45594000000E+02  0.51100000000E-03 0.  1.
         11   -1    0    0    0    0 -0.00000000000E+00 -0.00000000000E+00 -0.45593999997E+02  0.45594000000E+02  0.51100000000E-03 0. -1.
         23    2    1    2    0    0  0.35527136788E-14  0.00000000000E+00 -0.17763568394E-14  0.91188000000E+02  0.91188000000E+02 0.  0.
    9900012    2    3    3    0    0  0.17074387542E+02 -0.32129184597E+02 -0.56533135651E+01  0.54367093342E+02  0.40000020893E+02 0.  0.
        -12    1    3    3    0    0 -0.17074387542E+02  0.32129184597E+02  0.56533135651E+01  0.36820906658E+02  0.00000000000E+00 0.  1.
         11    1    4    4    0    0  0.26297252744E+01  0.25491786915E+01 -0.95345104177E+01  0.10213748391E+02  0.51100000000E-03 0. -1.
        -11    1    4    4    0    0 -0.16265506948E+01 -0.11522745582E+01  0.65811243042E+01  0.68763799479E+01  0.51100000000E-03 0.  1.
        -12    1    4    4    0    0  0.16071212962E+02 -0.33526088731E+02 -0.26999274516E+01  0.37276965004E+02  0.00000000000E+00 0.  1.
</event>
<event>
 8    1  0.2504019E-006  0.9118800E+02  0.7816164E-02  0.1184000E+00
        -11   -1    0    0    0    0  0.00000000000E+00  0.00000000000E+00  0.45593999997E+02  0.45594000000E+02  0.51100000000E-03 0. -1.
         11   -1    0    0    0    0 -0.00000000000E+00 -0.00000000000E+00 -0.45593999997E+02  0.45594000000E+02  0.51100000000E-03 0.  1.
         23    2    1    2    0    0 -0.17763568394E-14  0.00000000000E+00  0.00000000000E+00  0.91188000000E+02  0.91188000000E+02 0.  0.
    9900012    2    3    3    0    0 -0.15604868330E+02  0.27790773348E+02 -0.18437579736E+02  0.54367036604E+02  0.39999891546E+02 0.  0.
         12    1    3    3    0    0  0.15604868330E+02 -0.27790773348E+02  0.18437579736E+02  0.36820963396E+02  0.00000000000E+00 0. -1.
         11    1    4    4    0    0 -0.27358636341E+01  0.84122293332E+00  0.10081534693E+02  0.10479978429E+02  0.51100000000E-03 0. -1.
        -11    1    4    4    0    0 -0.51317074376E+01  0.23703267171E+02 -0.24868905883E+02  0.34736749644E+02  0.51100000000E-03 0.  1.
        -12    1    4    4    0    0 -0.77372972587E+01  0.32462832446E+01 -0.36502085462E+01  0.91503085306E+01  0.00000000000E+00 0.  1.
</event>
<event>
 8    1  0.2504019E-006  0.9118800E+02  0.7816164E-02  0.1184000E+00
        -11   -1    0    0    0    0  0.00000000000E+00  0.00000000000E+00  0.45593999997E+02  0.45594000000E+02  0.51100000000E-03 0.  1.
         11   -1    0    0    0    0 -0.00000000000E+00 -0.00000000000E+00 -0.45593999997E+02  0.45594000000E+02  0.51100000000E-03 0. -1.
         23    2    1    2    0    0 -0.15543122345E-14  0.00000000000E+00  0.00000000000E+00  0.91188000000E+02  0.91188000000E+02 0.  0.
    9900012    2    3    3    0    0  0.10789962394E+01  0.35871880952E+02  0.82355258691E+01  0.54367082545E+02  0.39999996278E+02 0.  0.
         12    1    3    3    0    0 -0.10789962394E+01 -0.35871880952E+02 -0.82355258691E+01  0.36820917455E+02  0.00000000000E+00 0. -1.
         11    1    4    4    0    0  0.45371388086E+01 -0.13001506232E+01  0.21576747873E+01  0.51895646214E+01  0.51100000000E-03 0. -1.
        -11    1    4    4    0    0  0.78833503799E+01  0.49695440871E+01  0.11291502289E+02  0.14640410030E+02  0.51100000000E-03 0.  1.
        -12    1    4    4    0    0 -0.11341492949E+02  0.32202487488E+02 -0.52136512076E+01  0.34537107893E+02  0.00000000000E+00 0.  1.
</event>
<event>
 8    1  0.2504019E-006  0.9118800E+02  0.7816164E-02  0.1184000E+00
        -11   -1    0    0    0    0  0.00000000000E+00  0.00000000000E+00  0.45593999997E+02  0.45594000000E+02  0.51100000000E-03 0. -1.
         11   -1    0    0    0    0 -0.00000000000E+00 -0.00000000000E+00 -0.45593999997E+02  0.45594000000E+02  0.51100000000E-03 0.  1.
         23    2    1    2    0    0  0.88817841970E-15 -0.35527136788E-14 -0.35527136788E-14  0.91188000000E+02  0.91188000000E+02 0.  0.
    9900012    2    3    3    0    0 -0.63041783675E+01  0.25089493665E+02  0.26202164835E+02  0.54367098337E+02  0.40000032278E+02 0.  0.
        -12    1    3    3    0    0  0.63041783675E+01 -0.25089493665E+02 -0.26202164835E+02  0.36820901663E+02  0.00000000000E+00 0.  1.
         11    1    4    4    0    0 -0.34877728244E+01  0.12495474703E+02  0.21594862621E+02  0.25192053097E+02  0.51100000000E-03 0. -1.
        -11    1    4    4    0    0 -0.92794201704E+01  0.17936833062E+02  0.15680252722E+01  0.20255772572E+02  0.51100000000E-03 0.  1.
         12    1    4    4    0    0  0.64630146272E+01 -0.53428141005E+01  0.30392769418E+01  0.89192726673E+01  0.00000000000E+00 0. -1.
</event>
<event>
 8    1  0.2504019E-006  0.9118800E+02  0.7816164E-02  0.1184000E+00
        -11   -1    0    0    0    0  0.00000000000E+00  0.00000000000E+00  0.45593999997E+02  0.45594000000E+02  0.51100000000E-03 0.  1.
         11   -1    0    0    0    0 -0.00000000000E+00 -0.00000000000E+00 -0.45593999997E+02  0.45594000000E+02  0.51100000000E-03 0. -1.
         23    2    1    2    0    0  0.00000000000E+00  0.00000000000E+00  0.00000000000E+00  0.91188000000E+02  0.91188000000E+02 0.  0.
    9900012    2    3    3    0    0  0.19333261166E+02  0.28846552936E+02 -0.12242561850E+02  0.54367096640E+02  0.40000028410E+02 0.  0.
        -12    1    3    3    0    0 -0.19333261166E+02 -0.28846552936E+02  0.12242561850E+02  0.36820903360E+02  0.00000000000E+00 0.  1.
         11    1    4    4    0    0  0.11891963030E+02  0.23759256009E+01 -0.63307703732E+01  0.13680002227E+02  0.51100000000E-03 0. -1.
        -11    1    4    4    0    0 -0.41497536821E+01  0.96889126587E+01 -0.15020735478E+02  0.18349876803E+02  0.51100000000E-03 0.  1.
         12    1    4    4    0    0  0.11591051818E+02  0.16781714677E+02  0.91089440007E+01  0.22337217610E+02  0.00000000000E+00 0. -1.
</event>
<event>
 8    1  0.2504019E-006  0.9118800E+02  0.7816164E-02  0.1184000E+00
        -11   -1    0    0    0    0  0.00000000000E+00  0.00000000000E+00  0.45593999997E+02  0.45594000000E+02  0.51100000000E-03 0.  1.
         11   -1    0    0    0    0 -0.00000000000E+00 -0.00000000000E+00 -0.45593999997E+02  0.45594000000E+02  0.51100000000E-03 0. -1.
         23    2    1    2    0    0  0.00000000000E+00  0.35527136788E-14  0.00000000000E+00  0.91188000000E+02  0.91188000000E+02 0.  0.
    9900012    2    3    3    0    0 -0.36061194553E+01  0.26162641456E+02 -0.25657198495E+02  0.54367085561E+02  0.40000003154E+02 0.  0.
        -12    1    3    3    0    0  0.36061194553E+01 -0.26162641456E+02  0.25657198495E+02  0.36820914439E+02  0.00000000000E+00 0.  1.
         11    1    4    4    0    0 -0.48837638391E+01 -0.51992488564E+01 -0.12571237112E+02  0.14454042365E+02  0.51100000000E-03 0.  1.
        -11    1    4    4    0    0  0.68412002317E+00  0.13090450904E+02  0.51573536191E+01  0.14086384266E+02  0.51100000000E-03 0. -1.
         12    1    4    4    0    0  0.59352436065E+00  0.18271439408E+02 -0.18243315002E+02  0.25826658930E+02  0.00000000000E+00 0. -1.
</event>
<event>
 8    1  0.2504019E-006  0.9118800E+02  0.7816164E-02  0.1184000E+00
        -11   -1    0    0    0    0  0.00000000000E+00  0.00000000000E+00  0.45593999997E+02  0.45594000000E+02  0.51100000000E-03 0.  1.
         11   -1    0    0    0    0 -0.00000000000E+00 -0.00000000000E+00 -0.45593999997E+02  0.45594000000E+02  0.51100000000E-03 0. -1.
         23    2    1    2    0    0  0.00000000000E+00  0.35527136788E-14  0.00000000000E+00  0.91188000000E+02  0.91188000000E+02 0.  0.
    9900012    2    3    3    0    0  0.28234997814E+02  0.16387649502E+02  0.17029658119E+02  0.54367089998E+02  0.40000013268E+02 0.  0.
         12    1    3    3    0    0 -0.28234997814E+02 -0.16387649502E+02 -0.17029658119E+02  0.36820910002E+02  0.00000000000E+00 0. -1.
         11    1    4    4    0    0  0.13643407619E+02  0.38898378284E+01  0.19882629017E+01  0.14325732073E+02  0.51100000000E-03 0. -1.
        -11    1    4    4    0    0  0.14097478148E+02 -0.48602866837E+01  0.16945256771E+02  0.22572173225E+02  0.51100000000E-03 0.  1.
         12    1    4    4    0    0  0.49411204635E+00  0.17358098357E+02 -0.19038615537E+01  0.17469184701E+02  0.00000000000E+00 0. -1.
</event>
<event>
 8    1  0.2504019E-006  0.9118800E+02  0.7816164E-02  0.1184000E+00
        -11   -1    0    0    0    0  0.00000000000E+00  0.00000000000E+00  0.45593999997E+02  0.45594000000E+02  0.51100000000E-03 0. -1.
         11   -1    0    0    0    0 -0.00000000000E+00 -0.00000000000E+00 -0.45593999997E+02  0.45594000000E+02  0.51100000000E-03 0.  1.
         23    2    1    2    0    0  0.88817841970E-15 -0.26645352591E-14  0.71054273576E-14  0.91188000000E+02  0.91188000000E+02 0.  0.
    9900012    2    3    3    0    0  0.53400436181E+01 -0.34156436638E+00  0.36430018497E+02  0.54367095886E+02  0.40000026692E+02 0.  0.
        -12    1    3    3    0    0 -0.53400436181E+01  0.34156436638E+00 -0.36430018497E+02  0.36820904114E+02  0.00000000000E+00 0.  1.
         11    1    4    4    0    0  0.14648534067E+01  0.12771407080E+02  0.67902919181E+01  0.14538318297E+02  0.51100000000E-03 0. -1.
        -11    1    4    4    0    0  0.67409412546E+01  0.30909302375E+01  0.20322728301E+01  0.76892309009E+01  0.51100000000E-03 0.  1.
        -12    1    4    4    0    0 -0.28657510432E+01 -0.16203901684E+02  0.27607453749E+02  0.32139546688E+02  0.00000000000E+00 0.  1.
</event>
<event>
 8    1  0.2504019E-006  0.9118800E+02  0.7816164E-02  0.1184000E+00
        -11   -1    0    0    0    0  0.00000000000E+00  0.00000000000E+00  0.45593999997E+02  0.45594000000E+02  0.51100000000E-03 0.  1.
         11   -1    0    0    0    0 -0.00000000000E+00 -0.00000000000E+00 -0.45593999997E+02  0.45594000000E+02  0.51100000000E-03 0. -1.
         23    2    1    2    0    0 -0.11102230246E-14  0.00000000000E+00  0.35527136788E-14  0.91188000000E+02  0.91188000000E+02 0.  0.
    9900012    2    3    3    0    0 -0.12171365091E+01  0.22331362864E+02  0.29250797573E+02  0.54367077316E+02  0.39999984356E+02 0.  0.
         12    1    3    3    0    0  0.12171365091E+01 -0.22331362864E+02 -0.29250797573E+02  0.36820922684E+02  0.00000000000E+00 0. -1.
         11    1    4    4    0    0  0.50032733118E+01 -0.15745483939E+01 -0.37304909952E+01  0.64364982563E+01  0.51100000000E-03 0. -1.
        -11    1    4    4    0    0  0.25818875766E+00 -0.47304310973E+01  0.83784299602E+01  0.96250573329E+01  0.51100000000E-03 0.  1.
         12    1    4    4    0    0 -0.64785985785E+01  0.28636342355E+02  0.24602858608E+02  0.38305521726E+02  0.00000000000E+00 0. -1.
</event>
<event>
 8    1  0.2504019E-006  0.9118800E+02  0.7816164E-02  0.1184000E+00
        -11   -1    0    0    0    0  0.00000000000E+00  0.00000000000E+00  0.45593999997E+02  0.45594000000E+02  0.51100000000E-03 0.  1.
         11   -1    0    0    0    0 -0.00000000000E+00 -0.00000000000E+00 -0.45593999997E+02  0.45594000000E+02  0.51100000000E-03 0. -1.
         23    2    1    2    0    0  0.00000000000E+00  0.00000000000E+00  0.00000000000E+00  0.91188000000E+02  0.91188000000E+02 0.  0.
    9900012    2    3    3    0    0  0.11736178463E+02 -0.20971030829E+02  0.27897336265E+02  0.54367036004E+02  0.39999890178E+02 0.  0.
         12    1    3    3    0    0 -0.11736178463E+02  0.20971030829E+02 -0.27897336265E+02  0.36820963996E+02  0.00000000000E+00 0. -1.
         11    1    4    4    0    0  0.85768012318E+01  0.80858714452E+01  0.69171176698E+01  0.13667090163E+02  0.51100000000E-03 0. -1.
        -11    1    4    4    0    0  0.10731069990E+02 -0.22072205415E+02  0.13975965539E+02  0.28242976614E+02  0.51100000000E-03 0.  1.
         12    1    4    4    0    0 -0.75716927592E+01 -0.69846968588E+01  0.70042530557E+01  0.12456969227E+02  0.00000000000E+00 0. -1.
</event>
<event>
 8    1  0.2504019E-006  0.9118800E+02  0.7816164E-02  0.1184000E+00
        -11   -1    0    0    0    0  0.00000000000E+00  0.00000000000E+00  0.45593999997E+02  0.45594000000E+02  0.51100000000E-03 0.  1.
         11   -1    0    0    0    0 -0.00000000000E+00 -0.00000000000E+00 -0.45593999997E+02  0.45594000000E+02  0.51100000000E-03 0. -1.
         23    2    1    2    0    0 -0.71054273576E-14  0.17763568394E-14  0.00000000000E+00  0.91188000000E+02  0.91188000000E+02 0.  0.
    9900012    2    3    3    0    0  0.31518046988E+02 -0.15562019961E+02 -0.10964319183E+02  0.54367081402E+02  0.39999993673E+02 0.  0.
         12    1    3    3    0    0 -0.31518046988E+02  0.15562019961E+02  0.10964319183E+02  0.36820918598E+02  0.00000000000E+00 0. -1.
         11    1    4    4    0    0  0.16268188479E+02 -0.18432617223E+02 -0.26647069971E+01  0.24728849502E+02  0.51100000000E-03 0.  1.
        -11    1    4    4    0    0  0.56222363426E+01  0.10003939050E+02  0.42962647071E+01  0.12253417022E+02  0.51100000000E-03 0. -1.
         12    1    4    4    0    0  0.96276221672E+01 -0.71333417883E+01 -0.12595876893E+02  0.17384814878E+02  0.00000000000E+00 0. -1.
</event>
<event>
 8    1  0.2504019E-006  0.9118800E+02  0.7816164E-02  0.1184000E+00
        -11   -1    0    0    0    0  0.00000000000E+00  0.00000000000E+00  0.45593999997E+02  0.45594000000E+02  0.51100000000E-03 0. -1.
         11   -1    0    0    0    0 -0.00000000000E+00 -0.00000000000E+00 -0.45593999997E+02  0.45594000000E+02  0.51100000000E-03 0.  1.
         23    2    1    2    0    0  0.00000000000E+00  0.00000000000E+00  0.17763568394E-14  0.91188000000E+02  0.91188000000E+02 0.  0.
    9900012    2    3    3    0    0 -0.11451950443E+02 -0.34750793342E+02  0.41248812116E+01  0.54367089475E+02  0.40000012077E+02 0.  0.
        -12    1    3    3    0    0  0.11451950443E+02  0.34750793342E+02 -0.41248812116E+01  0.36820910525E+02  0.00000000000E+00 0.  1.
         11    1    4    4    0    0 -0.52860493200E+01 -0.24106641590E+02  0.10471328772E+01  0.24701598606E+02  0.51100000000E-03 0. -1.
        -11    1    4    4    0    0 -0.10921212041E+02  0.41436565612E+01 -0.43279346314E+01  0.12456876839E+02  0.51100000000E-03 0.  1.
        -12    1    4    4    0    0  0.47553109183E+01 -0.14787808313E+02  0.74056829659E+01  0.17208614030E+02  0.00000000000E+00 0.  1.
</event>
<event>
 8    1  0.2504019E-006  0.9118800E+02  0.7816164E-02  0.1184000E+00
        -11   -1    0    0    0    0  0.00000000000E+00  0.00000000000E+00  0.45593999997E+02  0.45594000000E+02  0.51100000000E-03 0.  1.
         11   -1    0    0    0    0 -0.00000000000E+00 -0.00000000000E+00 -0.45593999997E+02  0.45594000000E+02  0.51100000000E-03 0. -1.
         23    2    1    2    0    0  0.00000000000E+00 -0.17763568394E-14 -0.17763568394E-14  0.91188000000E+02  0.91188000000E+02 0.  0.
    9900012    2    3    3    0    0 -0.33251337213E+02 -0.31175748652E+01 -0.15504997655E+02  0.54367141078E+02  0.40000129715E+02 0.  0.
        -12    1    3    3    0    0  0.33251337213E+02  0.31175748652E+01  0.15504997655E+02  0.36820858922E+02  0.00000000000E+00 0.  1.
         11    1    4    4    0    0 -0.13456987653E+02 -0.99255131241E+01  0.92572635410E+01  0.19112908099E+02  0.51100000000E-03 0. -1.
        -11    1    4    4    0    0 -0.97669473029E+00 -0.70089655322E+00  0.16028534439E+01  0.20035787976E+01  0.51100000000E-03 0.  1.
         12    1    4    4    0    0 -0.18817654830E+02  0.75088348122E+01 -0.26365114640E+02  0.33250654182E+02  0.00000000000E+00 0. -1.
</event>
<event>
 8    1  0.2504019E-006  0.9118800E+02  0.7816164E-02  0.1184000E+00
        -11   -1    0    0    0    0  0.00000000000E+00  0.00000000000E+00  0.45593999997E+02  0.45594000000E+02  0.51100000000E-03 0.  1.
         11   -1    0    0    0    0 -0.00000000000E+00 -0.00000000000E+00 -0.45593999997E+02  0.45594000000E+02  0.51100000000E-03 0. -1.
         23    2    1    2    0    0 -0.35527136788E-14 -0.13322676296E-14  0.00000000000E+00  0.91188000000E+02  0.91188000000E+02 0.  0.
    9900012    2    3    3    0    0 -0.31435983280E+02  0.29809171368E+01  0.18938665413E+02  0.54367082583E+02  0.39999996365E+02 0.  0.
         12    1    3    3    0    0  0.31435983280E+02 -0.29809171368E+01 -0.18938665413E+02  0.36820917417E+02  0.00000000000E+00 0. -1.
         11    1    4    4    0    0 -0.31285543292E+01 -0.14487846689E+02 -0.20869756608E+01  0.14967999918E+02  0.51100000000E-03 0. -1.
        -11    1    4    4    0    0 -0.70125634889E+01  0.36829550115E+01  0.57400222898E+01  0.97820274203E+01  0.51100000000E-03 0.  1.
         12    1    4    4    0    0 -0.21294865462E+02  0.13785808815E+02  0.15285618784E+02  0.29617055244E+02  0.00000000000E+00 0. -1.
</event>
<event>
 8    1  0.2504019E-006  0.9118800E+02  0.7816164E-02  0.1184000E+00
        -11   -1    0    0    0    0  0.00000000000E+00  0.00000000000E+00  0.45593999997E+02  0.45594000000E+02  0.51100000000E-03 0. -1.
         11   -1    0    0    0    0 -0.00000000000E+00 -0.00000000000E+00 -0.45593999997E+02  0.45594000000E+02  0.51100000000E-03 0.  1.
         23    2    1    2    0    0  0.13322676296E-14  0.00000000000E+00 -0.71054273576E-14  0.91188000000E+02  0.91188000000E+02 0.  0.
    9900012    2    3    3    0    0  0.22092192628E+01 -0.16336874446E+02 -0.32924245028E+02  0.54367081664E+02  0.39999994269E+02 0.  0.
         12    1    3    3    0    0 -0.22092192628E+01  0.16336874446E+02  0.32924245028E+02  0.36820918336E+02  0.00000000000E+00 0. -1.
         11    1    4    4    0    0  0.96549650272E+01  0.79419040828E+01 -0.12505195205E+01  0.12564075353E+02  0.51100000000E-03 0. -1.
        -11    1    4    4    0    0  0.12700622155E+01 -0.30298326668E+01 -0.90482649907E+00  0.34075878969E+01  0.51100000000E-03 0.  1.
        -12    1    4    4    0    0 -0.87158079800E+01 -0.21248945862E+02 -0.30768899009E+02  0.38395418414E+02  0.00000000000E+00 0.  1.
</event>
<event>
 8    1  0.2504019E-006  0.9118800E+02  0.7816164E-02  0.1184000E+00
        -11   -1    0    0    0    0  0.00000000000E+00  0.00000000000E+00  0.45593999997E+02  0.45594000000E+02  0.51100000000E-03 0. -1.
         11   -1    0    0    0    0 -0.00000000000E+00 -0.00000000000E+00 -0.45593999997E+02  0.45594000000E+02  0.51100000000E-03 0.  1.
         23    2    1    2    0    0  0.71054273576E-14  0.88817841970E-15 -0.17763568394E-14  0.91188000000E+02  0.91188000000E+02 0.  0.
    9900012    2    3    3    0    0 -0.33635793285E+02  0.26184829330E+01 -0.14749827400E+02  0.54367075906E+02  0.39999981143E+02 0.  0.
         12    1    3    3    0    0  0.33635793285E+02 -0.26184829330E+01  0.14749827400E+02  0.36820924094E+02  0.00000000000E+00 0. -1.
         11    1    4    4    0    0  0.16674258754E+01  0.29438611414E+01  0.10120803024E+01  0.35314209986E+01  0.51100000000E-03 0. -1.
        -11    1    4    4    0    0 -0.41294837403E+01  0.12994914251E+02 -0.87984368029E+01  0.16227535943E+02  0.51100000000E-03 0.  1.
         12    1    4    4    0    0 -0.31173735420E+02 -0.13320292459E+02 -0.69634708997E+01  0.34608118964E+02  0.00000000000E+00 0. -1.
</event>
<event>
 8    1  0.2504019E-006  0.9118800E+02  0.7816164E-02  0.1184000E+00
        -11   -1    0    0    0    0  0.00000000000E+00  0.00000000000E+00  0.45593999997E+02  0.45594000000E+02  0.51100000000E-03 0.  1.
         11   -1    0    0    0    0 -0.00000000000E+00 -0.00000000000E+00 -0.45593999997E+02  0.45594000000E+02  0.51100000000E-03 0. -1.
         23    2    1    2    0    0 -0.17763568394E-14 -0.44408920985E-15 -0.71054273576E-14  0.91188000000E+02  0.91188000000E+02 0.  0.
    9900012    2    3    3    0    0  0.12746584871E+02  0.27079703122E+01  0.34437944649E+02  0.54367074418E+02  0.39999977750E+02 0.  0.
         12    1    3    3    0    0 -0.12746584871E+02 -0.27079703122E+01 -0.34437944649E+02  0.36820925582E+02  0.00000000000E+00 0. -1.
         11    1    4    4    0    0 -0.23592327737E+01 -0.14272672755E+01 -0.44104824989E+01  0.52014831818E+01  0.51100000000E-03 0. -1.
        -11    1    4    4    0    0  0.18507729460E+02  0.62479077213E+01  0.40397099616E+02  0.44872018656E+02  0.51100000000E-03 0.  1.
        -12    1    4    4    0    0 -0.34019118145E+01 -0.21126701337E+01 -0.15486724677E+01  0.42935725800E+01  0.00000000000E+00 0.  1.
</event>
<event>
 8    1  0.2504019E-006  0.9118800E+02  0.7816164E-02  0.1184000E+00
        -11   -1    0    0    0    0  0.00000000000E+00  0.00000000000E+00  0.45593999997E+02  0.45594000000E+02  0.51100000000E-03 0.  1.
         11   -1    0    0    0    0 -0.00000000000E+00 -0.00000000000E+00 -0.45593999997E+02  0.45594000000E+02  0.51100000000E-03 0. -1.
         23    2    1    2    0    0  0.00000000000E+00  0.00000000000E+00  0.35527136788E-14  0.91188000000E+02  0.91188000000E+02 0.  0.
    9900012    2    3    3    0    0  0.20382240826E+02  0.84811588465E+01  0.29468865305E+02  0.54367084492E+02  0.40000000716E+02 0.  0.
         12    1    3    3    0    0 -0.20382240826E+02 -0.84811588465E+01 -0.29468865305E+02  0.36820915508E+02  0.00000000000E+00 0. -1.
         11    1    4    4    0    0  0.51251423651E+01 -0.15105240186E+01 -0.24093991948E+01  0.58612261357E+01  0.51100000000E-03 0. -1.
        -11    1    4    4    0    0  0.20081111161E+02  0.17734634981E+02  0.27478555592E+02  0.38377588786E+02  0.51100000000E-03 0.  1.
        -12    1    4    4    0    0 -0.48240127003E+01 -0.77429521160E+01  0.43997089085E+01  0.10128269570E+02  0.00000000000E+00 0.  1.
</event>
<event>
 8    1  0.2504019E-006  0.9118800E+02  0.7816164E-02  0.1184000E+00
        -11   -1    0    0    0    0  0.00000000000E+00  0.00000000000E+00  0.45593999997E+02  0.45594000000E+02  0.51100000000E-03 0. -1.
         11   -1    0    0    0    0 -0.00000000000E+00 -0.00000000000E+00 -0.45593999997E+02  0.45594000000E+02  0.51100000000E-03 0.  1.
         23    2    1    2    0    0 -0.17763568394E-14 -0.17763568394E-14  0.00000000000E+00  0.91188000000E+02  0.91188000000E+02 0.  0.
    9900012    2    3    3    0    0  0.10058075736E+02  0.88144717209E+01  0.34306269163E+02  0.54367083348E+02  0.39999998109E+02 0.  0.
        -12    1    3    3    0    0 -0.10058075736E+02 -0.88144717209E+01 -0.34306269163E+02  0.36820916652E+02  0.00000000000E+00 0.  1.
         11    1    4    4    0    0  0.73344561965E+01 -0.11435628475E+02  0.19804867935E+02  0.24016674218E+02  0.51100000000E-03 0. -1.
        -11    1    4    4    0    0 -0.45235459669E+00  0.52028184344E+01 -0.37902323555E+01  0.64528912832E+01  0.51100000000E-03 0.  1.
        -12    1    4    4    0    0  0.31759741365E+01  0.15047281761E+02  0.18291633583E+02  0.23897517847E+02  0.00000000000E+00 0.  1.
</event>
<event>
 8    1  0.2504019E-006  0.9118800E+02  0.7816164E-02  0.1184000E+00
        -11   -1    0    0    0    0  0.00000000000E+00  0.00000000000E+00  0.45593999997E+02  0.45594000000E+02  0.51100000000E-03 0. -1.
         11   -1    0    0    0    0 -0.00000000000E+00 -0.00000000000E+00 -0.45593999997E+02  0.45594000000E+02  0.51100000000E-03 0.  1.
         23    2    1    2    0    0  0.00000000000E+00  0.00000000000E+00  0.35527136788E-14  0.91188000000E+02  0.91188000000E+02 0.  0.
    9900012    2    3    3    0    0 -0.27706098493E+02  0.11844139018E+02  0.21162896212E+02  0.54367086122E+02  0.40000004431E+02 0.  0.
        -12    1    3    3    0    0  0.27706098493E+02 -0.11844139018E+02 -0.21162896212E+02  0.36820913878E+02  0.00000000000E+00 0.  1.
         11    1    4    4    0    0 -0.20264848252E+02 -0.62711094993E+01  0.80615050829E+01  0.22693143315E+02  0.51100000000E-03 0.  1.
        -11    1    4    4    0    0 -0.10034630450E+02  0.19955386464E+02  0.48858161185E+01  0.22864436503E+02  0.51100000000E-03 0. -1.
         12    1    4    4    0    0  0.25933802090E+01 -0.18401379469E+01  0.82155750101E+01  0.88095063039E+01  0.00000000000E+00 0. -1.
</event>
<event>
 8    1  0.2504019E-006  0.9118800E+02  0.7816164E-02  0.1184000E+00
        -11   -1    0    0    0    0  0.00000000000E+00  0.00000000000E+00  0.45593999997E+02  0.45594000000E+02  0.51100000000E-03 0.  1.
         11   -1    0    0    0    0 -0.00000000000E+00 -0.00000000000E+00 -0.45593999997E+02  0.45594000000E+02  0.51100000000E-03 0. -1.
         23    2    1    2    0    0  0.00000000000E+00  0.17763568394E-14  0.00000000000E+00  0.91188000000E+02  0.91188000000E+02 0.  0.
    9900012    2    3    3    0    0  0.63345531490E+01 -0.10429793104E+02 -0.34740059738E+02  0.54367096991E+02  0.40000029210E+02 0.  0.
        -12    1    3    3    0    0 -0.63345531490E+01  0.10429793104E+02  0.34740059738E+02  0.36820903009E+02  0.00000000000E+00 0.  1.
         11    1    4    4    0    0  0.59500200844E+01  0.43736238738E+01 -0.15130123700E+01  0.75379394723E+01  0.51100000000E-03 0. -1.
        -11    1    4    4    0    0 -0.64244413634E+01  0.23075995273E+01  0.19703984039E+01  0.71049934934E+01  0.51100000000E-03 0.  1.
         12    1    4    4    0    0  0.68089744279E+01 -0.17111016505E+02 -0.35197445772E+02  0.39724164025E+02  0.00000000000E+00 0. -1.
</event>
<event>
 8    1  0.2504019E-006  0.9118800E+02  0.7816164E-02  0.1184000E+00
        -11   -1    0    0    0    0  0.00000000000E+00  0.00000000000E+00  0.45593999997E+02  0.45594000000E+02  0.51100000000E-03 0.  1.
         11   -1    0    0    0    0 -0.00000000000E+00 -0.00000000000E+00 -0.45593999997E+02  0.45594000000E+02  0.51100000000E-03 0. -1.
         23    2    1    2    0    0  0.17763568394E-14  0.00000000000E+00  0.00000000000E+00  0.91188000000E+02  0.91188000000E+02 0.  0.
    9900012    2    3    3    0    0  0.86472444858E+01  0.18298271826E+02  0.30759992673E+02  0.54367099166E+02  0.40000034168E+02 0.  0.
         12    1    3    3    0    0 -0.86472444858E+01 -0.18298271826E+02 -0.30759992673E+02  0.36820900834E+02  0.00000000000E+00 0. -1.
         11    1    4    4    0    0 -0.18260967308E+01  0.59507720134E+00 -0.67789592764E+01  0.70457813816E+01  0.51100000000E-03 0. -1.
        -11    1    4    4    0    0 -0.30971119100E+01  0.84370878747E+01  0.25250878192E+02  0.26802675309E+02  0.51100000000E-03 0.  1.
        -12    1    4    4    0    0  0.13570453127E+02  0.92661067501E+01  0.12288073757E+02  0.20518642475E+02  0.00000000000E+00 0.  1.
</event>
<event>
 8    1  0.2504019E-006  0.9118800E+02  0.7816164E-02  0.1184000E+00
        -11   -1    0    0    0    0  0.00000000000E+00  0.00000000000E+00  0.45593999997E+02  0.45594000000E+02  0.51100000000E-03 0. -1.
         11   -1    0    0    0    0 -0.00000000000E+00 -0.00000000000E+00 -0.45593999997E+02  0.45594000000E+02  0.51100000000E-03 0.  1.
         23    2    1    2    0    0  0.00000000000E+00 -0.17763568394E-14  0.00000000000E+00  0.91188000000E+02  0.91188000000E+02 0.  0.
    9900012    2    3    3    0    0  0.27106812380E+01  0.76651096190E+01  0.35912089688E+02  0.54367083607E+02  0.39999998699E+02 0.  0.
        -12    1    3    3    0    0 -0.27106812380E+01 -0.76651096190E+01 -0.35912089688E+02  0.36820916393E+02  0.00000000000E+00 0.  1.
         11    1    4    4    0    0  0.11019520010E+02 -0.55368098880E+01  0.20247786694E+02  0.23707782504E+02  0.51100000000E-03 0. -1.
        -11    1    4    4    0    0  0.38934366152E+01 -0.18323870948E+01  0.93501422762E+01  0.10292796121E+02  0.51100000000E-03 0.  1.
        -12    1    4    4    0    0 -0.12202275387E+02  0.15034306602E+02  0.63141607182E+01  0.20366504982E+02  0.00000000000E+00 0.  1.
</event>
<event>
 8    1  0.2504019E-006  0.9118800E+02  0.7816164E-02  0.1184000E+00
        -11   -1    0    0    0    0  0.00000000000E+00  0.00000000000E+00  0.45593999997E+02  0.45594000000E+02  0.51100000000E-03 0.  1.
         11   -1    0    0    0    0 -0.00000000000E+00 -0.00000000000E+00 -0.45593999997E+02  0.45594000000E+02  0.51100000000E-03 0. -1.
         23    2    1    2    0    0 -0.71054273576E-14 -0.88817841970E-15  0.17763568394E-14  0.91188000000E+02  0.91188000000E+02 0.  0.
    9900012    2    3    3    0    0 -0.33559900532E+02  0.43758734505E+01  0.14504128116E+02  0.54367015160E+02  0.39999842660E+02 0.  0.
         12    1    3    3    0    0  0.33559900532E+02 -0.43758734505E+01 -0.14504128116E+02  0.36820984840E+02  0.00000000000E+00 0. -1.
         11    1    4    4    0    0  0.48918124731E+01 -0.19342136034E+01  0.70605588553E+01  0.88046864309E+01  0.51100000000E-03 0. -1.
        -11    1    4    4    0    0 -0.30701250756E+02  0.58676143745E+01  0.15052121967E+02  0.34692392140E+02  0.51100000000E-03 0.  1.
         12    1    4    4    0    0 -0.77504622496E+01  0.44247267937E+00 -0.76085527067E+01  0.10869936589E+02  0.00000000000E+00 0. -1.
</event>
<event>
 8    1  0.2504019E-006  0.9118800E+02  0.7816164E-02  0.1184000E+00
        -11   -1    0    0    0    0  0.00000000000E+00  0.00000000000E+00  0.45593999997E+02  0.45594000000E+02  0.51100000000E-03 0. -1.
         11   -1    0    0    0    0 -0.00000000000E+00 -0.00000000000E+00 -0.45593999997E+02  0.45594000000E+02  0.51100000000E-03 0.  1.
         23    2    1    2    0    0  0.00000000000E+00  0.00000000000E+00  0.00000000000E+00  0.91188000000E+02  0.91188000000E+02 0.  0.
    9900012    2    3    3    0    0  0.98556488309E+01 -0.29496679036E+02  0.19712733825E+02  0.54367085252E+02  0.40000002448E+02 0.  0.
        -12    1    3    3    0    0 -0.98556488309E+01  0.29496679036E+02 -0.19712733825E+02  0.36820914748E+02  0.00000000000E+00 0.  1.
         11    1    4    4    0    0  0.17785772593E+02 -0.17757595891E+02  0.25399113098E+02  0.35732070538E+02  0.51100000000E-03 0. -1.
        -11    1    4    4    0    0 -0.43368924314E+01 -0.10748181160E+02  0.28743401678E+00  0.11593733341E+02  0.51100000000E-03 0.  1.
         12    1    4    4    0    0 -0.35932313307E+01 -0.99090198571E+00 -0.59738132899E+01  0.70412813723E+01  0.00000000000E+00 0. -1.
</event>
<event>
 8    1  0.2504019E-006  0.9118800E+02  0.7816164E-02  0.1184000E+00
        -11   -1    0    0    0    0  0.00000000000E+00  0.00000000000E+00  0.45593999997E+02  0.45594000000E+02  0.51100000000E-03 0. -1.
         11   -1    0    0    0    0 -0.00000000000E+00 -0.00000000000E+00 -0.45593999997E+02  0.45594000000E+02  0.51100000000E-03 0.  1.
         23    2    1    2    0    0  0.00000000000E+00  0.17763568394E-14  0.00000000000E+00  0.91188000000E+02  0.91188000000E+02 0.  0.
    9900012    2    3    3    0    0  0.65483401230E+01 -0.13525931708E+02 -0.33614846553E+02  0.54366953088E+02  0.39999701154E+02 0.  0.
         12    1    3    3    0    0 -0.65483401230E+01  0.13525931708E+02  0.33614846553E+02  0.36821046912E+02  0.00000000000E+00 0. -1.
         11    1    4    4    0    0 -0.31841961126E+01  0.77376638004E+01 -0.55119093381E+01  0.10019565399E+02  0.51100000000E-03 0. -1.
        -11    1    4    4    0    0  0.74829370470E+01  0.39883073838E+01 -0.40351892119E+01  0.93906173851E+01  0.51100000000E-03 0.  1.
         12    1    4    4    0    0  0.22495991886E+01 -0.25251902892E+02 -0.24067748003E+02  0.34956770304E+02  0.00000000000E+00 0. -1.
</event>
<event>
 8    1  0.2504019E-006  0.9118800E+02  0.7816164E-02  0.1184000E+00
        -11   -1    0    0    0    0  0.00000000000E+00  0.00000000000E+00  0.45593999997E+02  0.45594000000E+02  0.51100000000E-03 0.  1.
         11   -1    0    0    0    0 -0.00000000000E+00 -0.00000000000E+00 -0.45593999997E+02  0.45594000000E+02  0.51100000000E-03 0. -1.
         23    2    1    2    0    0  0.71054273576E-14 -0.88817841970E-15  0.00000000000E+00  0.91188000000E+02  0.91188000000E+02 0.  0.
    9900012    2    3    3    0    0 -0.33607653008E+02  0.57582965444E+01  0.13897772517E+02  0.54367076590E+02  0.39999982702E+02 0.  0.
         12    1    3    3    0    0  0.33607653008E+02 -0.57582965444E+01 -0.13897772517E+02  0.36820923410E+02  0.00000000000E+00 0. -1.
         11    1    4    4    0    0 -0.72838983737E+01 -0.40319399848E+00  0.14079711363E+02  0.15857364637E+02  0.51100000000E-03 0. -1.
        -11    1    4    4    0    0 -0.23031828499E+02 -0.67842648211E+01 -0.45868017021E+01  0.24444429289E+02  0.51100000000E-03 0.  1.
         12    1    4    4    0    0 -0.32919261361E+01  0.12945755364E+02  0.44048628562E+01  0.14065282664E+02  0.00000000000E+00 0. -1.
</event>
<event>
 8    1  0.2504019E-006  0.9118800E+02  0.7816164E-02  0.1184000E+00
        -11   -1    0    0    0    0  0.00000000000E+00  0.00000000000E+00  0.45593999997E+02  0.45594000000E+02  0.51100000000E-03 0. -1.
         11   -1    0    0    0    0 -0.00000000000E+00 -0.00000000000E+00 -0.45593999997E+02  0.45594000000E+02  0.51100000000E-03 0.  1.
         23    2    1    2    0    0  0.00000000000E+00 -0.17763568394E-14  0.00000000000E+00  0.91188000000E+02  0.91188000000E+02 0.  0.
    9900012    2    3    3    0    0  0.30523182558E+02 -0.65304127581E+01  0.19531241523E+02  0.54367077147E+02  0.39999983973E+02 0.  0.
        -12    1    3    3    0    0 -0.30523182558E+02  0.65304127581E+01 -0.19531241523E+02  0.36820922853E+02  0.00000000000E+00 0.  1.
         11    1    4    4    0    0  0.38695773945E+01  0.89091672528E+01  0.10573223465E+02  0.14357574484E+02  0.51100000000E-03 0. -1.
        -11    1    4    4    0    0  0.25627063909E+02 -0.94704157691E+01 -0.20998290575E+01  0.27401541229E+02  0.51100000000E-03 0.  1.
        -12    1    4    4    0    0  0.10265412549E+01 -0.59691642418E+01  0.11057847116E+02  0.12607961434E+02  0.00000000000E+00 0.  1.
</event>
<event>
 8    1  0.2504019E-006  0.9118800E+02  0.7816164E-02  0.1184000E+00
        -11   -1    0    0    0    0  0.00000000000E+00  0.00000000000E+00  0.45593999997E+02  0.45594000000E+02  0.51100000000E-03 0. -1.
         11   -1    0    0    0    0 -0.00000000000E+00 -0.00000000000E+00 -0.45593999997E+02  0.45594000000E+02  0.51100000000E-03 0.  1.
         23    2    1    2    0    0  0.17763568394E-14  0.00000000000E+00  0.00000000000E+00  0.91188000000E+02  0.91188000000E+02 0.  0.
    9900012    2    3    3    0    0 -0.15949221759E+02 -0.15484231288E+02  0.29353708831E+02  0.54367091328E+02  0.40000016300E+02 0.  0.
        -12    1    3    3    0    0  0.15949221759E+02  0.15484231288E+02 -0.29353708831E+02  0.36820908672E+02  0.00000000000E+00 0.  1.
         11    1    4    4    0    0 -0.14537795253E+02 -0.10592005766E+02  0.10200041861E+02  0.20677981796E+02  0.51100000000E-03 0. -1.
        -11    1    4    4    0    0 -0.20082856150E+01 -0.28937782312E+01  0.26151204922E+02  0.26387358388E+02  0.51100000000E-03 0.  1.
         12    1    4    4    0    0  0.59685910883E+00 -0.19984472910E+01 -0.69975379517E+01  0.73017511431E+01  0.00000000000E+00 0. -1.
</event>
<event>
 8    1  0.2504019E-006  0.9118800E+02  0.7816164E-02  0.1184000E+00
        -11   -1    0    0    0    0  0.00000000000E+00  0.00000000000E+00  0.45593999997E+02  0.45594000000E+02  0.51100000000E-03 0.  1.
         11   -1    0    0    0    0 -0.00000000000E+00 -0.00000000000E+00 -0.45593999997E+02  0.45594000000E+02  0.51100000000E-03 0. -1.
         23    2    1    2    0    0  0.00000000000E+00  0.00000000000E+00  0.00000000000E+00  0.91188000000E+02  0.91188000000E+02 0.  0.
    9900012    2    3    3    0    0  0.19048653670E+02 -0.45466697171E+01  0.31180997546E+02  0.54367108917E+02  0.40000056398E+02 0.  0.
         12    1    3    3    0    0 -0.19048653670E+02  0.45466697171E+01 -0.31180997546E+02  0.36820891083E+02  0.00000000000E+00 0. -1.
         11    1    4    4    0    0  0.12653637466E+02 -0.12103101254E+02  0.12867778406E+02  0.21729687583E+02  0.51100000000E-03 0. -1.
        -11    1    4    4    0    0  0.12903540671E+02  0.98884554037E+01  0.19745725453E+02  0.25576876002E+02  0.51100000000E-03 0.  1.
         12    1    4    4    0    0 -0.65085244667E+01 -0.23320238668E+01 -0.14325063124E+01  0.70605453319E+01  0.00000000000E+00 0. -1.
</event>
<event>
 8    1  0.2504019E-006  0.9118800E+02  0.7816164E-02  0.1184000E+00
        -11   -1    0    0    0    0  0.00000000000E+00  0.00000000000E+00  0.45593999997E+02  0.45594000000E+02  0.51100000000E-03 0.  1.
         11   -1    0    0    0    0 -0.00000000000E+00 -0.00000000000E+00 -0.45593999997E+02  0.45594000000E+02  0.51100000000E-03 0. -1.
         23    2    1    2    0    0  0.88817841970E-15  0.00000000000E+00  0.35527136788E-14  0.91188000000E+02  0.91188000000E+02 0.  0.
    9900012    2    3    3    0    0  0.71576943672E+01 -0.29139723362E+02  0.21340856076E+02  0.54366970624E+02  0.39999741130E+02 0.  0.
         12    1    3    3    0    0 -0.71576943672E+01  0.29139723362E+02 -0.21340856076E+02  0.36821029376E+02  0.00000000000E+00 0. -1.
         11    1    4    4    0    0  0.85119660467E+01 -0.30490839734E+02  0.42824196283E+01  0.31945015132E+02  0.51100000000E-03 0. -1.
        -11    1    4    4    0    0 -0.19725077892E+01 -0.54494371620E+01  0.13566044710E+02  0.14752109059E+02  0.51100000000E-03 0.  1.
         12    1    4    4    0    0  0.61823610967E+00  0.68005535338E+01  0.34923917385E+01  0.76698464332E+01  0.00000000000E+00 0. -1.
</event>
<event>
 8    1  0.2504019E-006  0.9118800E+02  0.7816164E-02  0.1184000E+00
        -11   -1    0    0    0    0  0.00000000000E+00  0.00000000000E+00  0.45593999997E+02  0.45594000000E+02  0.51100000000E-03 0. -1.
         11   -1    0    0    0    0 -0.00000000000E+00 -0.00000000000E+00 -0.45593999997E+02  0.45594000000E+02  0.51100000000E-03 0.  1.
         23    2    1    2    0    0  0.00000000000E+00  0.35527136788E-14  0.00000000000E+00  0.91188000000E+02  0.91188000000E+02 0.  0.
    9900012    2    3    3    0    0 -0.61681601567E+01 -0.27967176299E+02  0.23142409251E+02  0.54367078558E+02  0.39999987190E+02 0.  0.
         12    1    3    3    0    0  0.61681601567E+01  0.27967176299E+02 -0.23142409251E+02  0.36820921442E+02  0.00000000000E+00 0. -1.
         11    1    4    4    0    0 -0.10943892662E+02 -0.14824525361E+01  0.60291323560E+01  0.12582403957E+02  0.51100000000E-03 0. -1.
        -11    1    4    4    0    0 -0.11218036197E+02 -0.10164322438E+02  0.51378998704E+01  0.15986112789E+02  0.51100000000E-03 0.  1.
         12    1    4    4    0    0  0.15993768702E+02 -0.16320401324E+02  0.11975377025E+02  0.25798561812E+02  0.00000000000E+00 0. -1.
</event>
<event>
 8    1  0.2504019E-006  0.9118800E+02  0.7816164E-02  0.1184000E+00
        -11   -1    0    0    0    0  0.00000000000E+00  0.00000000000E+00  0.45593999997E+02  0.45594000000E+02  0.51100000000E-03 0. -1.
         11   -1    0    0    0    0 -0.00000000000E+00 -0.00000000000E+00 -0.45593999997E+02  0.45594000000E+02  0.51100000000E-03 0.  1.
         23    2    1    2    0    0  0.88817841970E-15  0.00000000000E+00  0.35527136788E-14  0.91188000000E+02  0.91188000000E+02 0.  0.
    9900012    2    3    3    0    0 -0.40233514509E+01  0.20430035044E+02 -0.30367841515E+02  0.54367088997E+02  0.40000010987E+02 0.  0.
         12    1    3    3    0    0  0.40233514509E+01 -0.20430035044E+02  0.30367841515E+02  0.36820911003E+02  0.00000000000E+00 0. -1.
         11    1    4    4    0    0 -0.74196254354E+01  0.98776931154E+01  0.61952521244E+01  0.13820304339E+02  0.51100000000E-03 0. -1.
        -11    1    4    4    0    0  0.59500315877E+01  0.73384117141E+01 -0.10347063015E+02  0.14011312418E+02  0.51100000000E-03 0.  1.
        -12    1    4    4    0    0 -0.25537576032E+01  0.32139302148E+01 -0.26216030624E+02  0.26535472240E+02  0.00000000000E+00 0.  1.
</event>
<event>
 8    1  0.2504019E-006  0.9118800E+02  0.7816164E-02  0.1184000E+00
        -11   -1    0    0    0    0  0.00000000000E+00  0.00000000000E+00  0.45593999997E+02  0.45594000000E+02  0.51100000000E-03 0. -1.
         11   -1    0    0    0    0 -0.00000000000E+00 -0.00000000000E+00 -0.45593999997E+02  0.45594000000E+02  0.51100000000E-03 0.  1.
         23    2    1    2    0    0  0.00000000000E+00  0.00000000000E+00  0.00000000000E+00  0.91188000000E+02  0.91188000000E+02 0.  0.
    9900012    2    3    3    0    0 -0.22219713623E+02 -0.28730222032E+02 -0.60529087159E+01  0.54367095130E+02  0.40000024968E+02 0.  0.
         12    1    3    3    0    0  0.22219713623E+02  0.28730222032E+02  0.60529087159E+01  0.36820904870E+02  0.00000000000E+00 0. -1.
         11    1    4    4    0    0 -0.73135050019E+01  0.27809664429E+01 -0.62949705193E+01  0.10042299730E+02  0.51100000000E-03 0. -1.
        -11    1    4    4    0    0 -0.23124233457E+01 -0.13679772264E+02 -0.12815769412E+02  0.18887228934E+02  0.51100000000E-03 0.  1.
         12    1    4    4    0    0 -0.12593785275E+02 -0.17831416211E+02  0.13057831216E+02  0.25437566466E+02  0.00000000000E+00 0. -1.
</event>
<event>
 8    1  0.2504019E-006  0.9118800E+02  0.7816164E-02  0.1184000E+00
        -11   -1    0    0    0    0  0.00000000000E+00  0.00000000000E+00  0.45593999997E+02  0.45594000000E+02  0.51100000000E-03 0. -1.
         11   -1    0    0    0    0 -0.00000000000E+00 -0.00000000000E+00 -0.45593999997E+02  0.45594000000E+02  0.51100000000E-03 0.  1.
         23    2    1    2    0    0  0.88817841970E-15  0.00000000000E+00  0.88817841970E-15  0.91188000000E+02  0.91188000000E+02 0.  0.
    9900012    2    3    3    0    0  0.54633617589E+01 -0.36118172128E+02  0.46270752667E+01  0.54367075173E+02  0.39999979472E+02 0.  0.
         12    1    3    3    0    0 -0.54633617589E+01  0.36118172128E+02 -0.46270752667E+01  0.36820924827E+02  0.00000000000E+00 0. -1.
         11    1    4    4    0    0  0.46826601921E+01  0.40102626470E+01 -0.73600142773E+01  0.96010063741E+01  0.51100000000E-03 0. -1.
        -11    1    4    4    0    0  0.15675430268E+01 -0.40673963012E+02  0.90789707702E+01  0.41704390282E+02  0.51100000000E-03 0.  1.
         12    1    4    4    0    0 -0.78684146004E+00  0.54552823688E+00  0.29081187738E+01  0.30616785173E+01  0.00000000000E+00 0. -1.
</event>
<event>
 8    1  0.2504019E-006  0.9118800E+02  0.7816164E-02  0.1184000E+00
        -11   -1    0    0    0    0  0.00000000000E+00  0.00000000000E+00  0.45593999997E+02  0.45594000000E+02  0.51100000000E-03 0. -1.
         11   -1    0    0    0    0 -0.00000000000E+00 -0.00000000000E+00 -0.45593999997E+02  0.45594000000E+02  0.51100000000E-03 0.  1.
         23    2    1    2    0    0 -0.27755575616E-15  0.00000000000E+00 -0.71054273576E-14  0.91188000000E+02  0.91188000000E+02 0.  0.
    9900012    2    3    3    0    0  0.39949081511E+00  0.13923068961E+02  0.34084735786E+02  0.54367073126E+02  0.39999974806E+02 0.  0.
        -12    1    3    3    0    0 -0.39949081511E+00 -0.13923068961E+02 -0.34084735786E+02  0.36820926874E+02  0.00000000000E+00 0.  1.
         11    1    4    4    0    0  0.82659965255E+01  0.39514837643E+01  0.23427098642E+02  0.25154917483E+02  0.51100000000E-03 0. -1.
        -11    1    4    4    0    0  0.49564280093E+01  0.66018381832E+01  0.13337573794E+02  0.15685704351E+02  0.51100000000E-03 0.  1.
        -12    1    4    4    0    0 -0.12822933720E+02  0.33697470139E+01 -0.26799366504E+01  0.13526451293E+02  0.00000000000E+00 0.  1.
</event>
<event>
 8    1  0.2504019E-006  0.9118800E+02  0.7816164E-02  0.1184000E+00
        -11   -1    0    0    0    0  0.00000000000E+00  0.00000000000E+00  0.45593999997E+02  0.45594000000E+02  0.51100000000E-03 0.  1.
         11   -1    0    0    0    0 -0.00000000000E+00 -0.00000000000E+00 -0.45593999997E+02  0.45594000000E+02  0.51100000000E-03 0. -1.
         23    2    1    2    0    0 -0.88817841970E-15 -0.71054273576E-14 -0.71054273576E-14  0.91188000000E+02  0.91188000000E+02 0.  0.
    9900012    2    3    3    0    0  0.31821464321E+01  0.17215074603E+02  0.32392811048E+02  0.54367094836E+02  0.40000024297E+02 0.  0.
         12    1    3    3    0    0 -0.31821464321E+01 -0.17215074603E+02 -0.32392811048E+02  0.36820905164E+02  0.00000000000E+00 0. -1.
         11    1    4    4    0    0 -0.79888890291E+01  0.48211374034E+01 -0.26833819189E+01  0.97090809330E+01  0.51100000000E-03 0.  1.
        -11    1    4    4    0    0  0.83978943472E+01 -0.41458496475E+01  0.60947924723E+01  0.11174041091E+02  0.51100000000E-03 0. -1.
        -12    1    4    4    0    0  0.27731411140E+01  0.16539786847E+02  0.28981400495E+02  0.33483972811E+02  0.00000000000E+00 0.  1.
</event>
<event>
 8    1  0.2504019E-006  0.9118800E+02  0.7816164E-02  0.1184000E+00
        -11   -1    0    0    0    0  0.00000000000E+00  0.00000000000E+00  0.45593999997E+02  0.45594000000E+02  0.51100000000E-03 0. -1.
         11   -1    0    0    0    0 -0.00000000000E+00 -0.00000000000E+00 -0.45593999997E+02  0.45594000000E+02  0.51100000000E-03 0.  1.
         23    2    1    2    0    0  0.00000000000E+00  0.88817841970E-15  0.00000000000E+00  0.91188000000E+02  0.91188000000E+02 0.  0.
    9900012    2    3    3    0    0  0.26875622629E+02  0.59290077388E+01  0.24460740134E+02  0.54367081592E+02  0.39999994106E+02 0.  0.
        -12    1    3    3    0    0 -0.26875622629E+02 -0.59290077388E+01 -0.24460740134E+02  0.36820918408E+02  0.00000000000E+00 0.  1.
         11    1    4    4    0    0  0.90080507597E+01  0.68067195730E+01  0.86272452108E+01  0.14209355018E+02  0.51100000000E-03 0. -1.
        -11    1    4    4    0    0  0.15823732986E+02  0.14288810966E+02  0.67599466707E+01  0.22366437439E+02  0.51100000000E-03 0.  1.
         12    1    4    4    0    0  0.20438388828E+01 -0.15166522800E+02  0.90735482529E+01  0.17791289136E+02  0.00000000000E+00 0. -1.
</event>
<event>
 8    1  0.2504019E-006  0.9118800E+02  0.7816164E-02  0.1184000E+00
        -11   -1    0    0    0    0  0.00000000000E+00  0.00000000000E+00  0.45593999997E+02  0.45594000000E+02  0.51100000000E-03 0.  1.
         11   -1    0    0    0    0 -0.00000000000E+00 -0.00000000000E+00 -0.45593999997E+02  0.45594000000E+02  0.51100000000E-03 0. -1.
         23    2    1    2    0    0  0.00000000000E+00  0.17763568394E-14 -0.17763568394E-14  0.91188000000E+02  0.91188000000E+02 0.  0.
    9900012    2    3    3    0    0 -0.32003169137E+02  0.12118890810E+02 -0.13590814683E+02  0.54367073980E+02  0.39999976751E+02 0.  0.
        -12    1    3    3    0    0  0.32003169137E+02 -0.12118890810E+02  0.13590814683E+02  0.36820926020E+02  0.00000000000E+00 0.  1.
         11    1    4    4    0    0 -0.33547479319E+02  0.37515415073E+01 -0.13700371295E+02  0.36430860630E+02  0.51100000000E-03 0. -1.
        -11    1    4    4    0    0  0.49023007741E+01  0.11808186709E+01  0.61593101329E+01  0.79601499476E+01  0.51100000000E-03 0.  1.
         12    1    4    4    0    0 -0.33579905914E+01  0.71865306318E+01 -0.60497535214E+01  0.99760634021E+01  0.00000000000E+00 0. -1.
</event>
<event>
 8    1  0.2504019E-006  0.9118800E+02  0.7816164E-02  0.1184000E+00
        -11   -1    0    0    0    0  0.00000000000E+00  0.00000000000E+00  0.45593999997E+02  0.45594000000E+02  0.51100000000E-03 0.  1.
         11   -1    0    0    0    0 -0.00000000000E+00 -0.00000000000E+00 -0.45593999997E+02  0.45594000000E+02  0.51100000000E-03 0. -1.
         23    2    1    2    0    0  0.00000000000E+00  0.00000000000E+00  0.00000000000E+00  0.91188000000E+02  0.91188000000E+02 0.  0.
    9900012    2    3    3    0    0 -0.23319752476E+02 -0.22517556817E+02  0.17462256804E+02  0.54367059854E+02  0.39999944549E+02 0.  0.
         12    1    3    3    0    0  0.23319752476E+02  0.22517556817E+02 -0.17462256804E+02  0.36820940146E+02  0.00000000000E+00 0. -1.
         11    1    4    4    0    0 -0.22008036840E+02 -0.33365863843E+02  0.15920465451E+02  0.43024362587E+02  0.51100000000E-03 0. -1.
        -11    1    4    4    0    0 -0.18465816915E+01  0.70747782965E+01  0.17755479234E+01  0.75242888419E+01  0.51100000000E-03 0.  1.
         12    1    4    4    0    0  0.53486605583E+00  0.37735287296E+01 -0.23375657035E+00  0.38184084256E+01  0.00000000000E+00 0. -1.
</event>
<event>
 8    1  0.2504019E-006  0.9118800E+02  0.7816164E-02  0.1184000E+00
        -11   -1    0    0    0    0  0.00000000000E+00  0.00000000000E+00  0.45593999997E+02  0.45594000000E+02  0.51100000000E-03 0.  1.
         11   -1    0    0    0    0 -0.00000000000E+00 -0.00000000000E+00 -0.45593999997E+02  0.45594000000E+02  0.51100000000E-03 0. -1.
         23    2    1    2    0    0  0.00000000000E+00  0.00000000000E+00  0.00000000000E+00  0.91188000000E+02  0.91188000000E+02 0.  0.
    9900012    2    3    3    0    0  0.14499602228E+02 -0.32668650624E+02 -0.88487091033E+01  0.54367097632E+02  0.40000030672E+02 0.  0.
        -12    1    3    3    0    0 -0.14499602228E+02  0.32668650624E+02  0.88487091033E+01  0.36820902368E+02  0.00000000000E+00 0.  1.
         11    1    4    4    0    0 -0.39350834578E+00 -0.33837743765E+00 -0.11772372104E+02  0.11783806402E+02  0.51100000000E-03 0. -1.
        -11    1    4    4    0    0  0.20233528020E+02 -0.30830547027E+02  0.17825187657E+01  0.36920125400E+02  0.51100000000E-03 0.  1.
        -12    1    4    4    0    0 -0.53404174464E+01 -0.14997261599E+01  0.11411442351E+01  0.56631658303E+01  0.00000000000E+00 0.  1.
</event>
<event>
 8    1  0.2504019E-006  0.9118800E+02  0.7816164E-02  0.1184000E+00
        -11   -1    0    0    0    0  0.00000000000E+00  0.00000000000E+00  0.45593999997E+02  0.45594000000E+02  0.51100000000E-03 0.  1.
         11   -1    0    0    0    0 -0.00000000000E+00 -0.00000000000E+00 -0.45593999997E+02  0.45594000000E+02  0.51100000000E-03 0. -1.
         23    2    1    2    0    0  0.00000000000E+00  0.00000000000E+00  0.00000000000E+00  0.91188000000E+02  0.91188000000E+02 0.  0.
    9900012    2    3    3    0    0  0.21834988064E+02 -0.60686478736E+01 -0.29020242682E+02  0.54367222223E+02  0.40000314702E+02 0.  0.
        -12    1    3    3    0    0 -0.21834988064E+02  0.60686478736E+01  0.29020242682E+02  0.36820777777E+02  0.00000000000E+00 0.  1.
         11    1    4    4    0    0  0.34468912714E+01 -0.12734834249E+02 -0.22970443761E+01  0.13391544941E+02  0.51100000000E-03 0. -1.
        -11    1    4    4    0    0  0.20079857998E+02  0.81208929516E+01 -0.30005714453E+02  0.37006654802E+02  0.51100000000E-03 0.  1.
        -12    1    4    4    0    0 -0.16917612054E+01 -0.14547065766E+01  0.32825161469E+01  0.39690224810E+01  0.00000000000E+00 0.  1.
</event>
<event>
 8    1  0.2504019E-006  0.9118800E+02  0.7816164E-02  0.1184000E+00
        -11   -1    0    0    0    0  0.00000000000E+00  0.00000000000E+00  0.45593999997E+02  0.45594000000E+02  0.51100000000E-03 0. -1.
         11   -1    0    0    0    0 -0.00000000000E+00 -0.00000000000E+00 -0.45593999997E+02  0.45594000000E+02  0.51100000000E-03 0.  1.
         23    2    1    2    0    0  0.00000000000E+00  0.71054273576E-14  0.17763568394E-14  0.91188000000E+02  0.91188000000E+02 0.  0.
    9900012    2    3    3    0    0 -0.10036529487E+01 -0.34723787261E+02 -0.12207864029E+02  0.54367073000E+02  0.39999974519E+02 0.  0.
         12    1    3    3    0    0  0.10036529487E+01  0.34723787261E+02  0.12207864029E+02  0.36820927000E+02  0.00000000000E+00 0. -1.
         11    1    4    4    0    0  0.93010264854E+01 -0.75478236596E+01  0.21432363587E+01  0.12168492020E+02  0.51100000000E-03 0. -1.
        -11    1    4    4    0    0 -0.45125729800E+01  0.43572187124E+01  0.14758160153E+01  0.64441215833E+01  0.51100000000E-03 0.  1.
        -12    1    4    4    0    0 -0.57921064540E+01 -0.31533182313E+02 -0.15826916403E+02  0.35754459398E+02  0.00000000000E+00 0.  1.
</event>
<event>
 8    1  0.2504019E-006  0.9118800E+02  0.7816164E-02  0.1184000E+00
        -11   -1    0    0    0    0  0.00000000000E+00  0.00000000000E+00  0.45593999997E+02  0.45594000000E+02  0.51100000000E-03 0.  1.
         11   -1    0    0    0    0 -0.00000000000E+00 -0.00000000000E+00 -0.45593999997E+02  0.45594000000E+02  0.51100000000E-03 0. -1.
         23    2    1    2    0    0  0.00000000000E+00  0.88817841970E-15  0.00000000000E+00  0.91188000000E+02  0.91188000000E+02 0.  0.
    9900012    2    3    3    0    0 -0.35061203182E+02 -0.47877812009E+01 -0.10176790426E+02  0.54367110809E+02  0.40000060712E+02 0.  0.
        -12    1    3    3    0    0  0.35061203182E+02  0.47877812009E+01  0.10176790426E+02  0.36820889191E+02  0.00000000000E+00 0.  1.
         11    1    4    4    0    0  0.61295749911E+01  0.70228960582E+00 -0.50017795718E+01  0.79424617977E+01  0.51100000000E-03 0. -1.
        -11    1    4    4    0    0 -0.49343895609E+01 -0.29828380169E+01  0.60795466363E+01  0.83789265743E+01  0.51100000000E-03 0.  1.
         12    1    4    4    0    0 -0.36256388612E+02 -0.25072327898E+01 -0.11254557490E+02  0.38045722437E+02  0.00000000000E+00 0. -1.
</event>
<event>
 8    1  0.2504019E-006  0.9118800E+02  0.7816164E-02  0.1184000E+00
        -11   -1    0    0    0    0  0.00000000000E+00  0.00000000000E+00  0.45593999997E+02  0.45594000000E+02  0.51100000000E-03 0.  1.
         11   -1    0    0    0    0 -0.00000000000E+00 -0.00000000000E+00 -0.45593999997E+02  0.45594000000E+02  0.51100000000E-03 0. -1.
         23    2    1    2    0    0  0.00000000000E+00  0.00000000000E+00  0.88817841970E-15  0.91188000000E+02  0.91188000000E+02 0.  0.
    9900012    2    3    3    0    0  0.34280879063E+02 -0.11250818854E+02  0.73501321064E+01  0.54367027224E+02  0.39999870161E+02 0.  0.
         12    1    3    3    0    0 -0.34280879063E+02  0.11250818854E+02 -0.73501321064E+01  0.36820972776E+02  0.00000000000E+00 0. -1.
         11    1    4    4    0    0 -0.12423313110E+01 -0.25001096960E+01 -0.48237804268E+01  0.55734005279E+01  0.51100000000E-03 0. -1.
        -11    1    4    4    0    0  0.20734570983E+02  0.18493594075E+01  0.20109107345E+02  0.28943371651E+02  0.51100000000E-03 0.  1.
        -12    1    4    4    0    0  0.14788639391E+02 -0.10600068565E+02 -0.79351948117E+01  0.19850255045E+02  0.00000000000E+00 0.  1.
</event>
<event>
 8    1  0.2504019E-006  0.9118800E+02  0.7816164E-02  0.1184000E+00
        -11   -1    0    0    0    0  0.00000000000E+00  0.00000000000E+00  0.45593999997E+02  0.45594000000E+02  0.51100000000E-03 0.  1.
         11   -1    0    0    0    0 -0.00000000000E+00 -0.00000000000E+00 -0.45593999997E+02  0.45594000000E+02  0.51100000000E-03 0. -1.
         23    2    1    2    0    0  0.35527136788E-14  0.44408920985E-15  0.00000000000E+00  0.91188000000E+02  0.91188000000E+02 0.  0.
    9900012    2    3    3    0    0 -0.17578317105E+02  0.37741357111E+01 -0.32133193644E+02  0.54367034962E+02  0.39999887802E+02 0.  0.
        -12    1    3    3    0    0  0.17578317105E+02 -0.37741357111E+01  0.32133193644E+02  0.36820965038E+02  0.00000000000E+00 0.  1.
         11    1    4    4    0    0 -0.23943839629E+02  0.27480643297E+01 -0.92967590241E+01  0.25831938417E+02  0.51100000000E-03 0. -1.
        -11    1    4    4    0    0  0.67767465908E+01  0.73256407130E+01 -0.18004322938E+02  0.20585066212E+02  0.51100000000E-03 0.  1.
        -12    1    4    4    0    0 -0.41122406623E+00 -0.62995693316E+01 -0.48321116812E+01  0.79500303330E+01  0.00000000000E+00 0.  1.
</event>
<event>
 8    1  0.2504019E-006  0.9118800E+02  0.7816164E-02  0.1184000E+00
        -11   -1    0    0    0    0  0.00000000000E+00  0.00000000000E+00  0.45593999997E+02  0.45594000000E+02  0.51100000000E-03 0. -1.
         11   -1    0    0    0    0 -0.00000000000E+00 -0.00000000000E+00 -0.45593999997E+02  0.45594000000E+02  0.51100000000E-03 0.  1.
         23    2    1    2    0    0  0.00000000000E+00  0.35527136788E-14 -0.35527136788E-14  0.91188000000E+02  0.91188000000E+02 0.  0.
    9900012    2    3    3    0    0  0.25642393638E+02  0.10618038320E+02  0.24197309689E+02  0.54367015692E+02  0.39999843872E+02 0.  0.
        -12    1    3    3    0    0 -0.25642393638E+02 -0.10618038320E+02 -0.24197309689E+02  0.36820984308E+02  0.00000000000E+00 0.  1.
         11    1    4    4    0    0  0.16274819175E+02  0.15070054583E+02  0.16061479119E+02  0.27385167446E+02  0.51100000000E-03 0. -1.
        -11    1    4    4    0    0  0.10550029105E+02 -0.12762923936E+02  0.22083616899E+01  0.16705454293E+02  0.51100000000E-03 0.  1.
        -12    1    4    4    0    0 -0.11824546431E+01  0.83109076732E+01  0.59274688805E+01  0.10276393952E+02  0.00000000000E+00 0.  1.
</event>
<event>
 8    1  0.2504019E-006  0.9118800E+02  0.7816164E-02  0.1184000E+00
        -11   -1    0    0    0    0  0.00000000000E+00  0.00000000000E+00  0.45593999997E+02  0.45594000000E+02  0.51100000000E-03 0. -1.
         11   -1    0    0    0    0 -0.00000000000E+00 -0.00000000000E+00 -0.45593999997E+02  0.45594000000E+02  0.51100000000E-03 0.  1.
         23    2    1    2    0    0  0.00000000000E+00  0.35527136788E-14  0.00000000000E+00  0.91188000000E+02  0.91188000000E+02 0.  0.
    9900012    2    3    3    0    0  0.33458468726E+02  0.12398433079E+02  0.90878855536E+01  0.54367082900E+02  0.39999997086E+02 0.  0.
         12    1    3    3    0    0 -0.33458468726E+02 -0.12398433079E+02 -0.90878855536E+01  0.36820917100E+02  0.00000000000E+00 0. -1.
         11    1    4    4    0    0 -0.51496705215E+00 -0.30140442439E+01 -0.30535253452E+01  0.43213043243E+01  0.51100000000E-03 0. -1.
        -11    1    4    4    0    0  0.11710819591E+02 -0.92168321320E+01  0.69456086140E+01  0.16441860276E+02  0.51100000000E-03 0.  1.
        -12    1    4    4    0    0  0.22262616187E+02  0.24629309455E+02  0.51958022848E+01  0.33603918300E+02  0.00000000000E+00 0.  1.
</event>
<event>
 8    1  0.2504019E-006  0.9118800E+02  0.7816164E-02  0.1184000E+00
        -11   -1    0    0    0    0  0.00000000000E+00  0.00000000000E+00  0.45593999997E+02  0.45594000000E+02  0.51100000000E-03 0.  1.
         11   -1    0    0    0    0 -0.00000000000E+00 -0.00000000000E+00 -0.45593999997E+02  0.45594000000E+02  0.51100000000E-03 0. -1.
         23    2    1    2    0    0  0.00000000000E+00  0.00000000000E+00  0.00000000000E+00  0.91188000000E+02  0.91188000000E+02 0.  0.
    9900012    2    3    3    0    0  0.84199013465E+01 -0.34198754994E+02  0.10739250531E+02  0.54367067315E+02  0.39999961558E+02 0.  0.
         12    1    3    3    0    0 -0.84199013465E+01  0.34198754994E+02 -0.10739250531E+02  0.36820932685E+02  0.00000000000E+00 0. -1.
         11    1    4    4    0    0 -0.28249264757E+01 -0.12572417557E+01  0.10427888965E+00  0.30938230029E+01  0.51100000000E-03 0. -1.
        -11    1    4    4    0    0  0.13845321077E+02 -0.26105024239E+02  0.22633171719E+02  0.37221306648E+02  0.51100000000E-03 0.  1.
        -12    1    4    4    0    0 -0.26004932544E+01 -0.68364889991E+01 -0.11998200078E+02  0.14051937664E+02  0.00000000000E+00 0.  1.
</event>
<event>
 8    1  0.2504019E-006  0.9118800E+02  0.7816164E-02  0.1184000E+00
        -11   -1    0    0    0    0  0.00000000000E+00  0.00000000000E+00  0.45593999997E+02  0.45594000000E+02  0.51100000000E-03 0.  1.
         11   -1    0    0    0    0 -0.00000000000E+00 -0.00000000000E+00 -0.45593999997E+02  0.45594000000E+02  0.51100000000E-03 0. -1.
         23    2    1    2    0    0 -0.17763568394E-14  0.00000000000E+00  0.35527136788E-14  0.91188000000E+02  0.91188000000E+02 0.  0.
    9900012    2    3    3    0    0  0.87319430261E+01 -0.29816205152E+02 -0.19761762303E+02  0.54367079751E+02  0.39999989907E+02 0.  0.
        -12    1    3    3    0    0 -0.87319430261E+01  0.29816205152E+02  0.19761762303E+02  0.36820920249E+02  0.00000000000E+00 0.  1.
         11    1    4    4    0    0  0.52664619038E-01 -0.12397788577E+02 -0.24856508376E+01  0.12644619232E+02  0.51100000000E-03 0. -1.
        -11    1    4    4    0    0  0.14752149968E+02 -0.19625814520E+02 -0.14115868629E+01  0.24592500930E+02  0.51100000000E-03 0.  1.
        -12    1    4    4    0    0 -0.60728715606E+01  0.22073979446E+01 -0.15864524602E+02  0.17129959589E+02  0.00000000000E+00 0.  1.
</event>
<event>
 8    1  0.2504019E-006  0.9118800E+02  0.7816164E-02  0.1184000E+00
        -11   -1    0    0    0    0  0.00000000000E+00  0.00000000000E+00  0.45593999997E+02  0.45594000000E+02  0.51100000000E-03 0.  1.
         11   -1    0    0    0    0 -0.00000000000E+00 -0.00000000000E+00 -0.45593999997E+02  0.45594000000E+02  0.51100000000E-03 0. -1.
         23    2    1    2    0    0  0.00000000000E+00  0.35527136788E-14  0.00000000000E+00  0.91188000000E+02  0.91188000000E+02 0.  0.
    9900012    2    3    3    0    0 -0.24327929130E+02 -0.18699387773E+02 -0.20353676375E+02  0.54366981807E+02  0.39999766624E+02 0.  0.
        -12    1    3    3    0    0  0.24327929130E+02  0.18699387773E+02  0.20353676375E+02  0.36821018193E+02  0.00000000000E+00 0.  1.
         11    1    4    4    0    0  0.43909911078E+01 -0.13823617676E+02 -0.11759700241E+02  0.18672540228E+02  0.51100000000E-03 0. -1.
        -11    1    4    4    0    0 -0.14795890745E+02 -0.11365051783E+02 -0.13351838669E+01  0.18704691956E+02  0.51100000000E-03 0.  1.
        -12    1    4    4    0    0 -0.13923029493E+02  0.64892816861E+01 -0.72587922674E+01  0.16989749623E+02  0.00000000000E+00 0.  1.
</event>
<event>
 8    1  0.2504019E-006  0.9118800E+02  0.7816164E-02  0.1184000E+00
        -11   -1    0    0    0    0  0.00000000000E+00  0.00000000000E+00  0.45593999997E+02  0.45594000000E+02  0.51100000000E-03 0. -1.
         11   -1    0    0    0    0 -0.00000000000E+00 -0.00000000000E+00 -0.45593999997E+02  0.45594000000E+02  0.51100000000E-03 0.  1.
         23    2    1    2    0    0 -0.35527136788E-14  0.88817841970E-15 -0.35527136788E-14  0.91188000000E+02  0.91188000000E+02 0.  0.
    9900012    2    3    3    0    0 -0.21716425667E+02  0.33869238744E+01 -0.29541582151E+02  0.54367089188E+02  0.40000011422E+02 0.  0.
         12    1    3    3    0    0  0.21716425667E+02 -0.33869238744E+01  0.29541582151E+02  0.36820910812E+02  0.00000000000E+00 0. -1.
         11    1    4    4    0    0  0.13909556784E+01 -0.21668727907E+01  0.24632570489E+01  0.35633875653E+01  0.51100000000E-03 0. -1.
        -11    1    4    4    0    0  0.49285528907E+01 -0.69025008132E+01 -0.45031786493E+01  0.96028000751E+01  0.51100000000E-03 0.  1.
         12    1    4    4    0    0 -0.28035934236E+02  0.12456297478E+02 -0.27501660550E+02  0.41200901548E+02  0.00000000000E+00 0. -1.
</event>
<event>
 8    1  0.2504019E-006  0.9118800E+02  0.7816164E-02  0.1184000E+00
        -11   -1    0    0    0    0  0.00000000000E+00  0.00000000000E+00  0.45593999997E+02  0.45594000000E+02  0.51100000000E-03 0.  1.
         11   -1    0    0    0    0 -0.00000000000E+00 -0.00000000000E+00 -0.45593999997E+02  0.45594000000E+02  0.51100000000E-03 0. -1.
         23    2    1    2    0    0  0.17763568394E-14 -0.17763568394E-14  0.00000000000E+00  0.91188000000E+02  0.91188000000E+02 0.  0.
    9900012    2    3    3    0    0  0.14026986350E+02  0.99577396329E+01 -0.32555605616E+02  0.54367076849E+02  0.39999983293E+02 0.  0.
         12    1    3    3    0    0 -0.14026986350E+02 -0.99577396329E+01  0.32555605616E+02  0.36820923151E+02  0.00000000000E+00 0. -1.
         11    1    4    4    0    0 -0.48903411984E+00 -0.29365747504E-01  0.22746856488E+01  0.23268458865E+01  0.51100000000E-03 0. -1.
        -11    1    4    4    0    0  0.23039046724E+02 -0.39484681922E+00 -0.13134740789E+02  0.26523103020E+02  0.51100000000E-03 0.  1.
         12    1    4    4    0    0 -0.85230262537E+01  0.10381952200E+02 -0.21695550476E+02  0.25517127943E+02  0.00000000000E+00 0. -1.
</event>
<event>
 8    1  0.2504019E-006  0.9118800E+02  0.7816164E-02  0.1184000E+00
        -11   -1    0    0    0    0  0.00000000000E+00  0.00000000000E+00  0.45593999997E+02  0.45594000000E+02  0.51100000000E-03 0. -1.
         11   -1    0    0    0    0 -0.00000000000E+00 -0.00000000000E+00 -0.45593999997E+02  0.45594000000E+02  0.51100000000E-03 0.  1.
         23    2    1    2    0    0  0.00000000000E+00  0.00000000000E+00  0.00000000000E+00  0.91188000000E+02  0.91188000000E+02 0.  0.
    9900012    2    3    3    0    0  0.27114647495E+02 -0.59502625410E+01 -0.24190337404E+02  0.54367052745E+02  0.39999928342E+02 0.  0.
         12    1    3    3    0    0 -0.27114647495E+02  0.59502625410E+01  0.24190337404E+02  0.36820947255E+02  0.00000000000E+00 0. -1.
         11    1    4    4    0    0  0.86155804302E+01  0.93101276846E+01 -0.11631175548E+02  0.17210198969E+02  0.51100000000E-03 0. -1.
        -11    1    4    4    0    0  0.10676535028E+02 -0.11756595575E+02  0.57907107106E+01  0.16903794560E+02  0.51100000000E-03 0.  1.
        -12    1    4    4    0    0  0.78225320362E+01 -0.35037946505E+01 -0.18349872566E+02  0.20253059216E+02  0.00000000000E+00 0.  1.
</event>
<event>
 8    1  0.2504019E-006  0.9118800E+02  0.7816164E-02  0.1184000E+00
        -11   -1    0    0    0    0  0.00000000000E+00  0.00000000000E+00  0.45593999997E+02  0.45594000000E+02  0.51100000000E-03 0.  1.
         11   -1    0    0    0    0 -0.00000000000E+00 -0.00000000000E+00 -0.45593999997E+02  0.45594000000E+02  0.51100000000E-03 0. -1.
         23    2    1    2    0    0 -0.17763568394E-14  0.17763568394E-14  0.00000000000E+00  0.91188000000E+02  0.91188000000E+02 0.  0.
    9900012    2    3    3    0    0  0.10971723016E+02 -0.69867333622E+01  0.34446867562E+02  0.54367084288E+02  0.40000000251E+02 0.  0.
         12    1    3    3    0    0 -0.10971723016E+02  0.69867333622E+01 -0.34446867562E+02  0.36820915712E+02  0.00000000000E+00 0. -1.
         11    1    4    4    0    0 -0.42407132315E+01 -0.12980517091E+02  0.21616327602E+02  0.25568400262E+02  0.51100000000E-03 0.  1.
        -11    1    4    4    0    0  0.17459215653E+02 -0.11801659188E+00  0.41479089810E+01  0.17945564586E+02  0.51100000000E-03 0. -1.
         12    1    4    4    0    0 -0.22467794059E+01  0.61118003209E+01  0.86826309791E+01  0.10853119440E+02  0.00000000000E+00 0. -1.
</event>
<event>
 8    1  0.2504019E-006  0.9118800E+02  0.7816164E-02  0.1184000E+00
        -11   -1    0    0    0    0  0.00000000000E+00  0.00000000000E+00  0.45593999997E+02  0.45594000000E+02  0.51100000000E-03 0.  1.
         11   -1    0    0    0    0 -0.00000000000E+00 -0.00000000000E+00 -0.45593999997E+02  0.45594000000E+02  0.51100000000E-03 0. -1.
         23    2    1    2    0    0 -0.17763568394E-14  0.17763568394E-14  0.71054273576E-14  0.91188000000E+02  0.91188000000E+02 0.  0.
    9900012    2    3    3    0    0  0.89305445669E+01 -0.14175584498E+02 -0.32788386100E+02  0.54367080876E+02  0.39999992473E+02 0.  0.
        -12    1    3    3    0    0 -0.89305445669E+01  0.14175584498E+02  0.32788386100E+02  0.36820919124E+02  0.00000000000E+00 0.  1.
         11    1    4    4    0    0 -0.14619606708E+02 -0.39374763230E+01 -0.80291009850E+01  0.17137767736E+02  0.51100000000E-03 0. -1.
        -11    1    4    4    0    0  0.18815282974E+02 -0.62112479536E+01 -0.23753881454E+02  0.30932852421E+02  0.51100000000E-03 0.  1.
         12    1    4    4    0    0  0.47348683010E+01 -0.40268602210E+01 -0.10054036609E+01  0.62964607192E+01  0.00000000000E+00 0. -1.
</event>
<event>
 8    1  0.2504019E-006  0.9118800E+02  0.7816164E-02  0.1184000E+00
        -11   -1    0    0    0    0  0.00000000000E+00  0.00000000000E+00  0.45593999997E+02  0.45594000000E+02  0.51100000000E-03 0.  1.
         11   -1    0    0    0    0 -0.00000000000E+00 -0.00000000000E+00 -0.45593999997E+02  0.45594000000E+02  0.51100000000E-03 0. -1.
         23    2    1    2    0    0  0.88817841970E-15  0.00000000000E+00  0.35527136788E-14  0.91188000000E+02  0.91188000000E+02 0.  0.
    9900012    2    3    3    0    0 -0.68565095417E+01  0.27162259402E+02  0.23895201208E+02  0.54367072531E+02  0.39999973450E+02 0.  0.
         12    1    3    3    0    0  0.68565095417E+01 -0.27162259402E+02 -0.23895201208E+02  0.36820927469E+02  0.00000000000E+00 0. -1.
         11    1    4    4    0    0  0.43704728266E+01  0.17843339251E+02  0.87110120316E+01  0.20331441642E+02  0.51100000000E-03 0. -1.
        -11    1    4    4    0    0  0.43436329768E-01  0.16549072514E+02  0.52472261819E+01  0.17361079190E+02  0.51100000000E-03 0.  1.
         12    1    4    4    0    0 -0.11270418698E+02 -0.72301523632E+01  0.99369629942E+01  0.16674551699E+02  0.00000000000E+00 0. -1.
</event>
<event>
 8    1  0.2504019E-006  0.9118800E+02  0.7816164E-02  0.1184000E+00
        -11   -1    0    0    0    0  0.00000000000E+00  0.00000000000E+00  0.45593999997E+02  0.45594000000E+02  0.51100000000E-03 0.  1.
         11   -1    0    0    0    0 -0.00000000000E+00 -0.00000000000E+00 -0.45593999997E+02  0.45594000000E+02  0.51100000000E-03 0. -1.
         23    2    1    2    0    0  0.00000000000E+00  0.17763568394E-14 -0.55511151231E-15  0.91188000000E+02  0.91188000000E+02 0.  0.
    9900012    2    3    3    0    0  0.36461815247E+02 -0.50986235499E+01 -0.56668423177E+00  0.54367067581E+02  0.39999962164E+02 0.  0.
        -12    1    3    3    0    0 -0.36461815247E+02  0.50986235499E+01  0.56668423177E+00  0.36820932419E+02  0.00000000000E+00 0.  1.
         11    1    4    4    0    0  0.10518647100E+02  0.93436659199E+01  0.69828182469E+00  0.14086647132E+02  0.51100000000E-03 0. -1.
        -11    1    4    4    0    0  0.26163387948E+02 -0.19758167062E+02 -0.57934239504E+01  0.33293720067E+02  0.51100000000E-03 0.  1.
        -12    1    4    4    0    0 -0.22021980166E+00  0.53158775918E+01  0.45284578939E+01  0.69867003821E+01  0.00000000000E+00 0.  1.
</event>
<event>
 8    1  0.2504019E-006  0.9118800E+02  0.7816164E-02  0.1184000E+00
        -11   -1    0    0    0    0  0.00000000000E+00  0.00000000000E+00  0.45593999997E+02  0.45594000000E+02  0.51100000000E-03 0.  1.
         11   -1    0    0    0    0 -0.00000000000E+00 -0.00000000000E+00 -0.45593999997E+02  0.45594000000E+02  0.51100000000E-03 0. -1.
         23    2    1    2    0    0  0.35527136788E-14  0.35527136788E-14  0.00000000000E+00  0.91188000000E+02  0.91188000000E+02 0.  0.
    9900012    2    3    3    0    0  0.21752018904E+02  0.28299024530E+02 -0.90438561482E+01  0.54367130241E+02  0.40000105011E+02 0.  0.
        -12    1    3    3    0    0 -0.21752018904E+02 -0.28299024530E+02  0.90438561482E+01  0.36820869759E+02  0.00000000000E+00 0.  1.
         11    1    4    4    0    0  0.37458237770E+00 -0.54661128173E+01  0.10912637779E+01  0.55865515466E+01  0.51100000000E-03 0. -1.
        -11    1    4    4    0    0  0.26613763563E+02  0.27214312968E+02 -0.37672841711E+01  0.38250538187E+02  0.51100000000E-03 0.  1.
        -12    1    4    4    0    0 -0.52363270367E+01  0.65508243795E+01 -0.63678357550E+01  0.10530040507E+02  0.00000000000E+00 0.  1.
</event>
<event>
 8    1  0.2504019E-006  0.9118800E+02  0.7816164E-02  0.1184000E+00
        -11   -1    0    0    0    0  0.00000000000E+00  0.00000000000E+00  0.45593999997E+02  0.45594000000E+02  0.51100000000E-03 0.  1.
         11   -1    0    0    0    0 -0.00000000000E+00 -0.00000000000E+00 -0.45593999997E+02  0.45594000000E+02  0.51100000000E-03 0. -1.
         23    2    1    2    0    0  0.88817841970E-15  0.00000000000E+00  0.71054273576E-14  0.91188000000E+02  0.91188000000E+02 0.  0.
    9900012    2    3    3    0    0 -0.37750308447E+01 -0.20694282539E+01  0.36568425520E+02  0.54367039445E+02  0.39999898022E+02 0.  0.
         12    1    3    3    0    0  0.37750308447E+01  0.20694282539E+01 -0.36568425520E+02  0.36820960555E+02  0.00000000000E+00 0. -1.
         11    1    4    4    0    0 -0.68594667298E+01  0.35880288312E+01  0.13347340031E+02  0.15429767363E+02  0.51100000000E-03 0. -1.
        -11    1    4    4    0    0  0.67100258751E+01  0.60135716500E+01  0.25012060770E+02  0.26585535079E+02  0.51100000000E-03 0.  1.
        -12    1    4    4    0    0 -0.36255899900E+01 -0.11671028735E+02 -0.17909752808E+01  0.12351737002E+02  0.00000000000E+00 0.  1.
</event>
<event>
 8    1  0.2504019E-006  0.9118800E+02  0.7816164E-02  0.1184000E+00
        -11   -1    0    0    0    0  0.00000000000E+00  0.00000000000E+00  0.45593999997E+02  0.45594000000E+02  0.51100000000E-03 0. -1.
         11   -1    0    0    0    0 -0.00000000000E+00 -0.00000000000E+00 -0.45593999997E+02  0.45594000000E+02  0.51100000000E-03 0.  1.
         23    2    1    2    0    0  0.00000000000E+00  0.35527136788E-14  0.00000000000E+00  0.91188000000E+02  0.91188000000E+02 0.  0.
    9900012    2    3    3    0    0  0.88784438649E+01  0.30776397057E+02 -0.18159398941E+02  0.54367120717E+02  0.40000083299E+02 0.  0.
         12    1    3    3    0    0 -0.88784438649E+01 -0.30776397057E+02  0.18159398941E+02  0.36820879283E+02  0.00000000000E+00 0. -1.
         11    1    4    4    0    0  0.12174360500E+01 -0.39998242585E+01 -0.88112141936E+01  0.97528580663E+01  0.51100000000E-03 0. -1.
        -11    1    4    4    0    0  0.59290638849E+01  0.29832520287E+01 -0.10871795684E+02  0.12737720867E+02  0.51100000000E-03 0.  1.
        -12    1    4    4    0    0  0.17319439300E+01  0.31792969287E+02  0.15236109366E+01  0.31876541784E+02  0.00000000000E+00 0.  1.
</event>
<event>
 8    1  0.2504019E-006  0.9118800E+02  0.7816164E-02  0.1184000E+00
        -11   -1    0    0    0    0  0.00000000000E+00  0.00000000000E+00  0.45593999997E+02  0.45594000000E+02  0.51100000000E-03 0. -1.
         11   -1    0    0    0    0 -0.00000000000E+00 -0.00000000000E+00 -0.45593999997E+02  0.45594000000E+02  0.51100000000E-03 0.  1.
         23    2    1    2    0    0  0.00000000000E+00  0.00000000000E+00 -0.71054273576E-14  0.91188000000E+02  0.91188000000E+02 0.  0.
    9900012    2    3    3    0    0 -0.16934279026E+02 -0.43681701557E+01  0.32402607160E+02  0.54367086549E+02  0.40000005406E+02 0.  0.
        -12    1    3    3    0    0  0.16934279026E+02  0.43681701557E+01 -0.32402607160E+02  0.36820913451E+02  0.00000000000E+00 0.  1.
         11    1    4    4    0    0 -0.17200520996E+02  0.42486276962E+01  0.16939346151E+02  0.24512246085E+02  0.51100000000E-03 0. -1.
        -11    1    4    4    0    0 -0.89842932543E+01 -0.38086747495E+01  0.16714517369E+02  0.19354550363E+02  0.51100000000E-03 0.  1.
        -12    1    4    4    0    0  0.92505352251E+01 -0.48081231024E+01 -0.12512563603E+01  0.10500290101E+02  0.00000000000E+00 0.  1.
</event>
<event>
 8    1  0.2504019E-006  0.9118800E+02  0.7816164E-02  0.1184000E+00
        -11   -1    0    0    0    0  0.00000000000E+00  0.00000000000E+00  0.45593999997E+02  0.45594000000E+02  0.51100000000E-03 0.  1.
         11   -1    0    0    0    0 -0.00000000000E+00 -0.00000000000E+00 -0.45593999997E+02  0.45594000000E+02  0.51100000000E-03 0. -1.
         23    2    1    2    0    0 -0.35527136788E-14  0.35527136788E-14  0.17763568394E-14  0.91188000000E+02  0.91188000000E+02 0.  0.
    9900012    2    3    3    0    0 -0.18913791558E+02  0.29442113221E+02  0.11454601998E+02  0.54367116673E+02  0.40000074080E+02 0.  0.
        -12    1    3    3    0    0  0.18913791558E+02 -0.29442113221E+02 -0.11454601998E+02  0.36820883327E+02  0.00000000000E+00 0.  1.
         11    1    4    4    0    0 -0.25484084781E+02  0.10512968772E+02 -0.12591164198E+01  0.27596131322E+02  0.51100000000E-03 0. -1.
        -11    1    4    4    0    0 -0.34257636915E+01  0.81133441684E+01  0.53562621401E+01  0.10307849186E+02  0.51100000000E-03 0.  1.
        -12    1    4    4    0    0  0.99960569140E+01  0.10815800280E+02  0.73574562773E+01  0.16463136165E+02  0.00000000000E+00 0.  1.
</event>
<event>
 8    1  0.2504019E-006  0.9118800E+02  0.7816164E-02  0.1184000E+00
        -11   -1    0    0    0    0  0.00000000000E+00  0.00000000000E+00  0.45593999997E+02  0.45594000000E+02  0.51100000000E-03 0.  1.
         11   -1    0    0    0    0 -0.00000000000E+00 -0.00000000000E+00 -0.45593999997E+02  0.45594000000E+02  0.51100000000E-03 0. -1.
         23    2    1    2    0    0 -0.35527136788E-14  0.00000000000E+00 -0.17763568394E-14  0.91188000000E+02  0.91188000000E+02 0.  0.
    9900012    2    3    3    0    0 -0.29937120419E+02  0.17074609303E+02 -0.12961684535E+02  0.54367099308E+02  0.40000034492E+02 0.  0.
        -12    1    3    3    0    0  0.29937120419E+02 -0.17074609303E+02  0.12961684535E+02  0.36820900692E+02  0.00000000000E+00 0.  1.
         11    1    4    4    0    0 -0.20417078176E+01 -0.85529178974E+01 -0.25237220768E+01  0.91482320015E+01  0.51100000000E-03 0. -1.
        -11    1    4    4    0    0 -0.80068876981E+01  0.35517474131E+01 -0.12690683448E+02  0.15420071561E+02  0.51100000000E-03 0.  1.
        -12    1    4    4    0    0 -0.19888524903E+02  0.22075779787E+02  0.22527209901E+01  0.29798795746E+02  0.00000000000E+00 0.  1.
</event>
<event>
 8    1  0.2504019E-006  0.9118800E+02  0.7816164E-02  0.1184000E+00
        -11   -1    0    0    0    0  0.00000000000E+00  0.00000000000E+00  0.45593999997E+02  0.45594000000E+02  0.51100000000E-03 0.  1.
         11   -1    0    0    0    0 -0.00000000000E+00 -0.00000000000E+00 -0.45593999997E+02  0.45594000000E+02  0.51100000000E-03 0. -1.
         23    2    1    2    0    0  0.35527136788E-14  0.17763568394E-14  0.35527136788E-14  0.91188000000E+02  0.91188000000E+02 0.  0.
    9900012    2    3    3    0    0 -0.24083946585E+02 -0.97927351544E+01 -0.26073862268E+02  0.54367076078E+02  0.39999981536E+02 0.  0.
        -12    1    3    3    0    0  0.24083946585E+02  0.97927351544E+01  0.26073862268E+02  0.36820923922E+02  0.00000000000E+00 0.  1.
         11    1    4    4    0    0 -0.43872701319E+01 -0.16258321028E+02  0.55095532970E+00  0.16848878119E+02  0.51100000000E-03 0. -1.
        -11    1    4    4    0    0  0.22617177551E+01 -0.11615163745E+01 -0.57846854042E+00  0.26075109982E+01  0.51100000000E-03 0.  1.
         12    1    4    4    0    0 -0.21958394208E+02  0.76271022476E+01 -0.26046349057E+02  0.34910686961E+02  0.00000000000E+00 0. -1.
</event>
<event>
 8    1  0.2504019E-006  0.9118800E+02  0.7816164E-02  0.1184000E+00
        -11   -1    0    0    0    0  0.00000000000E+00  0.00000000000E+00  0.45593999997E+02  0.45594000000E+02  0.51100000000E-03 0.  1.
         11   -1    0    0    0    0 -0.00000000000E+00 -0.00000000000E+00 -0.45593999997E+02  0.45594000000E+02  0.51100000000E-03 0. -1.
         23    2    1    2    0    0  0.00000000000E+00  0.44408920985E-15 -0.35527136788E-14  0.91188000000E+02  0.91188000000E+02 0.  0.
    9900012    2    3    3    0    0  0.33718463156E+02  0.34904409303E+01 -0.14375725690E+02  0.54367089845E+02  0.40000012920E+02 0.  0.
        -12    1    3    3    0    0 -0.33718463156E+02 -0.34904409303E+01  0.14375725690E+02  0.36820910155E+02  0.00000000000E+00 0.  1.
         11    1    4    4    0    0  0.17315423152E+02  0.10693359317E+02 -0.19800717490E+02  0.28394369614E+02  0.51100000000E-03 0. -1.
        -11    1    4    4    0    0  0.19543391014E+02 -0.70500884688E+01  0.13419503388E+01  0.20819431085E+02  0.51100000000E-03 0.  1.
        -12    1    4    4    0    0 -0.31403510091E+01 -0.15282991764E+00  0.40830414614E+01  0.51532891458E+01  0.00000000000E+00 0.  1.
</event>
<event>
 8    1  0.2504019E-006  0.9118800E+02  0.7816164E-02  0.1184000E+00
        -11   -1    0    0    0    0  0.00000000000E+00  0.00000000000E+00  0.45593999997E+02  0.45594000000E+02  0.51100000000E-03 0.  1.
         11   -1    0    0    0    0 -0.00000000000E+00 -0.00000000000E+00 -0.45593999997E+02  0.45594000000E+02  0.51100000000E-03 0. -1.
         23    2    1    2    0    0  0.00000000000E+00 -0.11102230246E-15  0.00000000000E+00  0.91188000000E+02  0.91188000000E+02 0.  0.
    9900012    2    3    3    0    0  0.36729284745E+02  0.74933579108E+00 -0.24862306710E+01  0.54367038512E+02  0.39999895895E+02 0.  0.
         12    1    3    3    0    0 -0.36729284745E+02 -0.74933579108E+00  0.24862306710E+01  0.36820961488E+02  0.00000000000E+00 0. -1.
         11    1    4    4    0    0 -0.44572593251E+01 -0.16318253025E+01 -0.47610511161E+01  0.67229177073E+01  0.51100000000E-03 0. -1.
        -11    1    4    4    0    0  0.15358321584E+02 -0.10534541729E+02  0.23084878355E+01  0.18766558759E+02  0.51100000000E-03 0.  1.
         12    1    4    4    0    0  0.25828222486E+02  0.12915702823E+02 -0.33667390409E-01  0.28877562045E+02  0.00000000000E+00 0. -1.
</event>
<event>
 8    1  0.2504019E-006  0.9118800E+02  0.7816164E-02  0.1184000E+00
        -11   -1    0    0    0    0  0.00000000000E+00  0.00000000000E+00  0.45593999997E+02  0.45594000000E+02  0.51100000000E-03 0. -1.
         11   -1    0    0    0    0 -0.00000000000E+00 -0.00000000000E+00 -0.45593999997E+02  0.45594000000E+02  0.51100000000E-03 0.  1.
         23    2    1    2    0    0  0.00000000000E+00  0.00000000000E+00  0.35527136788E-14  0.91188000000E+02  0.91188000000E+02 0.  0.
    9900012    2    3    3    0    0  0.33918967747E+02 -0.99903015573E+01 -0.10270284514E+02  0.54367065164E+02  0.39999956654E+02 0.  0.
         12    1    3    3    0    0 -0.33918967747E+02  0.99903015573E+01  0.10270284514E+02  0.36820934836E+02  0.00000000000E+00 0. -1.
         11    1    4    4    0    0  0.75057324346E+01 -0.12296039002E+01  0.51830235877E+01  0.92038947681E+01  0.51100000000E-03 0. -1.
        -11    1    4    4    0    0  0.16201036484E+02  0.61947031209E+01  0.47974080577E+01  0.17996195549E+02  0.51100000000E-03 0.  1.
         12    1    4    4    0    0  0.10212198828E+02 -0.14955400778E+02 -0.20250716160E+02  0.27166974846E+02  0.00000000000E+00 0. -1.
</event>
<event>
 8    1  0.2504019E-006  0.9118800E+02  0.7816164E-02  0.1184000E+00
        -11   -1    0    0    0    0  0.00000000000E+00  0.00000000000E+00  0.45593999997E+02  0.45594000000E+02  0.51100000000E-03 0. -1.
         11   -1    0    0    0    0 -0.00000000000E+00 -0.00000000000E+00 -0.45593999997E+02  0.45594000000E+02  0.51100000000E-03 0.  1.
         23    2    1    2    0    0  0.00000000000E+00  0.00000000000E+00 -0.88817841970E-15  0.91188000000E+02  0.91188000000E+02 0.  0.
    9900012    2    3    3    0    0 -0.32400750116E+02  0.16167517262E+02  0.66770735531E+01  0.54367074785E+02  0.39999978587E+02 0.  0.
        -12    1    3    3    0    0  0.32400750116E+02 -0.16167517262E+02 -0.66770735531E+01  0.36820925215E+02  0.00000000000E+00 0.  1.
         11    1    4    4    0    0 -0.33553876627E+02  0.15821698961E+02  0.15572119653E+02  0.40232818761E+02  0.51100000000E-03 0. -1.
        -11    1    4    4    0    0  0.13718267900E+01 -0.45389192496E+01 -0.99736771863E+00  0.48454555331E+01  0.51100000000E-03 0.  1.
         12    1    4    4    0    0 -0.21870027921E+00  0.48847375502E+01 -0.78976783813E+01  0.92888004910E+01  0.00000000000E+00 0. -1.
</event>
<event>
 8    1  0.2504019E-006  0.9118800E+02  0.7816164E-02  0.1184000E+00
        -11   -1    0    0    0    0  0.00000000000E+00  0.00000000000E+00  0.45593999997E+02  0.45594000000E+02  0.51100000000E-03 0.  1.
         11   -1    0    0    0    0 -0.00000000000E+00 -0.00000000000E+00 -0.45593999997E+02  0.45594000000E+02  0.51100000000E-03 0. -1.
         23    2    1    2    0    0 -0.35527136788E-14  0.00000000000E+00  0.00000000000E+00  0.91188000000E+02  0.91188000000E+02 0.  0.
    9900012    2    3    3    0    0  0.26517587835E+02 -0.25110317557E+02  0.46976598488E+01  0.54367102123E+02  0.40000040910E+02 0.  0.
         12    1    3    3    0    0 -0.26517587835E+02  0.25110317557E+02 -0.46976598488E+01  0.36820897877E+02  0.00000000000E+00 0. -1.
         11    1    4    4    0    0  0.15128149470E+02 -0.20064485705E+02  0.16071203412E+01  0.25179899306E+02  0.51100000000E-03 0. -1.
        -11    1    4    4    0    0  0.62331938575E+00  0.12222003735E+01  0.13121419469E+02  0.13192950767E+02  0.51100000000E-03 0.  1.
         12    1    4    4    0    0  0.10766118979E+02 -0.62680322261E+01 -0.10030879961E+02  0.15994252050E+02  0.00000000000E+00 0. -1.
</event>
<event>
 8    1  0.2504019E-006  0.9118800E+02  0.7816164E-02  0.1184000E+00
        -11   -1    0    0    0    0  0.00000000000E+00  0.00000000000E+00  0.45593999997E+02  0.45594000000E+02  0.51100000000E-03 0.  1.
         11   -1    0    0    0    0 -0.00000000000E+00 -0.00000000000E+00 -0.45593999997E+02  0.45594000000E+02  0.51100000000E-03 0. -1.
         23    2    1    2    0    0  0.00000000000E+00  0.35527136788E-14  0.00000000000E+00  0.91188000000E+02  0.91188000000E+02 0.  0.
    9900012    2    3    3    0    0 -0.20475351370E+02  0.14359412143E+02  0.27024923759E+02  0.54367092420E+02  0.40000018791E+02 0.  0.
         12    1    3    3    0    0  0.20475351370E+02 -0.14359412143E+02 -0.27024923759E+02  0.36820907580E+02  0.00000000000E+00 0. -1.
         11    1    4    4    0    0  0.25410082551E+01  0.56388656506E+01 -0.33588854879E+01  0.70381560625E+01  0.51100000000E-03 0. -1.
        -11    1    4    4    0    0 -0.86490829895E+01  0.17259799501E+02  0.13398029171E+02  0.23499244696E+02  0.51100000000E-03 0.  1.
        -12    1    4    4    0    0 -0.14367276635E+02 -0.85392530093E+01  0.16985780077E+02  0.23829691661E+02  0.00000000000E+00 0.  1.
</event>
<event>
 8    1  0.2504019E-006  0.9118800E+02  0.7816164E-02  0.1184000E+00
        -11   -1    0    0    0    0  0.00000000000E+00  0.00000000000E+00  0.45593999997E+02  0.45594000000E+02  0.51100000000E-03 0.  1.
         11   -1    0    0    0    0 -0.00000000000E+00 -0.00000000000E+00 -0.45593999997E+02  0.45594000000E+02  0.51100000000E-03 0. -1.
         23    2    1    2    0    0  0.71054273576E-14  0.00000000000E+00  0.00000000000E+00  0.91188000000E+02  0.91188000000E+02 0.  0.
    9900012    2    3    3    0    0 -0.32153353940E+02  0.16754865079E+02 -0.64201742870E+01  0.54367050647E+02  0.39999923559E+02 0.  0.
        -12    1    3    3    0    0  0.32153353940E+02 -0.16754865079E+02  0.64201742870E+01  0.36820949353E+02  0.00000000000E+00 0.  1.
         11    1    4    4    0    0  0.50272799526E+01  0.22293806183E+01 -0.51153890174E+01  0.75107181231E+01  0.51100000000E-03 0. -1.
        -11    1    4    4    0    0  0.92851755126E+00  0.34815435208E+00 -0.58580082313E+01  0.59413480789E+01  0.51100000000E-03 0.  1.
         12    1    4    4    0    0 -0.38109151444E+02  0.14177330109E+02  0.45532229617E+01  0.40914984445E+02  0.00000000000E+00 0. -1.
</event>
<event>
 8    1  0.2504019E-006  0.9118800E+02  0.7816164E-02  0.1184000E+00
        -11   -1    0    0    0    0  0.00000000000E+00  0.00000000000E+00  0.45593999997E+02  0.45594000000E+02  0.51100000000E-03 0. -1.
         11   -1    0    0    0    0 -0.00000000000E+00 -0.00000000000E+00 -0.45593999997E+02  0.45594000000E+02  0.51100000000E-03 0.  1.
         23    2    1    2    0    0  0.00000000000E+00  0.00000000000E+00  0.00000000000E+00  0.91188000000E+02  0.91188000000E+02 0.  0.
    9900012    2    3    3    0    0 -0.18098773568E+02 -0.23000905213E+02  0.22342139664E+02  0.54367103079E+02  0.40000043090E+02 0.  0.
        -12    1    3    3    0    0  0.18098773568E+02  0.23000905213E+02 -0.22342139664E+02  0.36820896921E+02  0.00000000000E+00 0.  1.
         11    1    4    4    0    0  0.24313251610E+01 -0.94250226203E+01  0.20379848440E+02  0.22584964382E+02  0.51100000000E-03 0. -1.
        -11    1    4    4    0    0 -0.52287243035E+01  0.52612148975E+01 -0.17438108060E+00  0.74195922437E+01  0.51100000000E-03 0.  1.
         12    1    4    4    0    0 -0.15301374426E+02 -0.18837097490E+02  0.21366723038E+01  0.24362546454E+02  0.00000000000E+00 0. -1.
</event>
<event>
 8    1  0.2504019E-006  0.9118800E+02  0.7816164E-02  0.1184000E+00
        -11   -1    0    0    0    0  0.00000000000E+00  0.00000000000E+00  0.45593999997E+02  0.45594000000E+02  0.51100000000E-03 0.  1.
         11   -1    0    0    0    0 -0.00000000000E+00 -0.00000000000E+00 -0.45593999997E+02  0.45594000000E+02  0.51100000000E-03 0. -1.
         23    2    1    2    0    0  0.35527136788E-14  0.00000000000E+00 -0.71054273576E-14  0.91188000000E+02  0.91188000000E+02 0.  0.
    9900012    2    3    3    0    0 -0.21860875902E+02 -0.85997939093E+01  0.28353566430E+02  0.54367094528E+02  0.40000023595E+02 0.  0.
         12    1    3    3    0    0  0.21860875902E+02  0.85997939093E+01 -0.28353566430E+02  0.36820905472E+02  0.00000000000E+00 0. -1.
         11    1    4    4    0    0 -0.16225269506E+02 -0.59082742475E+01 -0.29684311577E+01  0.17520806458E+02  0.51100000000E-03 0. -1.
        -11    1    4    4    0    0 -0.14653300973E+01  0.70361293230E+01  0.58638253041E+01  0.92757078222E+01  0.51100000000E-03 0.  1.
        -12    1    4    4    0    0 -0.41702762981E+01 -0.97276489848E+01  0.25458172284E+02  0.27570580248E+02  0.00000000000E+00 0.  1.
</event>
<event>
 8    1  0.2504019E-006  0.9118800E+02  0.7816164E-02  0.1184000E+00
        -11   -1    0    0    0    0  0.00000000000E+00  0.00000000000E+00  0.45593999997E+02  0.45594000000E+02  0.51100000000E-03 0. -1.
         11   -1    0    0    0    0 -0.00000000000E+00 -0.00000000000E+00 -0.45593999997E+02  0.45594000000E+02  0.51100000000E-03 0.  1.
         23    2    1    2    0    0  0.00000000000E+00  0.00000000000E+00  0.00000000000E+00  0.91188000000E+02  0.91188000000E+02 0.  0.
    9900012    2    3    3    0    0  0.24792984469E+02  0.60890929430E+01  0.26533184955E+02  0.54367095128E+02  0.40000024963E+02 0.  0.
        -12    1    3    3    0    0 -0.24792984469E+02 -0.60890929430E+01 -0.26533184955E+02  0.36820904872E+02  0.00000000000E+00 0.  1.
         11    1    4    4    0    0  0.27868306968E+01  0.11272575679E+02  0.51062486124E+01  0.12685076386E+02  0.51100000000E-03 0. -1.
        -11    1    4    4    0    0  0.12622647967E+02 -0.12393386724E+02  0.56642130709E+00  0.17698816615E+02  0.51100000000E-03 0.  1.
        -12    1    4    4    0    0  0.93835058049E+01  0.72099039884E+01  0.20860515036E+02  0.23983202127E+02  0.00000000000E+00 0.  1.
</event>
<event>
 8    1  0.2504019E-006  0.9118800E+02  0.7816164E-02  0.1184000E+00
        -11   -1    0    0    0    0  0.00000000000E+00  0.00000000000E+00  0.45593999997E+02  0.45594000000E+02  0.51100000000E-03 0. -1.
         11   -1    0    0    0    0 -0.00000000000E+00 -0.00000000000E+00 -0.45593999997E+02  0.45594000000E+02  0.51100000000E-03 0.  1.
         23    2    1    2    0    0  0.88817841970E-15  0.00000000000E+00  0.00000000000E+00  0.91188000000E+02  0.91188000000E+02 0.  0.
    9900012    2    3    3    0    0 -0.41277923508E+01 -0.34406657390E+02 -0.12446831930E+02  0.54367077041E+02  0.39999983731E+02 0.  0.
         12    1    3    3    0    0  0.41277923508E+01  0.34406657390E+02  0.12446831930E+02  0.36820922959E+02  0.00000000000E+00 0. -1.
         11    1    4    4    0    0  0.10021420719E+01 -0.26865344461E+02 -0.52378864401E+01  0.27389532240E+02  0.51100000000E-03 0. -1.
        -11    1    4    4    0    0 -0.14697844095E+02 -0.21287095454E+01 -0.26933514152E+01  0.15093447833E+02  0.51100000000E-03 0.  1.
        -12    1    4    4    0    0  0.95679096726E+01 -0.54126033842E+01 -0.45155940743E+01  0.11884096968E+02  0.00000000000E+00 0.  1.
</event>
<event>
 8    1  0.2504019E-006  0.9118800E+02  0.7816164E-02  0.1184000E+00
        -11   -1    0    0    0    0  0.00000000000E+00  0.00000000000E+00  0.45593999997E+02  0.45594000000E+02  0.51100000000E-03 0.  1.
         11   -1    0    0    0    0 -0.00000000000E+00 -0.00000000000E+00 -0.45593999997E+02  0.45594000000E+02  0.51100000000E-03 0. -1.
         23    2    1    2    0    0  0.00000000000E+00 -0.88817841970E-15 -0.71054273576E-14  0.91188000000E+02  0.91188000000E+02 0.  0.
    9900012    2    3    3    0    0  0.10521093608E+02  0.24531364412E+01 -0.35200401910E+02  0.54367087685E+02  0.40000007994E+02 0.  0.
        -12    1    3    3    0    0 -0.10521093608E+02 -0.24531364412E+01  0.35200401910E+02  0.36820912315E+02  0.00000000000E+00 0.  1.
         11    1    4    4    0    0  0.98232726848E+01  0.51886393705E+01 -0.84959158373E+01  0.13985680210E+02  0.51100000000E-03 0. -1.
        -11    1    4    4    0    0 -0.31499141509E+01  0.56683515552E+01 -0.29905095057E+02  0.30600112404E+02  0.51100000000E-03 0.  1.
        -12    1    4    4    0    0  0.38477350746E+01 -0.84038544845E+01  0.32006089839E+01  0.97812950711E+01  0.00000000000E+00 0.  1.
</event>
<event>
 8    1  0.2504019E-006  0.9118800E+02  0.7816164E-02  0.1184000E+00
        -11   -1    0    0    0    0  0.00000000000E+00  0.00000000000E+00  0.45593999997E+02  0.45594000000E+02  0.51100000000E-03 0.  1.
         11   -1    0    0    0    0 -0.00000000000E+00 -0.00000000000E+00 -0.45593999997E+02  0.45594000000E+02  0.51100000000E-03 0. -1.
         23    2    1    2    0    0  0.00000000000E+00 -0.35527136788E-14 -0.35527136788E-14  0.91188000000E+02  0.91188000000E+02 0.  0.
    9900012    2    3    3    0    0  0.19044555414E+02 -0.13046466817E+02 -0.28685754659E+02  0.54367110444E+02  0.40000059879E+02 0.  0.
        -12    1    3    3    0    0 -0.19044555414E+02  0.13046466817E+02  0.28685754659E+02  0.36820889556E+02  0.00000000000E+00 0.  1.
         11    1    4    4    0    0 -0.77366475921E+01  0.17334064465E+01  0.20537561794E+01  0.81901360537E+01  0.51100000000E-03 0. -1.
        -11    1    4    4    0    0 -0.81080173062E+00  0.11341053760E+01  0.57645383669E+00  0.15086065548E+01  0.51100000000E-03 0.  1.
        -12    1    4    4    0    0  0.27592004737E+02 -0.15913978640E+02 -0.31315964675E+02  0.44668367835E+02  0.00000000000E+00 0.  1.
</event>
<event>
 8    1  0.2504019E-006  0.9118800E+02  0.7816164E-02  0.1184000E+00
        -11   -1    0    0    0    0  0.00000000000E+00  0.00000000000E+00  0.45593999997E+02  0.45594000000E+02  0.51100000000E-03 0.  1.
         11   -1    0    0    0    0 -0.00000000000E+00 -0.00000000000E+00 -0.45593999997E+02  0.45594000000E+02  0.51100000000E-03 0. -1.
         23    2    1    2    0    0  0.00000000000E+00  0.00000000000E+00  0.35527136788E-14  0.91188000000E+02  0.91188000000E+02 0.  0.
    9900012    2    3    3    0    0 -0.28507091925E+02  0.14630730863E+02 -0.18140213822E+02  0.54367082941E+02  0.39999997180E+02 0.  0.
        -12    1    3    3    0    0  0.28507091925E+02 -0.14630730863E+02  0.18140213822E+02  0.36820917059E+02  0.00000000000E+00 0.  1.
         11    1    4    4    0    0  0.60111516496E+01  0.33720132485E+01 -0.13147491214E+02  0.14844559373E+02  0.51100000000E-03 0. -1.
        -11    1    4    4    0    0 -0.11894728605E+02  0.93776205603E+00 -0.81599749129E+01  0.14455073749E+02  0.51100000000E-03 0.  1.
        -12    1    4    4    0    0 -0.22623514970E+02  0.10320955558E+02  0.31672523051E+01  0.25067449818E+02  0.00000000000E+00 0.  1.
</event>
<event>
 8    1  0.2504019E-006  0.9118800E+02  0.7816164E-02  0.1184000E+00
        -11   -1    0    0    0    0  0.00000000000E+00  0.00000000000E+00  0.45593999997E+02  0.45594000000E+02  0.51100000000E-03 0. -1.
         11   -1    0    0    0    0 -0.00000000000E+00 -0.00000000000E+00 -0.45593999997E+02  0.45594000000E+02  0.51100000000E-03 0.  1.
         23    2    1    2    0    0  0.00000000000E+00  0.00000000000E+00  0.88817841970E-15  0.91188000000E+02  0.91188000000E+02 0.  0.
    9900012    2    3    3    0    0  0.35040426146E+02 -0.10330938269E+02 -0.46055186137E+01  0.54367210333E+02  0.40000287595E+02 0.  0.
        -12    1    3    3    0    0 -0.35040426146E+02  0.10330938269E+02  0.46055186137E+01  0.36820789667E+02  0.00000000000E+00 0.  1.
         11    1    4    4    0    0 -0.10474478078E+01 -0.30459030299E+01  0.90383392606E+01  0.95951158945E+01  0.51100000000E-03 0. -1.
        -11    1    4    4    0    0  0.37434380746E+02 -0.32567793087E+01 -0.93269115608E+01  0.38716027079E+02  0.51100000000E-03 0.  1.
        -12    1    4    4    0    0 -0.13465067921E+01 -0.40282559309E+01 -0.43169463134E+01  0.60560673592E+01  0.00000000000E+00 0.  1.
</event>
<event>
 8    1  0.2504019E-006  0.9118800E+02  0.7816164E-02  0.1184000E+00
        -11   -1    0    0    0    0  0.00000000000E+00  0.00000000000E+00  0.45593999997E+02  0.45594000000E+02  0.51100000000E-03 0. -1.
         11   -1    0    0    0    0 -0.00000000000E+00 -0.00000000000E+00 -0.45593999997E+02  0.45594000000E+02  0.51100000000E-03 0.  1.
         23    2    1    2    0    0  0.00000000000E+00  0.00000000000E+00  0.00000000000E+00  0.91188000000E+02  0.91188000000E+02 0.  0.
    9900012    2    3    3    0    0  0.23969557018E+02  0.20946258570E+02 -0.18506611931E+02  0.54367080717E+02  0.39999992109E+02 0.  0.
         12    1    3    3    0    0 -0.23969557018E+02 -0.20946258570E+02  0.18506611931E+02  0.36820919283E+02  0.00000000000E+00 0. -1.
         11    1    4    4    0    0 -0.61349492603E+01  0.22265106152E+01  0.19445424187E+01  0.68100071531E+01  0.51100000000E-03 0. -1.
        -11    1    4    4    0    0  0.14060872422E+02 -0.43522790796E+01 -0.54000564449E+01  0.15678363318E+02  0.51100000000E-03 0.  1.
        -12    1    4    4    0    0  0.16043633856E+02  0.23072027034E+02 -0.15051097905E+02  0.31878710246E+02  0.00000000000E+00 0.  1.
</event>
<event>
 8    1  0.2504019E-006  0.9118800E+02  0.7816164E-02  0.1184000E+00
        -11   -1    0    0    0    0  0.00000000000E+00  0.00000000000E+00  0.45593999997E+02  0.45594000000E+02  0.51100000000E-03 0. -1.
         11   -1    0    0    0    0 -0.00000000000E+00 -0.00000000000E+00 -0.45593999997E+02  0.45594000000E+02  0.51100000000E-03 0.  1.
         23    2    1    2    0    0  0.00000000000E+00 -0.35527136788E-14  0.00000000000E+00  0.91188000000E+02  0.91188000000E+02 0.  0.
    9900012    2    3    3    0    0  0.19285228448E+02 -0.26913153884E+02 -0.16110319720E+02  0.54367078098E+02  0.39999986140E+02 0.  0.
         12    1    3    3    0    0 -0.19285228448E+02  0.26913153884E+02  0.16110319720E+02  0.36820921902E+02  0.00000000000E+00 0. -1.
         11    1    4    4    0    0  0.55739749243E+01  0.14917565673E+01  0.23903178158E+01  0.62456507775E+01  0.51100000000E-03 0. -1.
        -11    1    4    4    0    0  0.20706687392E+02 -0.20286189025E+02 -0.22486879080E+02  0.36687274346E+02  0.51100000000E-03 0.  1.
        -12    1    4    4    0    0 -0.69954338687E+01 -0.81187214257E+01  0.39862415444E+01  0.11434152975E+02  0.00000000000E+00 0.  1.
</event>
<event>
 8    1  0.2504019E-006  0.9118800E+02  0.7816164E-02  0.1184000E+00
        -11   -1    0    0    0    0  0.00000000000E+00  0.00000000000E+00  0.45593999997E+02  0.45594000000E+02  0.51100000000E-03 0.  1.
         11   -1    0    0    0    0 -0.00000000000E+00 -0.00000000000E+00 -0.45593999997E+02  0.45594000000E+02  0.51100000000E-03 0. -1.
         23    2    1    2    0    0  0.27755575616E-15  0.00000000000E+00  0.00000000000E+00  0.91188000000E+02  0.91188000000E+02 0.  0.
    9900012    2    3    3    0    0 -0.39869417295E+00 -0.27631814223E+02  0.24333191480E+02  0.54367077661E+02  0.39999985143E+02 0.  0.
         12    1    3    3    0    0  0.39869417295E+00  0.27631814223E+02 -0.24333191480E+02  0.36820922339E+02  0.00000000000E+00 0. -1.
         11    1    4    4    0    0  0.10357814580E+02 -0.87493611460E+01 -0.40138396898E+01  0.14140245848E+02  0.51100000000E-03 0. -1.
        -11    1    4    4    0    0 -0.94934948899E+01 -0.19606176528E+02  0.14195845210E+02  0.26000973535E+02  0.51100000000E-03 0.  1.
         12    1    4    4    0    0 -0.12630138631E+01  0.72372345115E+00  0.14151185960E+02  0.14225858278E+02  0.00000000000E+00 0. -1.
</event>
<event>
 8    1  0.2504019E-006  0.9118800E+02  0.7816164E-02  0.1184000E+00
        -11   -1    0    0    0    0  0.00000000000E+00  0.00000000000E+00  0.45593999997E+02  0.45594000000E+02  0.51100000000E-03 0. -1.
         11   -1    0    0    0    0 -0.00000000000E+00 -0.00000000000E+00 -0.45593999997E+02  0.45594000000E+02  0.51100000000E-03 0.  1.
         23    2    1    2    0    0  0.00000000000E+00  0.00000000000E+00  0.00000000000E+00  0.91188000000E+02  0.91188000000E+02 0.  0.
    9900012    2    3    3    0    0  0.41199278645E+01  0.23169446060E+02  0.28319304191E+02  0.54367081677E+02  0.39999994299E+02 0.  0.
        -12    1    3    3    0    0 -0.41199278645E+01 -0.23169446060E+02 -0.28319304191E+02  0.36820918323E+02  0.00000000000E+00 0.  1.
         11    1    4    4    0    0 -0.65761094913E+01  0.13279334752E+02  0.22871092812E+02  0.27252024405E+02  0.51100000000E-03 0. -1.
        -11    1    4    4    0    0 -0.64929558561E+01  0.57362088577E+01  0.18954428813E+00  0.86659387897E+01  0.51100000000E-03 0.  1.
         12    1    4    4    0    0  0.17188993212E+02  0.41539024494E+01  0.52586670908E+01  0.18449118482E+02  0.00000000000E+00 0. -1.
</event>
<event>
 8    1  0.2504019E-006  0.9118800E+02  0.7816164E-02  0.1184000E+00
        -11   -1    0    0    0    0  0.00000000000E+00  0.00000000000E+00  0.45593999997E+02  0.45594000000E+02  0.51100000000E-03 0.  1.
         11   -1    0    0    0    0 -0.00000000000E+00 -0.00000000000E+00 -0.45593999997E+02  0.45594000000E+02  0.51100000000E-03 0. -1.
         23    2    1    2    0    0  0.00000000000E+00  0.00000000000E+00 -0.17763568394E-14  0.91188000000E+02  0.91188000000E+02 0.  0.
    9900012    2    3    3    0    0 -0.35225416638E+02  0.91375241027E+01  0.56084915876E+01  0.54367088796E+02  0.40000010528E+02 0.  0.
         12    1    3    3    0    0  0.35225416638E+02 -0.91375241027E+01 -0.56084915876E+01  0.36820911204E+02  0.00000000000E+00 0. -1.
         11    1    4    4    0    0 -0.23534453045E+01  0.55385345480E+01  0.87521260539E+00  0.60811238358E+01  0.51100000000E-03 0. -1.
        -11    1    4    4    0    0 -0.75285315201E+01  0.57743905497E+01 -0.13847154297E+02  0.16785888581E+02  0.51100000000E-03 0.  1.
        -12    1    4    4    0    0 -0.25343439813E+02 -0.21754009950E+01  0.18580433279E+02  0.31500076379E+02  0.00000000000E+00 0.  1.
</event>
<event>
 8    1  0.2504019E-006  0.9118800E+02  0.7816164E-02  0.1184000E+00
        -11   -1    0    0    0    0  0.00000000000E+00  0.00000000000E+00  0.45593999997E+02  0.45594000000E+02  0.51100000000E-03 0. -1.
         11   -1    0    0    0    0 -0.00000000000E+00 -0.00000000000E+00 -0.45593999997E+02  0.45594000000E+02  0.51100000000E-03 0.  1.
         23    2    1    2    0    0  0.17763568394E-14  0.00000000000E+00  0.00000000000E+00  0.91188000000E+02  0.91188000000E+02 0.  0.
    9900012    2    3    3    0    0  0.81985003785E+01  0.83913510573E+01 -0.34902005958E+02  0.54367079304E+02  0.39999988888E+02 0.  0.
         12    1    3    3    0    0 -0.81985003785E+01 -0.83913510573E+01  0.34902005958E+02  0.36820920696E+02  0.00000000000E+00 0. -1.
         11    1    4    4    0    0  0.10790203904E+02 -0.59091719743E+00  0.26042550241E+01  0.11115746845E+02  0.51100000000E-03 0. -1.
        -11    1    4    4    0    0  0.13883675269E-01  0.10493731525E+02 -0.70398667196E+01  0.12636388636E+02  0.51100000000E-03 0.  1.
         12    1    4    4    0    0 -0.26055872009E+01 -0.15114632703E+01 -0.30466394263E+02  0.30614943822E+02  0.00000000000E+00 0. -1.
</event>
<event>
 8    1  0.2504019E-006  0.9118800E+02  0.7816164E-02  0.1184000E+00
        -11   -1    0    0    0    0  0.00000000000E+00  0.00000000000E+00  0.45593999997E+02  0.45594000000E+02  0.51100000000E-03 0.  1.
         11   -1    0    0    0    0 -0.00000000000E+00 -0.00000000000E+00 -0.45593999997E+02  0.45594000000E+02  0.51100000000E-03 0. -1.
         23    2    1    2    0    0  0.00000000000E+00  0.00000000000E+00  0.00000000000E+00  0.91188000000E+02  0.91188000000E+02 0.  0.
    9900012    2    3    3    0    0 -0.18356448384E+02  0.11057772202E+02  0.29942354875E+02  0.54367107306E+02  0.40000052726E+02 0.  0.
         12    1    3    3    0    0  0.18356448384E+02 -0.11057772202E+02 -0.29942354875E+02  0.36820892694E+02  0.00000000000E+00 0. -1.
         11    1    4    4    0    0  0.32788656516E+01 -0.99939956936E+01  0.12791961471E+02  0.16560953729E+02  0.51100000000E-03 0. -1.
        -11    1    4    4    0    0 -0.40164993137E+01  0.11613151090E+02  0.14181039766E+01  0.12369663056E+02  0.51100000000E-03 0.  1.
        -12    1    4    4    0    0 -0.17618814722E+02  0.94386168059E+01  0.15732289427E+02  0.25436490521E+02  0.00000000000E+00 0.  1.
</event>
<event>
 8    1  0.2504019E-006  0.9118800E+02  0.7816164E-02  0.1184000E+00
        -11   -1    0    0    0    0  0.00000000000E+00  0.00000000000E+00  0.45593999997E+02  0.45594000000E+02  0.51100000000E-03 0.  1.
         11   -1    0    0    0    0 -0.00000000000E+00 -0.00000000000E+00 -0.45593999997E+02  0.45594000000E+02  0.51100000000E-03 0. -1.
         23    2    1    2    0    0  0.00000000000E+00  0.00000000000E+00 -0.70776717820E-15  0.91188000000E+02  0.91188000000E+02 0.  0.
    9900012    2    3    3    0    0  0.21027013466E+02  0.30226508368E+02  0.51049617016E-01  0.54367085977E+02  0.40000004102E+02 0.  0.
         12    1    3    3    0    0 -0.21027013466E+02 -0.30226508368E+02 -0.51049617016E-01  0.36820914023E+02  0.00000000000E+00 0. -1.
         11    1    4    4    0    0  0.26429929506E+02  0.20657859605E+02 -0.37942566546E+01  0.33759216830E+02  0.51100000000E-03 0. -1.
        -11    1    4    4    0    0 -0.33831547448E+01  0.13301895802E+02 -0.14720885489E+01  0.13804101307E+02  0.51100000000E-03 0.  1.
        -12    1    4    4    0    0 -0.20197612957E+01 -0.37332470383E+01  0.53173948205E+01  0.68037678398E+01  0.00000000000E+00 0.  1.
</event>
<event>
 8    1  0.2504019E-006  0.9118800E+02  0.7816164E-02  0.1184000E+00
        -11   -1    0    0    0    0  0.00000000000E+00  0.00000000000E+00  0.45593999997E+02  0.45594000000E+02  0.51100000000E-03 0.  1.
         11   -1    0    0    0    0 -0.00000000000E+00 -0.00000000000E+00 -0.45593999997E+02  0.45594000000E+02  0.51100000000E-03 0. -1.
         23    2    1    2    0    0  0.00000000000E+00 -0.88817841970E-15  0.00000000000E+00  0.91188000000E+02  0.91188000000E+02 0.  0.
    9900012    2    3    3    0    0 -0.24415865208E+02  0.33027538117E+01  0.27363081411E+02  0.54367070070E+02  0.39999967838E+02 0.  0.
         12    1    3    3    0    0  0.24415865208E+02 -0.33027538117E+01 -0.27363081411E+02  0.36820929930E+02  0.00000000000E+00 0. -1.
         11    1    4    4    0    0 -0.16852082741E+01  0.57783105944E+01 -0.75385002144E-02  0.60190412312E+01  0.51100000000E-03 0. -1.
        -11    1    4    4    0    0  0.34973947168E+01 -0.57491569897E+01  0.19712407098E+02  0.20829391968E+02  0.51100000000E-03 0.  1.
         12    1    4    4    0    0 -0.26228051651E+02  0.32736002070E+01  0.76582128140E+01  0.27518636871E+02  0.00000000000E+00 0. -1.
</event>
<event>
 8    1  0.2504019E-006  0.9118800E+02  0.7816164E-02  0.1184000E+00
        -11   -1    0    0    0    0  0.00000000000E+00  0.00000000000E+00  0.45593999997E+02  0.45594000000E+02  0.51100000000E-03 0.  1.
         11   -1    0    0    0    0 -0.00000000000E+00 -0.00000000000E+00 -0.45593999997E+02  0.45594000000E+02  0.51100000000E-03 0. -1.
         23    2    1    2    0    0  0.00000000000E+00  0.88817841970E-15  0.00000000000E+00  0.91188000000E+02  0.91188000000E+02 0.  0.
    9900012    2    3    3    0    0  0.22946308098E+02 -0.52227310718E+01  0.28319064245E+02  0.54367090521E+02  0.40000014460E+02 0.  0.
         12    1    3    3    0    0 -0.22946308098E+02  0.52227310718E+01 -0.28319064245E+02  0.36820909479E+02  0.00000000000E+00 0. -1.
         11    1    4    4    0    0 -0.11728177842E+01 -0.33080540786E+01 -0.30026894815E+01  0.46189682534E+01  0.51100000000E-03 0. -1.
        -11    1    4    4    0    0  0.47134296109E+00 -0.12192139173E+02  0.14550214388E+02  0.18988922055E+02  0.51100000000E-03 0.  1.
        -12    1    4    4    0    0  0.23647782921E+02  0.10277462180E+02  0.16771539339E+02  0.30759200213E+02  0.00000000000E+00 0.  1.
</event>
<event>
 8    1  0.2504019E-006  0.9118800E+02  0.7816164E-02  0.1184000E+00
        -11   -1    0    0    0    0  0.00000000000E+00  0.00000000000E+00  0.45593999997E+02  0.45594000000E+02  0.51100000000E-03 0.  1.
         11   -1    0    0    0    0 -0.00000000000E+00 -0.00000000000E+00 -0.45593999997E+02  0.45594000000E+02  0.51100000000E-03 0. -1.
         23    2    1    2    0    0  0.00000000000E+00  0.71054273576E-14  0.35527136788E-14  0.91188000000E+02  0.91188000000E+02 0.  0.
    9900012    2    3    3    0    0  0.86998960345E+00 -0.32688451748E+02 -0.16925679401E+02  0.54367212627E+02  0.40000292826E+02 0.  0.
        -12    1    3    3    0    0 -0.86998960345E+00  0.32688451748E+02  0.16925679401E+02  0.36820787373E+02  0.00000000000E+00 0.  1.
         11    1    4    4    0    0 -0.91904876406E+01 -0.51062695120E+01 -0.10708523555E+02  0.15007049290E+02  0.51100000000E-03 0. -1.
        -11    1    4    4    0    0 -0.23781469011E+01 -0.18149844208E+02  0.62917898905E+01  0.19356111380E+02  0.51100000000E-03 0.  1.
         12    1    4    4    0    0  0.12438624145E+02 -0.94323380275E+01 -0.12508945736E+02  0.20004051957E+02  0.00000000000E+00 0. -1.
</event>
<event>
 8    1  0.2504019E-006  0.9118800E+02  0.7816164E-02  0.1184000E+00
        -11   -1    0    0    0    0  0.00000000000E+00  0.00000000000E+00  0.45593999997E+02  0.45594000000E+02  0.51100000000E-03 0.  1.
         11   -1    0    0    0    0 -0.00000000000E+00 -0.00000000000E+00 -0.45593999997E+02  0.45594000000E+02  0.51100000000E-03 0. -1.
         23    2    1    2    0    0  0.00000000000E+00  0.00000000000E+00  0.00000000000E+00  0.91188000000E+02  0.91188000000E+02 0.  0.
    9900012    2    3    3    0    0 -0.19300245957E+02 -0.54636572014E+01  0.30877664495E+02  0.54367065620E+02  0.39999957693E+02 0.  0.
         12    1    3    3    0    0  0.19300245957E+02  0.54636572014E+01 -0.30877664495E+02  0.36820934380E+02  0.00000000000E+00 0. -1.
         11    1    4    4    0    0  0.20631279610E+01  0.54182605934E+01 -0.43277559066E+01  0.72348819126E+01  0.51100000000E-03 0. -1.
        -11    1    4    4    0    0 -0.23165649974E+02 -0.78404313149E+01  0.20212218034E+02  0.31727802635E+02  0.51100000000E-03 0.  1.
        -12    1    4    4    0    0  0.18022760564E+01 -0.30414864799E+01  0.14993202367E+02  0.15404381072E+02  0.00000000000E+00 0.  1.
</event>
<event>
 8    1  0.2504019E-006  0.9118800E+02  0.7816164E-02  0.1184000E+00
        -11   -1    0    0    0    0  0.00000000000E+00  0.00000000000E+00  0.45593999997E+02  0.45594000000E+02  0.51100000000E-03 0. -1.
         11   -1    0    0    0    0 -0.00000000000E+00 -0.00000000000E+00 -0.45593999997E+02  0.45594000000E+02  0.51100000000E-03 0.  1.
         23    2    1    2    0    0  0.00000000000E+00  0.00000000000E+00  0.00000000000E+00  0.91188000000E+02  0.91188000000E+02 0.  0.
    9900012    2    3    3    0    0  0.28795745337E+02  0.61239001836E+01  0.22115187922E+02  0.54367100503E+02  0.40000037216E+02 0.  0.
        -12    1    3    3    0    0 -0.28795745337E+02 -0.61239001836E+01 -0.22115187922E+02  0.36820899497E+02  0.00000000000E+00 0.  1.
         11    1    4    4    0    0  0.79693056661E+01  0.12045589162E+02  0.14633469547E+02  0.20560751016E+02  0.51100000000E-03 0. -1.
        -11    1    4    4    0    0  0.24310654993E+02  0.19128350857E+01  0.52094966770E+01  0.24936032967E+02  0.51100000000E-03 0.  1.
         12    1    4    4    0    0 -0.34842153218E+01 -0.78345240645E+01  0.22722216972E+01  0.88703165201E+01  0.00000000000E+00 0. -1.
</event>
<event>
 8    1  0.2504019E-006  0.9118800E+02  0.7816164E-02  0.1184000E+00
        -11   -1    0    0    0    0  0.00000000000E+00  0.00000000000E+00  0.45593999997E+02  0.45594000000E+02  0.51100000000E-03 0. -1.
         11   -1    0    0    0    0 -0.00000000000E+00 -0.00000000000E+00 -0.45593999997E+02  0.45594000000E+02  0.51100000000E-03 0.  1.
         23    2    1    2    0    0 -0.71054273576E-14  0.13322676296E-14 -0.44408920985E-15  0.91188000000E+02  0.91188000000E+02 0.  0.
    9900012    2    3    3    0    0 -0.36673432780E+02 -0.28927217984E+01 -0.15720801852E+01  0.54367082747E+02  0.39999996738E+02 0.  0.
         12    1    3    3    0    0  0.36673432780E+02  0.28927217984E+01  0.15720801852E+01  0.36820917253E+02  0.00000000000E+00 0. -1.
         11    1    4    4    0    0 -0.66583909782E+01  0.10173694157E+01 -0.10291764829E+02  0.12299985143E+02  0.51100000000E-03 0. -1.
        -11    1    4    4    0    0 -0.14695194885E+02  0.63298976143E+01 -0.73587778779E+01  0.17611586205E+02  0.51100000000E-03 0.  1.
         12    1    4    4    0    0 -0.15319846916E+02 -0.10239988828E+02  0.16078462522E+02  0.24455511400E+02  0.00000000000E+00 0. -1.
</event>
<event>
 8    1  0.2504019E-006  0.9118800E+02  0.7816164E-02  0.1184000E+00
        -11   -1    0    0    0    0  0.00000000000E+00  0.00000000000E+00  0.45593999997E+02  0.45594000000E+02  0.51100000000E-03 0. -1.
         11   -1    0    0    0    0 -0.00000000000E+00 -0.00000000000E+00 -0.45593999997E+02  0.45594000000E+02  0.51100000000E-03 0.  1.
         23    2    1    2    0    0  0.00000000000E+00  0.00000000000E+00  0.00000000000E+00  0.91188000000E+02  0.91188000000E+02 0.  0.
    9900012    2    3    3    0    0  0.33793213433E+01 -0.19635909363E+02 -0.30964365559E+02  0.54367072747E+02  0.39999973942E+02 0.  0.
         12    1    3    3    0    0 -0.33793213433E+01  0.19635909363E+02  0.30964365559E+02  0.36820927253E+02  0.00000000000E+00 0. -1.
         11    1    4    4    0    0  0.41517978714E+01 -0.13567432426E+02 -0.17916276934E+02  0.22854006818E+02  0.51100000000E-03 0. -1.
        -11    1    4    4    0    0 -0.10981857032E+02  0.24124008628E+01  0.20301425548E+01  0.11425512717E+02  0.51100000000E-03 0.  1.
        -12    1    4    4    0    0  0.10209380504E+02 -0.84808778004E+01 -0.15078231180E+02  0.20087553212E+02  0.00000000000E+00 0.  1.
</event>
<event>
 8    1  0.2504019E-006  0.9118800E+02  0.7816164E-02  0.1184000E+00
        -11   -1    0    0    0    0  0.00000000000E+00  0.00000000000E+00  0.45593999997E+02  0.45594000000E+02  0.51100000000E-03 0. -1.
         11   -1    0    0    0    0 -0.00000000000E+00 -0.00000000000E+00 -0.45593999997E+02  0.45594000000E+02  0.51100000000E-03 0.  1.
         23    2    1    2    0    0  0.00000000000E+00 -0.17763568394E-14  0.00000000000E+00  0.91188000000E+02  0.91188000000E+02 0.  0.
    9900012    2    3    3    0    0  0.88409053174E+01 -0.81710858080E+01  0.34797297896E+02  0.54367079439E+02  0.39999989197E+02 0.  0.
        -12    1    3    3    0    0 -0.88409053174E+01  0.81710858080E+01 -0.34797297896E+02  0.36820920561E+02  0.00000000000E+00 0.  1.
         11    1    4    4    0    0 -0.10163562987E+02  0.31275697596E+01  0.30313697197E+01  0.11057527203E+02  0.51100000000E-03 0. -1.
        -11    1    4    4    0    0 -0.10263663274E+01  0.40629104499E+01  0.42421725056E+01  0.59629436515E+01  0.51100000000E-03 0.  1.
        -12    1    4    4    0    0  0.20030834632E+02 -0.15361566017E+02  0.27523755671E+02  0.37346608585E+02  0.00000000000E+00 0.  1.
</event>
<event>
 8    1  0.2504019E-006  0.9118800E+02  0.7816164E-02  0.1184000E+00
        -11   -1    0    0    0    0  0.00000000000E+00  0.00000000000E+00  0.45593999997E+02  0.45594000000E+02  0.51100000000E-03 0.  1.
         11   -1    0    0    0    0 -0.00000000000E+00 -0.00000000000E+00 -0.45593999997E+02  0.45594000000E+02  0.51100000000E-03 0. -1.
         23    2    1    2    0    0  0.35527136788E-14  0.00000000000E+00  0.00000000000E+00  0.91188000000E+02  0.91188000000E+02 0.  0.
    9900012    2    3    3    0    0  0.18889722454E+02 -0.23919089234E+02 -0.20659974507E+02  0.54367095736E+02  0.40000026350E+02 0.  0.
         12    1    3    3    0    0 -0.18889722454E+02  0.23919089234E+02  0.20659974507E+02  0.36820904264E+02  0.00000000000E+00 0. -1.
         11    1    4    4    0    0  0.72340862072E+01  0.80626330947E+01 -0.37328520838E+01  0.11457409856E+02  0.51100000000E-03 0. -1.
        -11    1    4    4    0    0  0.70346871104E+01 -0.22477991018E+02 -0.21028183163E+02  0.31574220344E+02  0.51100000000E-03 0.  1.
         12    1    4    4    0    0  0.46209491366E+01 -0.95037313097E+01  0.41010607390E+01  0.11335465536E+02  0.00000000000E+00 0. -1.
</event>
<event>
 8    1  0.2504019E-006  0.9118800E+02  0.7816164E-02  0.1184000E+00
        -11   -1    0    0    0    0  0.00000000000E+00  0.00000000000E+00  0.45593999997E+02  0.45594000000E+02  0.51100000000E-03 0.  1.
         11   -1    0    0    0    0 -0.00000000000E+00 -0.00000000000E+00 -0.45593999997E+02  0.45594000000E+02  0.51100000000E-03 0. -1.
         23    2    1    2    0    0  0.00000000000E+00  0.00000000000E+00  0.00000000000E+00  0.91188000000E+02  0.91188000000E+02 0.  0.
    9900012    2    3    3    0    0  0.25801796408E+02  0.44801991958E+01 -0.25883911926E+02  0.54367057871E+02  0.39999940028E+02 0.  0.
        -12    1    3    3    0    0 -0.25801796408E+02 -0.44801991958E+01  0.25883911926E+02  0.36820942129E+02  0.00000000000E+00 0.  1.
         11    1    4    4    0    0  0.47274062193E+01  0.41058016333E+01 -0.20494750155E+02  0.21429903424E+02  0.51100000000E-03 0. -1.
        -11    1    4    4    0    0  0.24681929157E+02  0.19161384701E+00 -0.10379861632E+02  0.26776405109E+02  0.51100000000E-03 0.  1.
         12    1    4    4    0    0 -0.36075389685E+01  0.18278371552E+00  0.49906998614E+01  0.61607493378E+01  0.00000000000E+00 0. -1.
</event>
<event>
 8    1  0.2504019E-006  0.9118800E+02  0.7816164E-02  0.1184000E+00
        -11   -1    0    0    0    0  0.00000000000E+00  0.00000000000E+00  0.45593999997E+02  0.45594000000E+02  0.51100000000E-03 0. -1.
         11   -1    0    0    0    0 -0.00000000000E+00 -0.00000000000E+00 -0.45593999997E+02  0.45594000000E+02  0.51100000000E-03 0.  1.
         23    2    1    2    0    0  0.00000000000E+00  0.00000000000E+00  0.83266726847E-15  0.91188000000E+02  0.91188000000E+02 0.  0.
    9900012    2    3    3    0    0  0.29524340129E+02 -0.21998050347E+02  0.42100771379E+00  0.54367107471E+02  0.40000053102E+02 0.  0.
        -12    1    3    3    0    0 -0.29524340129E+02  0.21998050347E+02 -0.42100771379E+00  0.36820892529E+02  0.00000000000E+00 0.  1.
         11    1    4    4    0    0  0.59430432289E+01  0.29624372977E+01  0.50999783673E+01  0.83729073309E+01  0.51100000000E-03 0. -1.
        -11    1    4    4    0    0  0.23920362196E+02 -0.26688782033E+02 -0.12515655862E+02  0.37962039670E+02  0.51100000000E-03 0.  1.
        -12    1    4    4    0    0 -0.33906529575E+00  0.17282943887E+01  0.78366852084E+01  0.80321604706E+01  0.00000000000E+00 0.  1.
</event>
<event>
 8    1  0.2504019E-006  0.9118800E+02  0.7816164E-02  0.1184000E+00
        -11   -1    0    0    0    0  0.00000000000E+00  0.00000000000E+00  0.45593999997E+02  0.45594000000E+02  0.51100000000E-03 0. -1.
         11   -1    0    0    0    0 -0.00000000000E+00 -0.00000000000E+00 -0.45593999997E+02  0.45594000000E+02  0.51100000000E-03 0.  1.
         23    2    1    2    0    0  0.00000000000E+00  0.00000000000E+00  0.55511151231E-15  0.91188000000E+02  0.91188000000E+02 0.  0.
    9900012    2    3    3    0    0  0.13757283653E+02 -0.34153593000E+02  0.22013472471E+00  0.54367092520E+02  0.40000019018E+02 0.  0.
         12    1    3    3    0    0 -0.13757283653E+02  0.34153593000E+02 -0.22013472471E+00  0.36820907480E+02  0.00000000000E+00 0. -1.
         11    1    4    4    0    0 -0.50209545797E+01 -0.31131214713E+02  0.69047293304E+01  0.32280610307E+02  0.51100000000E-03 0. -1.
        -11    1    4    4    0    0  0.94881455519E+01 -0.59517198200E+01 -0.24516847541E+01  0.11465541122E+02  0.51100000000E-03 0.  1.
         12    1    4    4    0    0  0.92900926811E+01  0.29293415333E+01 -0.42329098515E+01  0.10620941091E+02  0.00000000000E+00 0. -1.
</event>
<event>
 8    1  0.2504019E-006  0.9118800E+02  0.7816164E-02  0.1184000E+00
        -11   -1    0    0    0    0  0.00000000000E+00  0.00000000000E+00  0.45593999997E+02  0.45594000000E+02  0.51100000000E-03 0. -1.
         11   -1    0    0    0    0 -0.00000000000E+00 -0.00000000000E+00 -0.45593999997E+02  0.45594000000E+02  0.51100000000E-03 0.  1.
         23    2    1    2    0    0  0.00000000000E+00  0.35527136788E-14 -0.35527136788E-14  0.91188000000E+02  0.91188000000E+02 0.  0.
    9900012    2    3    3    0    0 -0.10230332743E+02  0.16852514486E+02  0.31098415717E+02  0.54367103587E+02  0.40000044248E+02 0.  0.
        -12    1    3    3    0    0  0.10230332743E+02 -0.16852514486E+02 -0.31098415717E+02  0.36820896413E+02  0.00000000000E+00 0.  1.
         11    1    4    4    0    0  0.30870532363E+01 -0.41256714061E+01  0.12792222753E+02  0.13791012488E+02  0.51100000000E-03 0. -1.
        -11    1    4    4    0    0  0.43092251808E+01  0.17013294007E+02  0.12684932145E+02  0.21654770800E+02  0.51100000000E-03 0.  1.
        -12    1    4    4    0    0 -0.17626611160E+02  0.39648918848E+01  0.56212608189E+01  0.18921320299E+02  0.00000000000E+00 0.  1.
</event>
<event>
 8    1  0.2504019E-006  0.9118800E+02  0.7816164E-02  0.1184000E+00
        -11   -1    0    0    0    0  0.00000000000E+00  0.00000000000E+00  0.45593999997E+02  0.45594000000E+02  0.51100000000E-03 0. -1.
         11   -1    0    0    0    0 -0.00000000000E+00 -0.00000000000E+00 -0.45593999997E+02  0.45594000000E+02  0.51100000000E-03 0.  1.
         23    2    1    2    0    0  0.71054273576E-14  0.71054273576E-14  0.17763568394E-14  0.91188000000E+02  0.91188000000E+02 0.  0.
    9900012    2    3    3    0    0 -0.23575799720E+02 -0.25458735868E+02 -0.12321280294E+02  0.54367088652E+02  0.40000010200E+02 0.  0.
         12    1    3    3    0    0  0.23575799720E+02  0.25458735868E+02  0.12321280294E+02  0.36820911348E+02  0.00000000000E+00 0. -1.
         11    1    4    4    0    0 -0.74606372049E+00 -0.43141461382E+00  0.27130351040E+01  0.28466277208E+01  0.51100000000E-03 0. -1.
        -11    1    4    4    0    0  0.11824439586E+01 -0.66443142459E+01  0.10134529532E+02  0.12175950665E+02  0.51100000000E-03 0.  1.
        -12    1    4    4    0    0 -0.24012179958E+02 -0.18383007008E+02 -0.25168844929E+02  0.39344510266E+02  0.00000000000E+00 0.  1.
</event>
<event>
 8    1  0.2504019E-006  0.9118800E+02  0.7816164E-02  0.1184000E+00
        -11   -1    0    0    0    0  0.00000000000E+00  0.00000000000E+00  0.45593999997E+02  0.45594000000E+02  0.51100000000E-03 0.  1.
         11   -1    0    0    0    0 -0.00000000000E+00 -0.00000000000E+00 -0.45593999997E+02  0.45594000000E+02  0.51100000000E-03 0. -1.
         23    2    1    2    0    0  0.71054273576E-14  0.44408920985E-15  0.00000000000E+00  0.91188000000E+02  0.91188000000E+02 0.  0.
    9900012    2    3    3    0    0 -0.33806112530E+02 -0.20360097005E+01 -0.14449254799E+02  0.54367088222E+02  0.40000009220E+02 0.  0.
         12    1    3    3    0    0  0.33806112530E+02  0.20360097005E+01  0.14449254799E+02  0.36820911778E+02  0.00000000000E+00 0. -1.
         11    1    4    4    0    0 -0.21798902393E+02  0.16554309219E+01 -0.19111713253E+02  0.29037737185E+02  0.51100000000E-03 0. -1.
        -11    1    4    4    0    0 -0.34563271527E+01 -0.16841089937E+01  0.12794382784E+02  0.13359590247E+02  0.51100000000E-03 0.  1.
        -12    1    4    4    0    0 -0.85508829845E+01 -0.20073316287E+01 -0.81319243296E+01  0.11969760791E+02  0.00000000000E+00 0.  1.
</event>
<event>
 8    1  0.2504019E-006  0.9118800E+02  0.7816164E-02  0.1184000E+00
        -11   -1    0    0    0    0  0.00000000000E+00  0.00000000000E+00  0.45593999997E+02  0.45594000000E+02  0.51100000000E-03 0.  1.
         11   -1    0    0    0    0 -0.00000000000E+00 -0.00000000000E+00 -0.45593999997E+02  0.45594000000E+02  0.51100000000E-03 0. -1.
         23    2    1    2    0    0  0.00000000000E+00 -0.35527136788E-14  0.00000000000E+00  0.91188000000E+02  0.91188000000E+02 0.  0.
    9900012    2    3    3    0    0  0.20550129714E+02 -0.29369888095E+02 -0.84192532550E+01  0.54367055100E+02  0.39999933711E+02 0.  0.
         12    1    3    3    0    0 -0.20550129714E+02  0.29369888095E+02  0.84192532550E+01  0.36820944900E+02  0.00000000000E+00 0. -1.
         11    1    4    4    0    0  0.59652111406E+01 -0.18495537077E+02  0.24136226911E+01  0.19583008208E+02  0.51100000000E-03 0. -1.
        -11    1    4    4    0    0  0.18540552216E+02 -0.12213620144E+02  0.10115554182E+01  0.22224937303E+02  0.51100000000E-03 0.  1.
         12    1    4    4    0    0 -0.39556336424E+01  0.13392691265E+01 -0.11844431364E+02  0.12559109588E+02  0.00000000000E+00 0. -1.
</event>
<event>
 8    1  0.2504019E-006  0.9118800E+02  0.7816164E-02  0.1184000E+00
        -11   -1    0    0    0    0  0.00000000000E+00  0.00000000000E+00  0.45593999997E+02  0.45594000000E+02  0.51100000000E-03 0. -1.
         11   -1    0    0    0    0 -0.00000000000E+00 -0.00000000000E+00 -0.45593999997E+02  0.45594000000E+02  0.51100000000E-03 0.  1.
         23    2    1    2    0    0  0.00000000000E+00  0.00000000000E+00  0.35527136788E-14  0.91188000000E+02  0.91188000000E+02 0.  0.
    9900012    2    3    3    0    0  0.77246660936E+01 -0.31432737008E+02  0.17552568236E+02  0.54367081030E+02  0.39999992825E+02 0.  0.
        -12    1    3    3    0    0 -0.77246660936E+01  0.31432737008E+02 -0.17552568236E+02  0.36820918970E+02  0.00000000000E+00 0.  1.
         11    1    4    4    0    0 -0.88452567973E+01 -0.12392815700E+02  0.20016067613E+01  0.15356655843E+02  0.51100000000E-03 0. -1.
        -11    1    4    4    0    0  0.21209015186E+02 -0.11476654096E+02  0.39991336118E+01  0.24444405992E+02  0.51100000000E-03 0.  1.
        -12    1    4    4    0    0 -0.46390922949E+01 -0.75632672123E+01  0.11551827863E+02  0.14566019196E+02  0.00000000000E+00 0.  1.
</event>
<event>
 8    1  0.2504019E-006  0.9118800E+02  0.7816164E-02  0.1184000E+00
        -11   -1    0    0    0    0  0.00000000000E+00  0.00000000000E+00  0.45593999997E+02  0.45594000000E+02  0.51100000000E-03 0. -1.
         11   -1    0    0    0    0 -0.00000000000E+00 -0.00000000000E+00 -0.45593999997E+02  0.45594000000E+02  0.51100000000E-03 0.  1.
         23    2    1    2    0    0  0.00000000000E+00 -0.17763568394E-14  0.00000000000E+00  0.91188000000E+02  0.91188000000E+02 0.  0.
    9900012    2    3    3    0    0 -0.17978201140E+02  0.15680785282E+02 -0.28047767923E+02  0.54367081642E+02  0.39999994218E+02 0.  0.
        -12    1    3    3    0    0  0.17978201140E+02 -0.15680785282E+02  0.28047767923E+02  0.36820918358E+02  0.00000000000E+00 0.  1.
         11    1    4    4    0    0  0.32732551337E+01  0.38807897698E+01 -0.10332093289E+01  0.51809507029E+01  0.51100000000E-03 0. -1.
        -11    1    4    4    0    0 -0.85686394179E+01 -0.10249240848E+02 -0.19956501139E+01  0.13507447541E+02  0.51100000000E-03 0.  1.
         12    1    4    4    0    0 -0.12682816856E+02  0.22049236360E+02 -0.25018908480E+02  0.35678683398E+02  0.00000000000E+00 0. -1.
</event>
<event>
 8    1  0.2504019E-006  0.9118800E+02  0.7816164E-02  0.1184000E+00
        -11   -1    0    0    0    0  0.00000000000E+00  0.00000000000E+00  0.45593999997E+02  0.45594000000E+02  0.51100000000E-03 0. -1.
         11   -1    0    0    0    0 -0.00000000000E+00 -0.00000000000E+00 -0.45593999997E+02  0.45594000000E+02  0.51100000000E-03 0.  1.
         23    2    1    2    0    0  0.44408920985E-15  0.00000000000E+00  0.22204460493E-14  0.91188000000E+02  0.91188000000E+02 0.  0.
    9900012    2    3    3    0    0  0.20575914546E+01 -0.36632218366E+02  0.31025011933E+01  0.54367100790E+02  0.40000037871E+02 0.  0.
        -12    1    3    3    0    0 -0.20575914546E+01  0.36632218366E+02 -0.31025011933E+01  0.36820899210E+02  0.00000000000E+00 0.  1.
         11    1    4    4    0    0 -0.78207726042E+00 -0.13992365934E+02  0.43596640803E+01  0.14676669255E+02  0.51100000000E-03 0. -1.
        -11    1    4    4    0    0  0.14615132016E+02 -0.17836267301E+02 -0.90539384887E+01  0.24773137014E+02  0.51100000000E-03 0.  1.
        -12    1    4    4    0    0 -0.11775463301E+02 -0.48035851303E+01  0.77967756016E+01  0.14917294521E+02  0.00000000000E+00 0.  1.
</event>
<event>
 8    1  0.2504019E-006  0.9118800E+02  0.7816164E-02  0.1184000E+00
        -11   -1    0    0    0    0  0.00000000000E+00  0.00000000000E+00  0.45593999997E+02  0.45594000000E+02  0.51100000000E-03 0.  1.
         11   -1    0    0    0    0 -0.00000000000E+00 -0.00000000000E+00 -0.45593999997E+02  0.45594000000E+02  0.51100000000E-03 0. -1.
         23    2    1    2    0    0  0.35527136788E-14 -0.35527136788E-14  0.35527136788E-14  0.91188000000E+02  0.91188000000E+02 0.  0.
    9900012    2    3    3    0    0  0.19892176097E+02 -0.18709860901E+02  0.24698464142E+02  0.54367194797E+02  0.40000252178E+02 0.  0.
         12    1    3    3    0    0 -0.19892176097E+02  0.18709860901E+02 -0.24698464142E+02  0.36820805203E+02  0.00000000000E+00 0. -1.
         11    1    4    4    0    0  0.12549719980E+02  0.18278457645E+01  0.13888680865E+02  0.18807762976E+02  0.51100000000E-03 0.  1.
        -11    1    4    4    0    0 -0.31415918705E+01  0.50567619182E+01  0.26520950837E+00  0.59590919545E+01  0.51100000000E-03 0. -1.
        -12    1    4    4    0    0  0.10484047987E+02 -0.25594468583E+02  0.10544573769E+02  0.29600339867E+02  0.00000000000E+00 0.  1.
</event>
<event>
 8    1  0.2504019E-006  0.9118800E+02  0.7816164E-02  0.1184000E+00
        -11   -1    0    0    0    0  0.00000000000E+00  0.00000000000E+00  0.45593999997E+02  0.45594000000E+02  0.51100000000E-03 0. -1.
         11   -1    0    0    0    0 -0.00000000000E+00 -0.00000000000E+00 -0.45593999997E+02  0.45594000000E+02  0.51100000000E-03 0.  1.
         23    2    1    2    0    0 -0.44408920985E-15  0.00000000000E+00  0.00000000000E+00  0.91188000000E+02  0.91188000000E+02 0.  0.
    9900012    2    3    3    0    0  0.23803409431E+01  0.63673600905E+01 -0.36188000456E+02  0.54367072873E+02  0.39999974228E+02 0.  0.
         12    1    3    3    0    0 -0.23803409431E+01 -0.63673600905E+01  0.36188000456E+02  0.36820927127E+02  0.00000000000E+00 0. -1.
         11    1    4    4    0    0 -0.33121218621E+01 -0.87393720138E+01 -0.24837366005E+01  0.96703527437E+01  0.51100000000E-03 0. -1.
        -11    1    4    4    0    0  0.46639752445E+01 -0.63348411640E+01 -0.82515201168E+01  0.11400458857E+02  0.51100000000E-03 0.  1.
        -12    1    4    4    0    0  0.10284875606E+01  0.21441573268E+02 -0.25452743738E+02  0.33296261272E+02  0.00000000000E+00 0.  1.
</event>
<event>
 8    1  0.2504019E-006  0.9118800E+02  0.7816164E-02  0.1184000E+00
        -11   -1    0    0    0    0  0.00000000000E+00  0.00000000000E+00  0.45593999997E+02  0.45594000000E+02  0.51100000000E-03 0. -1.
         11   -1    0    0    0    0 -0.00000000000E+00 -0.00000000000E+00 -0.45593999997E+02  0.45594000000E+02  0.51100000000E-03 0.  1.
         23    2    1    2    0    0  0.17763568394E-14  0.35527136788E-14  0.00000000000E+00  0.91188000000E+02  0.91188000000E+02 0.  0.
    9900012    2    3    3    0    0 -0.13577569014E+02 -0.29551208532E+02 -0.17267474181E+02  0.54366946638E+02  0.39999686450E+02 0.  0.
         12    1    3    3    0    0  0.13577569014E+02  0.29551208532E+02  0.17267474181E+02  0.36821053362E+02  0.00000000000E+00 0. -1.
         11    1    4    4    0    0  0.64268453030E+01 -0.36132285922E+01  0.11444853634E+01  0.74612069008E+01  0.51100000000E-03 0. -1.
        -11    1    4    4    0    0 -0.17888712131E+02 -0.30956274347E+02 -0.20333224742E+02  0.41130730261E+02  0.51100000000E-03 0.  1.
        -12    1    4    4    0    0 -0.21157021863E+01  0.50182944069E+01  0.19212651970E+01  0.57750094765E+01  0.00000000000E+00 0.  1.
</event>
<event>
 8    1  0.2504019E-006  0.9118800E+02  0.7816164E-02  0.1184000E+00
        -11   -1    0    0    0    0  0.00000000000E+00  0.00000000000E+00  0.45593999997E+02  0.45594000000E+02  0.51100000000E-03 0.  1.
         11   -1    0    0    0    0 -0.00000000000E+00 -0.00000000000E+00 -0.45593999997E+02  0.45594000000E+02  0.51100000000E-03 0. -1.
         23    2    1    2    0    0  0.00000000000E+00  0.00000000000E+00  0.35527136788E-14  0.91188000000E+02  0.91188000000E+02 0.  0.
    9900012    2    3    3    0    0  0.59415993575E+01 -0.24110921655E+02  0.27187155611E+02  0.54367074208E+02  0.39999977272E+02 0.  0.
         12    1    3    3    0    0 -0.59415993575E+01  0.24110921655E+02 -0.27187155611E+02  0.36820925792E+02  0.00000000000E+00 0. -1.
         11    1    4    4    0    0  0.94502279111E+01 -0.64186105774E+00 -0.19746931800E+01  0.96756501903E+01  0.51100000000E-03 0. -1.
        -11    1    4    4    0    0  0.21103158553E+01  0.39030780825E+01  0.19160792887E+00  0.44411896364E+01  0.51100000000E-03 0.  1.
        -12    1    4    4    0    0 -0.56189444089E+01 -0.27372138679E+02  0.28970240862E+02  0.40250234381E+02  0.00000000000E+00 0.  1.
</event>
<event>
 8    1  0.2504019E-006  0.9118800E+02  0.7816164E-02  0.1184000E+00
        -11   -1    0    0    0    0  0.00000000000E+00  0.00000000000E+00  0.45593999997E+02  0.45594000000E+02  0.51100000000E-03 0.  1.
         11   -1    0    0    0    0 -0.00000000000E+00 -0.00000000000E+00 -0.45593999997E+02  0.45594000000E+02  0.51100000000E-03 0. -1.
         23    2    1    2    0    0 -0.35527136788E-14  0.00000000000E+00  0.17763568394E-14  0.91188000000E+02  0.91188000000E+02 0.  0.
    9900012    2    3    3    0    0 -0.25665292604E+02  0.23091917730E+02 -0.12799839413E+02  0.54367084776E+02  0.40000001364E+02 0.  0.
         12    1    3    3    0    0  0.25665292604E+02 -0.23091917730E+02  0.12799839413E+02  0.36820915224E+02  0.00000000000E+00 0. -1.
         11    1    4    4    0    0 -0.87276597103E+01  0.16039429065E+02 -0.22865909428E+02  0.29262350264E+02  0.51100000000E-03 0. -1.
        -11    1    4    4    0    0  0.85055595964E+00  0.35783989726E+01  0.51445650376E+01  0.63241548316E+01  0.51100000000E-03 0.  1.
         12    1    4    4    0    0 -0.17788188854E+02  0.34740896932E+01  0.49215049771E+01  0.18780579680E+02  0.00000000000E+00 0. -1.
</event>
<event>
 8    1  0.2504019E-006  0.9118800E+02  0.7816164E-02  0.1184000E+00
        -11   -1    0    0    0    0  0.00000000000E+00  0.00000000000E+00  0.45593999997E+02  0.45594000000E+02  0.51100000000E-03 0.  1.
         11   -1    0    0    0    0 -0.00000000000E+00 -0.00000000000E+00 -0.45593999997E+02  0.45594000000E+02  0.51100000000E-03 0. -1.
         23    2    1    2    0    0  0.71054273576E-14 -0.17763568394E-14  0.00000000000E+00  0.91188000000E+02  0.91188000000E+02 0.  0.
    9900012    2    3    3    0    0 -0.32298220763E+02  0.13906784641E+02  0.10918102956E+02  0.54367099744E+02  0.40000035487E+02 0.  0.
        -12    1    3    3    0    0  0.32298220763E+02 -0.13906784641E+02 -0.10918102956E+02  0.36820900256E+02  0.00000000000E+00 0.  1.
         11    1    4    4    0    0 -0.17405084839E+02 -0.39227398596E+01 -0.38054255462E+01  0.18242974815E+02  0.51100000000E-03 0. -1.
        -11    1    4    4    0    0 -0.16351389090E+02  0.44970550024E+01  0.15100003159E+02  0.22706860738E+02  0.51100000000E-03 0.  1.
        -12    1    4    4    0    0  0.14582531662E+01  0.13332469498E+02 -0.37647465761E+00  0.13417264192E+02  0.00000000000E+00 0.  1.
</event>
<event>
 8    1  0.2504019E-006  0.9118800E+02  0.7816164E-02  0.1184000E+00
        -11   -1    0    0    0    0  0.00000000000E+00  0.00000000000E+00  0.45593999997E+02  0.45594000000E+02  0.51100000000E-03 0.  1.
         11   -1    0    0    0    0 -0.00000000000E+00 -0.00000000000E+00 -0.45593999997E+02  0.45594000000E+02  0.51100000000E-03 0. -1.
         23    2    1    2    0    0 -0.35527136788E-14  0.00000000000E+00  0.00000000000E+00  0.91188000000E+02  0.91188000000E+02 0.  0.
    9900012    2    3    3    0    0  0.30691860697E+02  0.70573057294E+01  0.19078441878E+02  0.54367043716E+02  0.39999907758E+02 0.  0.
         12    1    3    3    0    0 -0.30691860697E+02 -0.70573057294E+01 -0.19078441878E+02  0.36820956284E+02  0.00000000000E+00 0. -1.
         11    1    4    4    0    0  0.54246830653E+00  0.12050908195E+02 -0.30328434813E+01  0.12438520814E+02  0.51100000000E-03 0. -1.
        -11    1    4    4    0    0  0.29247792153E+02 -0.54055548813E+01  0.12494694562E+02  0.32260978935E+02  0.51100000000E-03 0.  1.
         12    1    4    4    0    0  0.90160023766E+00  0.41195241566E+00  0.96165907980E+01  0.96675439672E+01  0.00000000000E+00 0. -1.
</event>
<event>
 8    1  0.2504019E-006  0.9118800E+02  0.7816164E-02  0.1184000E+00
        -11   -1    0    0    0    0  0.00000000000E+00  0.00000000000E+00  0.45593999997E+02  0.45594000000E+02  0.51100000000E-03 0.  1.
         11   -1    0    0    0    0 -0.00000000000E+00 -0.00000000000E+00 -0.45593999997E+02  0.45594000000E+02  0.51100000000E-03 0. -1.
         23    2    1    2    0    0  0.00000000000E+00  0.00000000000E+00  0.00000000000E+00  0.91188000000E+02  0.91188000000E+02 0.  0.
    9900012    2    3    3    0    0 -0.72232455676E+01  0.81050421637E+01 -0.35183977517E+02  0.54367092096E+02  0.40000018050E+02 0.  0.
        -12    1    3    3    0    0  0.72232455676E+01 -0.81050421637E+01  0.35183977517E+02  0.36820907904E+02  0.00000000000E+00 0.  1.
         11    1    4    4    0    0 -0.22462753696E+02 -0.25153170207E+01 -0.16686015620E+02  0.28094932654E+02  0.51100000000E-03 0. -1.
        -11    1    4    4    0    0  0.81515352942E+01  0.60068488852E+01 -0.11231336057E+02  0.15121926830E+02  0.51100000000E-03 0.  1.
         12    1    4    4    0    0  0.70879728341E+01  0.46135102992E+01 -0.72666258403E+01  0.11150232611E+02  0.00000000000E+00 0. -1.
</event>
<event>
 8    1  0.2504019E-006  0.9118800E+02  0.7816164E-02  0.1184000E+00
        -11   -1    0    0    0    0  0.00000000000E+00  0.00000000000E+00  0.45593999997E+02  0.45594000000E+02  0.51100000000E-03 0.  1.
         11   -1    0    0    0    0 -0.00000000000E+00 -0.00000000000E+00 -0.45593999997E+02  0.45594000000E+02  0.51100000000E-03 0. -1.
         23    2    1    2    0    0  0.35527136788E-14  0.00000000000E+00  0.00000000000E+00  0.91188000000E+02  0.91188000000E+02 0.  0.
    9900012    2    3    3    0    0  0.23430511649E+02  0.20223306458E+02 -0.19945030080E+02  0.54367146871E+02  0.40000142922E+02 0.  0.
        -12    1    3    3    0    0 -0.23430511649E+02 -0.20223306458E+02  0.19945030080E+02  0.36820853129E+02  0.00000000000E+00 0.  1.
         11    1    4    4    0    0  0.68743880102E+01 -0.69759711936E+01 -0.16235387755E+02  0.18960727846E+02  0.51100000000E-03 0. -1.
        -11    1    4    4    0    0  0.98921139987E+01  0.23508566892E+02  0.24326913412E+01  0.25620785001E+02  0.51100000000E-03 0.  1.
        -12    1    4    4    0    0  0.66640096399E+01  0.36907107599E+01 -0.61423336660E+01  0.97856340244E+01  0.00000000000E+00 0.  1.
</event>
<event>
 8    1  0.2504019E-006  0.9118800E+02  0.7816164E-02  0.1184000E+00
        -11   -1    0    0    0    0  0.00000000000E+00  0.00000000000E+00  0.45593999997E+02  0.45594000000E+02  0.51100000000E-03 0.  1.
         11   -1    0    0    0    0 -0.00000000000E+00 -0.00000000000E+00 -0.45593999997E+02  0.45594000000E+02  0.51100000000E-03 0. -1.
         23    2    1    2    0    0  0.35527136788E-14  0.00000000000E+00  0.35527136788E-14  0.91188000000E+02  0.91188000000E+02 0.  0.
    9900012    2    3    3    0    0 -0.19007734718E+02 -0.17873218997E+02 -0.25981417217E+02  0.54367082344E+02  0.39999995821E+02 0.  0.
        -12    1    3    3    0    0  0.19007734718E+02  0.17873218997E+02  0.25981417217E+02  0.36820917656E+02  0.00000000000E+00 0.  1.
         11    1    4    4    0    0 -0.54610842818E+01 -0.13851386216E+02 -0.72672023530E+01  0.16567938071E+02  0.51100000000E-03 0. -1.
        -11    1    4    4    0    0  0.76087332451E+01  0.38420733211E+01 -0.11067214220E+02  0.13969165324E+02  0.51100000000E-03 0.  1.
        -12    1    4    4    0    0 -0.21155383681E+02 -0.78639061018E+01 -0.76470006443E+01  0.23829978950E+02  0.00000000000E+00 0.  1.
</event>
<event>
 8    1  0.2504019E-006  0.9118800E+02  0.7816164E-02  0.1184000E+00
        -11   -1    0    0    0    0  0.00000000000E+00  0.00000000000E+00  0.45593999997E+02  0.45594000000E+02  0.51100000000E-03 0. -1.
         11   -1    0    0    0    0 -0.00000000000E+00 -0.00000000000E+00 -0.45593999997E+02  0.45594000000E+02  0.51100000000E-03 0.  1.
         23    2    1    2    0    0  0.35527136788E-14 -0.35527136788E-14  0.35527136788E-14  0.91188000000E+02  0.91188000000E+02 0.  0.
    9900012    2    3    3    0    0  0.20396205111E+02 -0.20120713159E+02  0.23128569195E+02  0.54367095693E+02  0.40000026252E+02 0.  0.
        -12    1    3    3    0    0 -0.20396205111E+02  0.20120713159E+02 -0.23128569195E+02  0.36820904307E+02  0.00000000000E+00 0.  1.
         11    1    4    4    0    0  0.14801213933E+02  0.32779388407E+01  0.11649532271E+01  0.15204536600E+02  0.51100000000E-03 0. -1.
        -11    1    4    4    0    0 -0.10133489063E+01  0.26114507346E+01  0.88708664649E+01  0.93026245245E+01  0.51100000000E-03 0.  1.
         12    1    4    4    0    0  0.66083400842E+01 -0.26010102734E+02  0.13092749503E+02  0.29859934569E+02  0.00000000000E+00 0. -1.
</event>
<event>
 8    1  0.2504019E-006  0.9118800E+02  0.7816164E-02  0.1184000E+00
        -11   -1    0    0    0    0  0.00000000000E+00  0.00000000000E+00  0.45593999997E+02  0.45594000000E+02  0.51100000000E-03 0.  1.
         11   -1    0    0    0    0 -0.00000000000E+00 -0.00000000000E+00 -0.45593999997E+02  0.45594000000E+02  0.51100000000E-03 0. -1.
         23    2    1    2    0    0 -0.71054273576E-14 -0.17763568394E-14 -0.71054273576E-14  0.91188000000E+02  0.91188000000E+02 0.  0.
    9900012    2    3    3    0    0  0.26605086418E+02  0.15450205566E+02  0.20229687314E+02  0.54367085778E+02  0.40000003648E+02 0.  0.
         12    1    3    3    0    0 -0.26605086418E+02 -0.15450205566E+02 -0.20229687314E+02  0.36820914222E+02  0.00000000000E+00 0. -1.
         11    1    4    4    0    0  0.45927736591E+00 -0.20443227307E+01  0.12951846483E+01  0.24632691003E+01  0.51100000000E-03 0. -1.
        -11    1    4    4    0    0  0.31639304419E+02  0.19834614182E+02  0.23730829677E+02  0.44244884239E+02  0.51100000000E-03 0.  1.
         12    1    4    4    0    0 -0.54934953672E+01 -0.23400858860E+01 -0.47963270111E+01  0.76589324387E+01  0.00000000000E+00 0. -1.
</event>
<event>
 8    1  0.2504019E-006  0.9118800E+02  0.7816164E-02  0.1184000E+00
        -11   -1    0    0    0    0  0.00000000000E+00  0.00000000000E+00  0.45593999997E+02  0.45594000000E+02  0.51100000000E-03 0. -1.
         11   -1    0    0    0    0 -0.00000000000E+00 -0.00000000000E+00 -0.45593999997E+02  0.45594000000E+02  0.51100000000E-03 0.  1.
         23    2    1    2    0    0  0.35527136788E-14  0.00000000000E+00 -0.88817841970E-15  0.91188000000E+02  0.91188000000E+02 0.  0.
    9900012    2    3    3    0    0 -0.29771571191E+02 -0.21515526851E+02 -0.25524877130E+01  0.54367088273E+02  0.40000009337E+02 0.  0.
         12    1    3    3    0    0  0.29771571191E+02  0.21515526851E+02  0.25524877130E+01  0.36820911727E+02  0.00000000000E+00 0. -1.
         11    1    4    4    0    0 -0.15184345054E+02 -0.16199817087E+02 -0.30292842398E+01  0.22409260846E+02  0.51100000000E-03 0. -1.
        -11    1    4    4    0    0 -0.29138250529E+01 -0.14914267061E+02 -0.48219355396E+01  0.15942923227E+02  0.51100000000E-03 0.  1.
         12    1    4    4    0    0 -0.11673401084E+02  0.95985572971E+01  0.52987320664E+01  0.16014904201E+02  0.00000000000E+00 0. -1.
</event>
<event>
 8    1  0.2504019E-006  0.9118800E+02  0.7816164E-02  0.1184000E+00
        -11   -1    0    0    0    0  0.00000000000E+00  0.00000000000E+00  0.45593999997E+02  0.45594000000E+02  0.51100000000E-03 0. -1.
         11   -1    0    0    0    0 -0.00000000000E+00 -0.00000000000E+00 -0.45593999997E+02  0.45594000000E+02  0.51100000000E-03 0.  1.
         23    2    1    2    0    0  0.00000000000E+00  0.00000000000E+00 -0.35527136788E-14  0.91188000000E+02  0.91188000000E+02 0.  0.
    9900012    2    3    3    0    0  0.72598427080E+01  0.26950723660E+02  0.24015243513E+02  0.54367099103E+02  0.40000034024E+02 0.  0.
        -12    1    3    3    0    0 -0.72598427080E+01 -0.26950723660E+02 -0.24015243513E+02  0.36820900897E+02  0.00000000000E+00 0.  1.
         11    1    4    4    0    0  0.68711592585E+01  0.50222300871E+01  0.69757881590E+01  0.11004419353E+02  0.51100000000E-03 0. -1.
        -11    1    4    4    0    0  0.14252157865E+02  0.15958614376E+02  0.18382989165E+02  0.28208787062E+02  0.51100000000E-03 0.  1.
        -12    1    4    4    0    0 -0.13863474415E+02  0.59698791965E+01 -0.13435338115E+01  0.15153892688E+02  0.00000000000E+00 0.  1.
</event>
<event>
 8    1  0.2504019E-006  0.9118800E+02  0.7816164E-02  0.1184000E+00
        -11   -1    0    0    0    0  0.00000000000E+00  0.00000000000E+00  0.45593999997E+02  0.45594000000E+02  0.51100000000E-03 0. -1.
         11   -1    0    0    0    0 -0.00000000000E+00 -0.00000000000E+00 -0.45593999997E+02  0.45594000000E+02  0.51100000000E-03 0.  1.
         23    2    1    2    0    0  0.35527136788E-14 -0.35527136788E-14  0.00000000000E+00  0.91188000000E+02  0.91188000000E+02 0.  0.
    9900012    2    3    3    0    0  0.30186201456E+02 -0.20303860723E+02 -0.56856269386E+01  0.54367083767E+02  0.39999999063E+02 0.  0.
         12    1    3    3    0    0 -0.30186201456E+02  0.20303860723E+02  0.56856269386E+01  0.36820916233E+02  0.00000000000E+00 0. -1.
         11    1    4    4    0    0 -0.42832647951E+00  0.35923402346E+01 -0.74200624779E+01  0.82550408461E+01  0.51100000000E-03 0. -1.
        -11    1    4    4    0    0  0.25675742351E+02 -0.16050334322E+02 -0.93229381437E+01  0.31682395001E+02  0.51100000000E-03 0.  1.
        -12    1    4    4    0    0  0.49387855840E+01 -0.78458666357E+01  0.11057373683E+02  0.14429647919E+02  0.00000000000E+00 0.  1.
</event>
<event>
 8    1  0.2504019E-006  0.9118800E+02  0.7816164E-02  0.1184000E+00
        -11   -1    0    0    0    0  0.00000000000E+00  0.00000000000E+00  0.45593999997E+02  0.45594000000E+02  0.51100000000E-03 0.  1.
         11   -1    0    0    0    0 -0.00000000000E+00 -0.00000000000E+00 -0.45593999997E+02  0.45594000000E+02  0.51100000000E-03 0. -1.
         23    2    1    2    0    0  0.17763568394E-14  0.00000000000E+00  0.71054273576E-14  0.91188000000E+02  0.91188000000E+02 0.  0.
    9900012    2    3    3    0    0 -0.11277724096E+02  0.23739390712E+02 -0.25788262070E+02  0.54367079415E+02  0.39999989142E+02 0.  0.
        -12    1    3    3    0    0  0.11277724096E+02 -0.23739390712E+02  0.25788262070E+02  0.36820920585E+02  0.00000000000E+00 0.  1.
         11    1    4    4    0    0 -0.43887992386E+01  0.13572324599E+02  0.71815019419E+01  0.15970082159E+02  0.51100000000E-03 0. -1.
        -11    1    4    4    0    0  0.29168827065E+01  0.55478396293E-01 -0.44225181389E+00  0.29507405009E+01  0.51100000000E-03 0.  1.
         12    1    4    4    0    0 -0.98058075636E+01  0.10111587717E+02 -0.32527512198E+02  0.35446256754E+02  0.00000000000E+00 0. -1.
</event>
<event>
 8    1  0.2504019E-006  0.9118800E+02  0.7816164E-02  0.1184000E+00
        -11   -1    0    0    0    0  0.00000000000E+00  0.00000000000E+00  0.45593999997E+02  0.45594000000E+02  0.51100000000E-03 0.  1.
         11   -1    0    0    0    0 -0.00000000000E+00 -0.00000000000E+00 -0.45593999997E+02  0.45594000000E+02  0.51100000000E-03 0. -1.
         23    2    1    2    0    0 -0.17763568394E-14 -0.35527136788E-14  0.00000000000E+00  0.91188000000E+02  0.91188000000E+02 0.  0.
    9900012    2    3    3    0    0  0.10611936280E+02 -0.27079712819E+02  0.22579966560E+02  0.54367096591E+02  0.40000028299E+02 0.  0.
         12    1    3    3    0    0 -0.10611936280E+02  0.27079712819E+02 -0.22579966560E+02  0.36820903409E+02  0.00000000000E+00 0. -1.
         11    1    4    4    0    0  0.12759665882E+02 -0.19155913557E+01  0.15451978732E+02  0.20130628670E+02  0.51100000000E-03 0. -1.
        -11    1    4    4    0    0  0.19947541920E+01  0.37457675136E+01  0.37210113343E+00  0.42600795846E+01  0.51100000000E-03 0.  1.
        -12    1    4    4    0    0 -0.41424837944E+01 -0.28909888977E+02  0.67558866944E+01  0.29976388336E+02  0.00000000000E+00 0.  1.
</event>
<event>
 8    1  0.2504019E-006  0.9118800E+02  0.7816164E-02  0.1184000E+00
        -11   -1    0    0    0    0  0.00000000000E+00  0.00000000000E+00  0.45593999997E+02  0.45594000000E+02  0.51100000000E-03 0. -1.
         11   -1    0    0    0    0 -0.00000000000E+00 -0.00000000000E+00 -0.45593999997E+02  0.45594000000E+02  0.51100000000E-03 0.  1.
         23    2    1    2    0    0  0.00000000000E+00  0.35527136788E-14 -0.88817841970E-15  0.91188000000E+02  0.91188000000E+02 0.  0.
    9900012    2    3    3    0    0  0.20779697535E+02  0.30013289369E+02 -0.48153045426E+01  0.54367074886E+02  0.39999978818E+02 0.  0.
         12    1    3    3    0    0 -0.20779697535E+02 -0.30013289369E+02  0.48153045426E+01  0.36820925114E+02  0.00000000000E+00 0. -1.
         11    1    4    4    0    0  0.11555985787E+02 -0.39303388899E+01  0.30881210827E+01  0.12590665725E+02  0.51100000000E-03 0. -1.
        -11    1    4    4    0    0  0.15059030086E+02  0.30999286246E+02 -0.61341273490E+01  0.35005108962E+02  0.51100000000E-03 0.  1.
         12    1    4    4    0    0 -0.58353183379E+01  0.29443420135E+01 -0.17692982764E+01  0.67713001992E+01  0.00000000000E+00 0. -1.
</event>
<event>
 8    1  0.2504019E-006  0.9118800E+02  0.7816164E-02  0.1184000E+00
        -11   -1    0    0    0    0  0.00000000000E+00  0.00000000000E+00  0.45593999997E+02  0.45594000000E+02  0.51100000000E-03 0. -1.
         11   -1    0    0    0    0 -0.00000000000E+00 -0.00000000000E+00 -0.45593999997E+02  0.45594000000E+02  0.51100000000E-03 0.  1.
         23    2    1    2    0    0  0.35527136788E-14 -0.35527136788E-14  0.00000000000E+00  0.91188000000E+02  0.91188000000E+02 0.  0.
    9900012    2    3    3    0    0  0.22980347833E+02  0.17812554062E+02 -0.22591955960E+02  0.54367082808E+02  0.39999996878E+02 0.  0.
         12    1    3    3    0    0 -0.22980347833E+02 -0.17812554062E+02  0.22591955960E+02  0.36820917192E+02  0.00000000000E+00 0. -1.
         11    1    4    4    0    0 -0.27364372476E+01  0.12941351340E+02 -0.22401393827E+01  0.13415844664E+02  0.51100000000E-03 0. -1.
        -11    1    4    4    0    0  0.10536936049E+02 -0.88596082416E+01 -0.29362829513E+01  0.14076272139E+02  0.51100000000E-03 0.  1.
         12    1    4    4    0    0  0.15179849032E+02  0.13730810963E+02 -0.17415533626E+02  0.26874966006E+02  0.00000000000E+00 0. -1.
</event>
<event>
 8    1  0.2504019E-006  0.9118800E+02  0.7816164E-02  0.1184000E+00
        -11   -1    0    0    0    0  0.00000000000E+00  0.00000000000E+00  0.45593999997E+02  0.45594000000E+02  0.51100000000E-03 0.  1.
         11   -1    0    0    0    0 -0.00000000000E+00 -0.00000000000E+00 -0.45593999997E+02  0.45594000000E+02  0.51100000000E-03 0. -1.
         23    2    1    2    0    0  0.17763568394E-14  0.00000000000E+00  0.00000000000E+00  0.91188000000E+02  0.91188000000E+02 0.  0.
    9900012    2    3    3    0    0 -0.14873764914E+02  0.77195780346E+01 -0.32786580663E+02  0.54367073350E+02  0.39999975317E+02 0.  0.
        -12    1    3    3    0    0  0.14873764914E+02 -0.77195780346E+01  0.32786580663E+02  0.36820926650E+02  0.00000000000E+00 0.  1.
         11    1    4    4    0    0 -0.90954652771E+01  0.56951784865E+00 -0.16104476726E+02  0.18504216008E+02  0.51100000000E-03 0. -1.
        -11    1    4    4    0    0 -0.14663492354E+02  0.45449165552E+01  0.15344421103E+01  0.15428181596E+02  0.51100000000E-03 0.  1.
         12    1    4    4    0    0  0.88851927169E+01  0.26051436307E+01 -0.18216546048E+02  0.20434675747E+02  0.00000000000E+00 0. -1.
</event>
<event>
 8    1  0.2504019E-006  0.9118800E+02  0.7816164E-02  0.1184000E+00
        -11   -1    0    0    0    0  0.00000000000E+00  0.00000000000E+00  0.45593999997E+02  0.45594000000E+02  0.51100000000E-03 0.  1.
         11   -1    0    0    0    0 -0.00000000000E+00 -0.00000000000E+00 -0.45593999997E+02  0.45594000000E+02  0.51100000000E-03 0. -1.
         23    2    1    2    0    0  0.00000000000E+00  0.35527136788E-14  0.00000000000E+00  0.91188000000E+02  0.91188000000E+02 0.  0.
    9900012    2    3    3    0    0 -0.85170742860E+00 -0.21655098667E+02 -0.29767586227E+02  0.54367110636E+02  0.40000060316E+02 0.  0.
        -12    1    3    3    0    0  0.85170742860E+00  0.21655098667E+02  0.29767586227E+02  0.36820889364E+02  0.00000000000E+00 0.  1.
         11    1    4    4    0    0 -0.68087731089E+01 -0.26311599455E+02 -0.16494492399E+02  0.31791947673E+02  0.51100000000E-03 0. -1.
        -11    1    4    4    0    0  0.11244249005E+02  0.13775044616E+00 -0.72960655291E+01  0.13404651556E+02  0.51100000000E-03 0.  1.
        -12    1    4    4    0    0 -0.52871833251E+01  0.45187503415E+01 -0.59770282986E+01  0.91705114058E+01  0.00000000000E+00 0.  1.
</event>
<event>
 8    1  0.2504019E-006  0.9118800E+02  0.7816164E-02  0.1184000E+00
        -11   -1    0    0    0    0  0.00000000000E+00  0.00000000000E+00  0.45593999997E+02  0.45594000000E+02  0.51100000000E-03 0. -1.
         11   -1    0    0    0    0 -0.00000000000E+00 -0.00000000000E+00 -0.45593999997E+02  0.45594000000E+02  0.51100000000E-03 0.  1.
         23    2    1    2    0    0  0.35527136788E-14  0.00000000000E+00  0.00000000000E+00  0.91188000000E+02  0.91188000000E+02 0.  0.
    9900012    2    3    3    0    0  0.29843114161E+02 -0.49215812665E+01 -0.20998753762E+02  0.54367067305E+02  0.39999961536E+02 0.  0.
         12    1    3    3    0    0 -0.29843114161E+02  0.49215812665E+01  0.20998753762E+02  0.36820932695E+02  0.00000000000E+00 0. -1.
         11    1    4    4    0    0  0.39042173913E+01  0.65104330050E+01  0.75331220555E+00  0.76286388623E+01  0.51100000000E-03 0. -1.
        -11    1    4    4    0    0  0.32162703019E+02 -0.12818515507E+02 -0.20510835234E+02  0.40242367818E+02  0.51100000000E-03 0.  1.
        -12    1    4    4    0    0 -0.62238062500E+01  0.13865012354E+01 -0.12412307332E+01  0.64960606252E+01  0.00000000000E+00 0.  1.
</event>
<event>
 8    1  0.2504019E-006  0.9118800E+02  0.7816164E-02  0.1184000E+00
        -11   -1    0    0    0    0  0.00000000000E+00  0.00000000000E+00  0.45593999997E+02  0.45594000000E+02  0.51100000000E-03 0.  1.
         11   -1    0    0    0    0 -0.00000000000E+00 -0.00000000000E+00 -0.45593999997E+02  0.45594000000E+02  0.51100000000E-03 0. -1.
         23    2    1    2    0    0  0.00000000000E+00  0.17763568394E-14  0.00000000000E+00  0.91188000000E+02  0.91188000000E+02 0.  0.
    9900012    2    3    3    0    0 -0.17482952683E+02 -0.67490939220E+01  0.31695050608E+02  0.54367080181E+02  0.39999990888E+02 0.  0.
         12    1    3    3    0    0  0.17482952683E+02  0.67490939220E+01 -0.31695050608E+02  0.36820919819E+02  0.00000000000E+00 0. -1.
         11    1    4    4    0    0 -0.11183742813E+02  0.20681952933E+01  0.77223993936E+01  0.13747326567E+02  0.51100000000E-03 0.  1.
        -11    1    4    4    0    0  0.13501377565E+01  0.11230758363E+02  0.89873178598E+01  0.14447307290E+02  0.51100000000E-03 0. -1.
        -12    1    4    4    0    0 -0.76493476267E+01 -0.20048047578E+02  0.14985333355E+02  0.26172446324E+02  0.00000000000E+00 0.  1.
</event>
<event>
 8    1  0.2504019E-006  0.9118800E+02  0.7816164E-02  0.1184000E+00
        -11   -1    0    0    0    0  0.00000000000E+00  0.00000000000E+00  0.45593999997E+02  0.45594000000E+02  0.51100000000E-03 0. -1.
         11   -1    0    0    0    0 -0.00000000000E+00 -0.00000000000E+00 -0.45593999997E+02  0.45594000000E+02  0.51100000000E-03 0.  1.
         23    2    1    2    0    0  0.17763568394E-14 -0.17763568394E-14 -0.71054273576E-14  0.91188000000E+02  0.91188000000E+02 0.  0.
    9900012    2    3    3    0    0  0.13560600474E+02 -0.12110376207E+02  0.32019189705E+02  0.54367087376E+02  0.40000007291E+02 0.  0.
        -12    1    3    3    0    0 -0.13560600474E+02  0.12110376207E+02 -0.32019189705E+02  0.36820912624E+02  0.00000000000E+00 0.  1.
         11    1    4    4    0    0 -0.58388984736E+01 -0.92574371422E+01  0.17542976598E+02  0.20677255766E+02  0.51100000000E-03 0. -1.
        -11    1    4    4    0    0  0.23617257578E+02  0.62784508142E+00  0.74216111792E+01  0.24763872026E+02  0.51100000000E-03 0.  1.
        -12    1    4    4    0    0 -0.42177586303E+01 -0.34807841464E+01  0.70546019283E+01  0.89259595845E+01  0.00000000000E+00 0.  1.
</event>
<event>
 8    1  0.2504019E-006  0.9118800E+02  0.7816164E-02  0.1184000E+00
        -11   -1    0    0    0    0  0.00000000000E+00  0.00000000000E+00  0.45593999997E+02  0.45594000000E+02  0.51100000000E-03 0.  1.
         11   -1    0    0    0    0 -0.00000000000E+00 -0.00000000000E+00 -0.45593999997E+02  0.45594000000E+02  0.51100000000E-03 0. -1.
         23    2    1    2    0    0  0.00000000000E+00  0.00000000000E+00  0.00000000000E+00  0.91188000000E+02  0.91188000000E+02 0.  0.
    9900012    2    3    3    0    0 -0.35054903546E+02  0.10027749728E+02 -0.51359309986E+01  0.54367084552E+02  0.40000000852E+02 0.  0.
        -12    1    3    3    0    0  0.35054903546E+02 -0.10027749728E+02  0.51359309986E+01  0.36820915448E+02  0.00000000000E+00 0.  1.
         11    1    4    4    0    0  0.34311282009E+00  0.31914440921E+01 -0.24401988115E+01  0.40320729534E+01  0.51100000000E-03 0.  1.
        -11    1    4    4    0    0  0.27791409074E+01 -0.75534723525E+01 -0.49928130730E+01  0.94713648122E+01  0.51100000000E-03 0. -1.
         12    1    4    4    0    0 -0.38177157274E+02  0.14389777988E+02  0.22970808859E+01  0.40863646786E+02  0.00000000000E+00 0. -1.
</event>
<event>
 8    1  0.2504019E-006  0.9118800E+02  0.7816164E-02  0.1184000E+00
        -11   -1    0    0    0    0  0.00000000000E+00  0.00000000000E+00  0.45593999997E+02  0.45594000000E+02  0.51100000000E-03 0. -1.
         11   -1    0    0    0    0 -0.00000000000E+00 -0.00000000000E+00 -0.45593999997E+02  0.45594000000E+02  0.51100000000E-03 0.  1.
         23    2    1    2    0    0  0.71054273576E-14 -0.17763568394E-14 -0.17763568394E-14  0.91188000000E+02  0.91188000000E+02 0.  0.
    9900012    2    3    3    0    0 -0.32601864055E+02 -0.13016773625E+02  0.11111292590E+02  0.54367098891E+02  0.40000033542E+02 0.  0.
         12    1    3    3    0    0  0.32601864055E+02  0.13016773625E+02 -0.11111292590E+02  0.36820901109E+02  0.00000000000E+00 0. -1.
         11    1    4    4    0    0 -0.14926997865E+02 -0.13144392107E+01  0.94506737271E+01  0.17716044984E+02  0.51100000000E-03 0. -1.
        -11    1    4    4    0    0 -0.47927485384E+01  0.10031301763E+02 -0.13856877158E+01  0.11203463050E+02  0.51100000000E-03 0.  1.
         12    1    4    4    0    0 -0.12882117651E+02 -0.21733636177E+02  0.30463065786E+01  0.25447590857E+02  0.00000000000E+00 0. -1.
</event>
<event>
 8    1  0.2504019E-006  0.9118800E+02  0.7816164E-02  0.1184000E+00
        -11   -1    0    0    0    0  0.00000000000E+00  0.00000000000E+00  0.45593999997E+02  0.45594000000E+02  0.51100000000E-03 0. -1.
         11   -1    0    0    0    0 -0.00000000000E+00 -0.00000000000E+00 -0.45593999997E+02  0.45594000000E+02  0.51100000000E-03 0.  1.
         23    2    1    2    0    0  0.00000000000E+00  0.00000000000E+00 -0.17763568394E-14  0.91188000000E+02  0.91188000000E+02 0.  0.
    9900012    2    3    3    0    0  0.24463355887E+02 -0.26655816392E+02 -0.68404212199E+01  0.54367086225E+02  0.40000004668E+02 0.  0.
        -12    1    3    3    0    0 -0.24463355887E+02  0.26655816392E+02  0.68404212199E+01  0.36820913775E+02  0.00000000000E+00 0.  1.
         11    1    4    4    0    0  0.10553108778E+01 -0.34318308039E+01  0.24553847268E+00  0.35988099586E+01  0.51100000000E-03 0. -1.
        -11    1    4    4    0    0  0.50753515889E+01  0.49334146847E+01  0.10640356078E+02  0.12779473852E+02  0.51100000000E-03 0.  1.
        -12    1    4    4    0    0  0.18332693420E+02 -0.28157400272E+02 -0.17726315770E+02  0.37988802415E+02  0.00000000000E+00 0.  1.
</event>
<event>
 8    1  0.2504019E-006  0.9118800E+02  0.7816164E-02  0.1184000E+00
        -11   -1    0    0    0    0  0.00000000000E+00  0.00000000000E+00  0.45593999997E+02  0.45594000000E+02  0.51100000000E-03 0. -1.
         11   -1    0    0    0    0 -0.00000000000E+00 -0.00000000000E+00 -0.45593999997E+02  0.45594000000E+02  0.51100000000E-03 0.  1.
         23    2    1    2    0    0 -0.35527136788E-14 -0.17763568394E-14  0.35527136788E-14  0.91188000000E+02  0.91188000000E+02 0.  0.
    9900012    2    3    3    0    0 -0.20811822494E+02 -0.12240329694E+02  0.27799659444E+02  0.54367099797E+02  0.40000035608E+02 0.  0.
        -12    1    3    3    0    0  0.20811822494E+02  0.12240329694E+02 -0.27799659444E+02  0.36820900203E+02  0.00000000000E+00 0.  1.
         11    1    4    4    0    0 -0.15617236616E+02  0.12430305886E+01  0.15629372439E+02  0.22129629180E+02  0.51100000000E-03 0. -1.
        -11    1    4    4    0    0 -0.76039652748E+01 -0.77884730884E+01  0.19692092036E+02  0.22500201999E+02  0.51100000000E-03 0.  1.
        -12    1    4    4    0    0  0.24093793963E+01 -0.56948871937E+01 -0.75218050311E+01  0.97372686186E+01  0.00000000000E+00 0.  1.
</event>
<event>
 8    1  0.2504019E-006  0.9118800E+02  0.7816164E-02  0.1184000E+00
        -11   -1    0    0    0    0  0.00000000000E+00  0.00000000000E+00  0.45593999997E+02  0.45594000000E+02  0.51100000000E-03 0. -1.
         11   -1    0    0    0    0 -0.00000000000E+00 -0.00000000000E+00 -0.45593999997E+02  0.45594000000E+02  0.51100000000E-03 0.  1.
         23    2    1    2    0    0  0.44408920985E-15  0.00000000000E+00  0.35527136788E-14  0.91188000000E+02  0.91188000000E+02 0.  0.
    9900012    2    3    3    0    0 -0.31102319404E+00 -0.18637656918E+02 -0.31754051666E+02  0.54367098490E+02  0.40000032627E+02 0.  0.
         12    1    3    3    0    0  0.31102319404E+00  0.18637656918E+02  0.31754051666E+02  0.36820901510E+02  0.00000000000E+00 0. -1.
         11    1    4    4    0    0 -0.62624256984E+01 -0.53293808091E+01  0.40037828749E+01  0.91460676253E+01  0.51100000000E-03 0.  1.
        -11    1    4    4    0    0 -0.21891381353E+01 -0.16497954058E+01  0.29243085478E+01  0.40082080036E+01  0.51100000000E-03 0. -1.
         12    1    4    4    0    0  0.81405406397E+01 -0.11658480704E+02 -0.38682143089E+02  0.41212822861E+02  0.00000000000E+00 0. -1.
</event>
<event>
 8    1  0.2504019E-006  0.9118800E+02  0.7816164E-02  0.1184000E+00
        -11   -1    0    0    0    0  0.00000000000E+00  0.00000000000E+00  0.45593999997E+02  0.45594000000E+02  0.51100000000E-03 0.  1.
         11   -1    0    0    0    0 -0.00000000000E+00 -0.00000000000E+00 -0.45593999997E+02  0.45594000000E+02  0.51100000000E-03 0. -1.
         23    2    1    2    0    0  0.00000000000E+00  0.00000000000E+00  0.44408920985E-15  0.91188000000E+02  0.91188000000E+02 0.  0.
    9900012    2    3    3    0    0 -0.25774987002E+02  0.26227450785E+02 -0.18841372869E+01  0.54367094213E+02  0.40000022878E+02 0.  0.
        -12    1    3    3    0    0  0.25774987002E+02 -0.26227450785E+02  0.18841372869E+01  0.36820905787E+02  0.00000000000E+00 0.  1.
         11    1    4    4    0    0 -0.26800411738E+01 -0.14347870206E+01 -0.40904965138E+01  0.50964101560E+01  0.51100000000E-03 0. -1.
        -11    1    4    4    0    0 -0.63906384720E+01  0.22862022007E+02 -0.12205485924E+02  0.26692437079E+02  0.51100000000E-03 0.  1.
        -12    1    4    4    0    0 -0.16704307356E+02  0.48002157981E+01  0.14411845150E+02  0.22578246978E+02  0.00000000000E+00 0.  1.
</event>
<event>
 8    1  0.2504019E-006  0.9118800E+02  0.7816164E-02  0.1184000E+00
        -11   -1    0    0    0    0  0.00000000000E+00  0.00000000000E+00  0.45593999997E+02  0.45594000000E+02  0.51100000000E-03 0. -1.
         11   -1    0    0    0    0 -0.00000000000E+00 -0.00000000000E+00 -0.45593999997E+02  0.45594000000E+02  0.51100000000E-03 0.  1.
         23    2    1    2    0    0  0.00000000000E+00  0.00000000000E+00  0.00000000000E+00  0.91188000000E+02  0.91188000000E+02 0.  0.
    9900012    2    3    3    0    0 -0.71006386332E+01  0.17966235744E+02 -0.31346095402E+02  0.54367049540E+02  0.39999921035E+02 0.  0.
         12    1    3    3    0    0  0.71006386332E+01 -0.17966235744E+02  0.31346095402E+02  0.36820950460E+02  0.00000000000E+00 0. -1.
         11    1    4    4    0    0 -0.14164301932E+02 -0.20950849244E+00 -0.33265432013E+01  0.14551193523E+02  0.51100000000E-03 0. -1.
        -11    1    4    4    0    0 -0.62736227005E+01  0.33459011680E+01 -0.13110244561E+02  0.14914151304E+02  0.51100000000E-03 0.  1.
        -12    1    4    4    0    0  0.13337285999E+02  0.14829843069E+02 -0.14909307640E+02  0.24901704712E+02  0.00000000000E+00 0.  1.
</event>
<event>
 8    1  0.2504019E-006  0.9118800E+02  0.7816164E-02  0.1184000E+00
        -11   -1    0    0    0    0  0.00000000000E+00  0.00000000000E+00  0.45593999997E+02  0.45594000000E+02  0.51100000000E-03 0.  1.
         11   -1    0    0    0    0 -0.00000000000E+00 -0.00000000000E+00 -0.45593999997E+02  0.45594000000E+02  0.51100000000E-03 0. -1.
         23    2    1    2    0    0  0.17763568394E-14  0.00000000000E+00  0.00000000000E+00  0.91188000000E+02  0.91188000000E+02 0.  0.
    9900012    2    3    3    0    0  0.98144612563E+01  0.31178052926E+02  0.16952486626E+02  0.54367062521E+02  0.39999950629E+02 0.  0.
         12    1    3    3    0    0 -0.98144612563E+01 -0.31178052926E+02 -0.16952486626E+02  0.36820937479E+02  0.00000000000E+00 0. -1.
         11    1    4    4    0    0  0.90605183415E+01  0.71283887805E+01 -0.67440970398E+01  0.13356263114E+02  0.51100000000E-03 0. -1.
        -11    1    4    4    0    0 -0.20743691821E+00 -0.13338980934E+01 -0.35271545399E+01  0.37766564059E+01  0.51100000000E-03 0.  1.
        -12    1    4    4    0    0  0.96137983297E+00  0.25383562239E+02  0.27223738206E+02  0.37234143001E+02  0.00000000000E+00 0.  1.
</event>
<event>
 8    1  0.2504019E-006  0.9118800E+02  0.7816164E-02  0.1184000E+00
        -11   -1    0    0    0    0  0.00000000000E+00  0.00000000000E+00  0.45593999997E+02  0.45594000000E+02  0.51100000000E-03 0.  1.
         11   -1    0    0    0    0 -0.00000000000E+00 -0.00000000000E+00 -0.45593999997E+02  0.45594000000E+02  0.51100000000E-03 0. -1.
         23    2    1    2    0    0 -0.71054273576E-14  0.17763568394E-14  0.17763568394E-14  0.91188000000E+02  0.91188000000E+02 0.  0.
    9900012    2    3    3    0    0  0.33824850207E+02 -0.13034025650E+02 -0.64632563161E+01  0.54367082054E+02  0.39999995158E+02 0.  0.
        -12    1    3    3    0    0 -0.33824850207E+02  0.13034025650E+02  0.64632563161E+01  0.36820917946E+02  0.00000000000E+00 0.  1.
         11    1    4    4    0    0  0.26268309717E+02 -0.90947674127E+01 -0.84815433858E+01  0.29063301054E+02  0.51100000000E-03 0. -1.
        -11    1    4    4    0    0  0.13166417100E+01 -0.47161675759E+01  0.12307218013E+02  0.13245504802E+02  0.51100000000E-03 0.  1.
        -12    1    4    4    0    0  0.62398987799E+01  0.77690933909E+00 -0.10288930943E+02  0.12058276197E+02  0.00000000000E+00 0.  1.
</event>
<event>
 8    1  0.2504019E-006  0.9118800E+02  0.7816164E-02  0.1184000E+00
        -11   -1    0    0    0    0  0.00000000000E+00  0.00000000000E+00  0.45593999997E+02  0.45594000000E+02  0.51100000000E-03 0. -1.
         11   -1    0    0    0    0 -0.00000000000E+00 -0.00000000000E+00 -0.45593999997E+02  0.45594000000E+02  0.51100000000E-03 0.  1.
         23    2    1    2    0    0  0.00000000000E+00  0.00000000000E+00  0.00000000000E+00  0.91188000000E+02  0.91188000000E+02 0.  0.
    9900012    2    3    3    0    0  0.28957198862E+02  0.22367500885E+02 -0.41181650239E+01  0.54367031179E+02  0.39999879179E+02 0.  0.
        -12    1    3    3    0    0 -0.28957198862E+02 -0.22367500885E+02  0.41181650239E+01  0.36820968821E+02  0.00000000000E+00 0.  1.
         11    1    4    4    0    0  0.21066961870E+02  0.11071852600E+02  0.23834080923E+01  0.23918265757E+02  0.51100000000E-03 0. -1.
        -11    1    4    4    0    0  0.21821551123E+01 -0.38995762811E+01  0.76858390148E+01  0.88904790495E+01  0.51100000000E-03 0.  1.
        -12    1    4    4    0    0  0.57080818796E+01  0.15195224566E+02 -0.14187412131E+02  0.21558286373E+02  0.00000000000E+00 0.  1.
</event>
<event>
 8    1  0.2504019E-006  0.9118800E+02  0.7816164E-02  0.1184000E+00
        -11   -1    0    0    0    0  0.00000000000E+00  0.00000000000E+00  0.45593999997E+02  0.45594000000E+02  0.51100000000E-03 0. -1.
         11   -1    0    0    0    0 -0.00000000000E+00 -0.00000000000E+00 -0.45593999997E+02  0.45594000000E+02  0.51100000000E-03 0.  1.
         23    2    1    2    0    0  0.00000000000E+00 -0.88817841970E-15  0.00000000000E+00  0.91188000000E+02  0.91188000000E+02 0.  0.
    9900012    2    3    3    0    0 -0.35362778157E+02 -0.73059445009E+01  0.72026200411E+01  0.54367073348E+02  0.39999975311E+02 0.  0.
        -12    1    3    3    0    0  0.35362778157E+02  0.73059445009E+01 -0.72026200411E+01  0.36820926652E+02  0.00000000000E+00 0.  1.
         11    1    4    4    0    0 -0.22433583137E+01  0.18300364453E+01  0.82895007885E+01  0.87805189766E+01  0.51100000000E-03 0. -1.
        -11    1    4    4    0    0 -0.13498724529E+02 -0.11065149662E+02  0.12651008440E+02  0.21556927327E+02  0.51100000000E-03 0.  1.
        -12    1    4    4    0    0 -0.19620695314E+02  0.19291687160E+01 -0.13737889188E+02  0.24029627044E+02  0.00000000000E+00 0.  1.
</event>
<event>
 8    1  0.2504019E-006  0.9118800E+02  0.7816164E-02  0.1184000E+00
        -11   -1    0    0    0    0  0.00000000000E+00  0.00000000000E+00  0.45593999997E+02  0.45594000000E+02  0.51100000000E-03 0. -1.
         11   -1    0    0    0    0 -0.00000000000E+00 -0.00000000000E+00 -0.45593999997E+02  0.45594000000E+02  0.51100000000E-03 0.  1.
         23    2    1    2    0    0 -0.22204460493E-14 -0.17763568394E-14  0.00000000000E+00  0.91188000000E+02  0.91188000000E+02 0.  0.
    9900012    2    3    3    0    0 -0.63903063461E+00  0.13263632871E+02  0.34343064829E+02  0.54367103502E+02  0.40000044053E+02 0.  0.
        -12    1    3    3    0    0  0.63903063461E+00 -0.13263632871E+02 -0.34343064829E+02  0.36820896498E+02  0.00000000000E+00 0.  1.
         11    1    4    4    0    0 -0.89469570123E+01  0.88208688874E+01  0.94475502224E+01  0.15719795583E+02  0.51100000000E-03 0. -1.
        -11    1    4    4    0    0 -0.84193232231E+01 -0.23526843033E+01  0.11497936915E+01  0.88171510569E+01  0.51100000000E-03 0.  1.
         12    1    4    4    0    0  0.16727249601E+02  0.67954482866E+01  0.23745720915E+02  0.29830156862E+02  0.00000000000E+00 0. -1.
</event>
<event>
 8    1  0.2504019E-006  0.9118800E+02  0.7816164E-02  0.1184000E+00
        -11   -1    0    0    0    0  0.00000000000E+00  0.00000000000E+00  0.45593999997E+02  0.45594000000E+02  0.51100000000E-03 0.  1.
         11   -1    0    0    0    0 -0.00000000000E+00 -0.00000000000E+00 -0.45593999997E+02  0.45594000000E+02  0.51100000000E-03 0. -1.
         23    2    1    2    0    0  0.35527136788E-14 -0.22204460493E-15 -0.35527136788E-14  0.91188000000E+02  0.91188000000E+02 0.  0.
    9900012    2    3    3    0    0  0.31095045723E+02 -0.17620842558E+01 -0.19641115232E+02  0.54367079086E+02  0.39999988391E+02 0.  0.
         12    1    3    3    0    0 -0.31095045723E+02  0.17620842558E+01  0.19641115232E+02  0.36820920914E+02  0.00000000000E+00 0. -1.
         11    1    4    4    0    0  0.11714838014E+02  0.16415056474E+01  0.19268567567E+01  0.11985188680E+02  0.51100000000E-03 0.  1.
        -11    1    4    4    0    0  0.26565941211E+02 -0.65918759837E+01 -0.21001491763E+02  0.34500213303E+02  0.51100000000E-03 0. -1.
         12    1    4    4    0    0 -0.71857335022E+01  0.31882860806E+01 -0.56648022551E+00  0.78816771021E+01  0.00000000000E+00 0. -1.
</event>
<event>
 8    1  0.2504019E-006  0.9118800E+02  0.7816164E-02  0.1184000E+00
        -11   -1    0    0    0    0  0.00000000000E+00  0.00000000000E+00  0.45593999997E+02  0.45594000000E+02  0.51100000000E-03 0.  1.
         11   -1    0    0    0    0 -0.00000000000E+00 -0.00000000000E+00 -0.45593999997E+02  0.45594000000E+02  0.51100000000E-03 0. -1.
         23    2    1    2    0    0  0.17763568394E-14  0.00000000000E+00  0.00000000000E+00  0.91188000000E+02  0.91188000000E+02 0.  0.
    9900012    2    3    3    0    0 -0.10436231462E+02 -0.80804766337E+01  0.34373990422E+02  0.54367078674E+02  0.39999987453E+02 0.  0.
         12    1    3    3    0    0  0.10436231462E+02  0.80804766337E+01 -0.34373990422E+02  0.36820921326E+02  0.00000000000E+00 0. -1.
         11    1    4    4    0    0  0.61510868511E+01  0.64396660119E+00  0.21896946157E+02  0.22753611004E+02  0.51100000000E-03 0. -1.
        -11    1    4    4    0    0  0.71979724689E-01 -0.27778660506E+01  0.13607729715E+02  0.13888557489E+02  0.51100000000E-03 0.  1.
        -12    1    4    4    0    0 -0.16659298038E+02 -0.59465771843E+01 -0.11306854499E+01  0.17724910181E+02  0.00000000000E+00 0.  1.
</event>
<event>
 8    1  0.2504019E-006  0.9118800E+02  0.7816164E-02  0.1184000E+00
        -11   -1    0    0    0    0  0.00000000000E+00  0.00000000000E+00  0.45593999997E+02  0.45594000000E+02  0.51100000000E-03 0.  1.
         11   -1    0    0    0    0 -0.00000000000E+00 -0.00000000000E+00 -0.45593999997E+02  0.45594000000E+02  0.51100000000E-03 0. -1.
         23    2    1    2    0    0  0.00000000000E+00 -0.35527136788E-14  0.00000000000E+00  0.91188000000E+02  0.91188000000E+02 0.  0.
    9900012    2    3    3    0    0 -0.41335858624E+01  0.20198679407E+02 -0.30507474931E+02  0.54367092780E+02  0.40000019610E+02 0.  0.
        -12    1    3    3    0    0  0.41335858624E+01 -0.20198679407E+02  0.30507474931E+02  0.36820907220E+02  0.00000000000E+00 0.  1.
         11    1    4    4    0    0 -0.10611325773E+02 -0.35682401239E+01 -0.76290943505E+01  0.13547533101E+02  0.51100000000E-03 0. -1.
        -11    1    4    4    0    0 -0.18413499880E+01  0.12111177710E+02 -0.23483528132E+02  0.26486737986E+02  0.51100000000E-03 0.  1.
        -12    1    4    4    0    0  0.83190898986E+01  0.11655741821E+02  0.60514755231E+00  0.14332821693E+02  0.00000000000E+00 0.  1.
</event>
<event>
 8    1  0.2504019E-006  0.9118800E+02  0.7816164E-02  0.1184000E+00
        -11   -1    0    0    0    0  0.00000000000E+00  0.00000000000E+00  0.45593999997E+02  0.45594000000E+02  0.51100000000E-03 0.  1.
         11   -1    0    0    0    0 -0.00000000000E+00 -0.00000000000E+00 -0.45593999997E+02  0.45594000000E+02  0.51100000000E-03 0. -1.
         23    2    1    2    0    0  0.00000000000E+00  0.17763568394E-14  0.71054273576E-14  0.91188000000E+02  0.91188000000E+02 0.  0.
    9900012    2    3    3    0    0 -0.11726702036E+02  0.44140672750E+01  0.34623404202E+02  0.54367086797E+02  0.40000005971E+02 0.  0.
         12    1    3    3    0    0  0.11726702036E+02 -0.44140672750E+01 -0.34623404202E+02  0.36820913203E+02  0.00000000000E+00 0. -1.
         11    1    4    4    0    0 -0.15196255682E+02  0.15534453821E+02  0.10748419223E+02  0.24244049957E+02  0.51100000000E-03 0. -1.
        -11    1    4    4    0    0  0.28165835707E+00  0.92846212765E+00  0.14487008635E+02  0.14519462552E+02  0.51100000000E-03 0.  1.
         12    1    4    4    0    0  0.31878952887E+01 -0.12048848673E+02  0.93879763443E+01  0.15603574288E+02  0.00000000000E+00 0. -1.
</event>
<event>
 8    1  0.2504019E-006  0.9118800E+02  0.7816164E-02  0.1184000E+00
        -11   -1    0    0    0    0  0.00000000000E+00  0.00000000000E+00  0.45593999997E+02  0.45594000000E+02  0.51100000000E-03 0.  1.
         11   -1    0    0    0    0 -0.00000000000E+00 -0.00000000000E+00 -0.45593999997E+02  0.45594000000E+02  0.51100000000E-03 0. -1.
         23    2    1    2    0    0  0.35527136788E-14  0.00000000000E+00  0.00000000000E+00  0.91188000000E+02  0.91188000000E+02 0.  0.
    9900012    2    3    3    0    0  0.28408464529E+02 -0.17015324832E+02  0.16100254231E+02  0.54367077655E+02  0.39999985130E+02 0.  0.
        -12    1    3    3    0    0 -0.28408464529E+02  0.17015324832E+02 -0.16100254231E+02  0.36820922345E+02  0.00000000000E+00 0.  1.
         11    1    4    4    0    0  0.22285093020E+02 -0.66499147714E+01  0.13474618094E+02  0.26877724428E+02  0.51100000000E-03 0. -1.
        -11    1    4    4    0    0  0.33796196775E+01  0.27364208408E+01 -0.88480760985E+01  0.98589187586E+01  0.51100000000E-03 0.  1.
        -12    1    4    4    0    0  0.27437518315E+01 -0.13101830902E+02  0.11473712235E+02  0.17630434468E+02  0.00000000000E+00 0.  1.
</event>
<event>
 8    1  0.2504019E-006  0.9118800E+02  0.7816164E-02  0.1184000E+00
        -11   -1    0    0    0    0  0.00000000000E+00  0.00000000000E+00  0.45593999997E+02  0.45594000000E+02  0.51100000000E-03 0. -1.
         11   -1    0    0    0    0 -0.00000000000E+00 -0.00000000000E+00 -0.45593999997E+02  0.45594000000E+02  0.51100000000E-03 0.  1.
         23    2    1    2    0    0  0.00000000000E+00  0.17763568394E-14  0.17763568394E-14  0.91188000000E+02  0.91188000000E+02 0.  0.
    9900012    2    3    3    0    0  0.32351767014E+02  0.13437719848E+02  0.11338917013E+02  0.54367079551E+02  0.39999989453E+02 0.  0.
        -12    1    3    3    0    0 -0.32351767014E+02 -0.13437719848E+02 -0.11338917013E+02  0.36820920449E+02  0.00000000000E+00 0.  1.
         11    1    4    4    0    0  0.65859917903E+01  0.91738848946E+01  0.72369433807E+01  0.13413008674E+02  0.51100000000E-03 0. -1.
        -11    1    4    4    0    0  0.29114735760E+02  0.10420016664E+01 -0.60806182165E+01  0.29761174776E+02  0.51100000000E-03 0.  1.
        -12    1    4    4    0    0 -0.33489605363E+01  0.32218332873E+01  0.10182591848E+02  0.11192896102E+02  0.00000000000E+00 0.  1.
</event>
<event>
 8    1  0.2504019E-006  0.9118800E+02  0.7816164E-02  0.1184000E+00
        -11   -1    0    0    0    0  0.00000000000E+00  0.00000000000E+00  0.45593999997E+02  0.45594000000E+02  0.51100000000E-03 0.  1.
         11   -1    0    0    0    0 -0.00000000000E+00 -0.00000000000E+00 -0.45593999997E+02  0.45594000000E+02  0.51100000000E-03 0. -1.
         23    2    1    2    0    0 -0.17763568394E-14 -0.35527136788E-14  0.17763568394E-14  0.91188000000E+02  0.91188000000E+02 0.  0.
    9900012    2    3    3    0    0  0.11717208296E+02 -0.31864904228E+02 -0.14251850958E+02  0.54367077314E+02  0.39999984353E+02 0.  0.
        -12    1    3    3    0    0 -0.11717208296E+02  0.31864904228E+02  0.14251850958E+02  0.36820922686E+02  0.00000000000E+00 0.  1.
         11    1    4    4    0    0  0.15446433165E+02 -0.19221256576E+02 -0.85035513097E+01  0.26083699642E+02  0.51100000000E-03 0. -1.
        -11    1    4    4    0    0  0.94258887512E+01 -0.93773573752E+01  0.61357611291E+00  0.13310097145E+02  0.51100000000E-03 0.  1.
         12    1    4    4    0    0 -0.13155113621E+02 -0.32662902765E+01 -0.63618757612E+01  0.14973280527E+02  0.00000000000E+00 0. -1.
</event>
<event>
 8    1  0.2504019E-006  0.9118800E+02  0.7816164E-02  0.1184000E+00
        -11   -1    0    0    0    0  0.00000000000E+00  0.00000000000E+00  0.45593999997E+02  0.45594000000E+02  0.51100000000E-03 0. -1.
         11   -1    0    0    0    0 -0.00000000000E+00 -0.00000000000E+00 -0.45593999997E+02  0.45594000000E+02  0.51100000000E-03 0.  1.
         23    2    1    2    0    0 -0.17763568394E-14  0.88817841970E-15 -0.71054273576E-14  0.91188000000E+02  0.91188000000E+02 0.  0.
    9900012    2    3    3    0    0  0.11352843877E+02  0.65824440230E+01 -0.34402972770E+02  0.54367079739E+02  0.39999989882E+02 0.  0.
         12    1    3    3    0    0 -0.11352843877E+02 -0.65824440230E+01  0.34402972770E+02  0.36820920261E+02  0.00000000000E+00 0. -1.
         11    1    4    4    0    0 -0.98848161702E+00 -0.30347778060E+01 -0.36015215743E+01  0.48122687113E+01  0.51100000000E-03 0. -1.
        -11    1    4    4    0    0 -0.47387691771E+01  0.67325216627E+01 -0.31159804840E+02  0.32229120670E+02  0.51100000000E-03 0.  1.
         12    1    4    4    0    0  0.17080094671E+02  0.28847001663E+01  0.35835364420E+00  0.17325690357E+02  0.00000000000E+00 0. -1.
</event>
<event>
 8    1  0.2504019E-006  0.9118800E+02  0.7816164E-02  0.1184000E+00
        -11   -1    0    0    0    0  0.00000000000E+00  0.00000000000E+00  0.45593999997E+02  0.45594000000E+02  0.51100000000E-03 0. -1.
         11   -1    0    0    0    0 -0.00000000000E+00 -0.00000000000E+00 -0.45593999997E+02  0.45594000000E+02  0.51100000000E-03 0.  1.
         23    2    1    2    0    0  0.00000000000E+00  0.00000000000E+00  0.88817841970E-15  0.91188000000E+02  0.91188000000E+02 0.  0.
    9900012    2    3    3    0    0  0.33348482406E+02 -0.14576368163E+02 -0.55845059658E+01  0.54367102476E+02  0.40000041714E+02 0.  0.
        -12    1    3    3    0    0 -0.33348482406E+02  0.14576368163E+02  0.55845059658E+01  0.36820897524E+02  0.00000000000E+00 0.  1.
         11    1    4    4    0    0  0.15081957384E+02 -0.21997945317E+02 -0.13970707173E+01  0.26708179338E+02  0.51100000000E-03 0. -1.
        -11    1    4    4    0    0  0.26310109170E+01 -0.46751102407E+01 -0.57062840984E+01  0.78320209832E+01  0.51100000000E-03 0.  1.
         12    1    4    4    0    0  0.15635514104E+02  0.12096687394E+02  0.15188488499E+01  0.19826902155E+02  0.00000000000E+00 0. -1.
</event>
<event>
 8    1  0.2504019E-006  0.9118800E+02  0.7816164E-02  0.1184000E+00
        -11   -1    0    0    0    0  0.00000000000E+00  0.00000000000E+00  0.45593999997E+02  0.45594000000E+02  0.51100000000E-03 0. -1.
         11   -1    0    0    0    0 -0.00000000000E+00 -0.00000000000E+00 -0.45593999997E+02  0.45594000000E+02  0.51100000000E-03 0.  1.
         23    2    1    2    0    0 -0.35527136788E-14  0.35527136788E-14  0.44408920985E-15  0.91188000000E+02  0.91188000000E+02 0.  0.
    9900012    2    3    3    0    0  0.22502837908E+02 -0.28961264269E+02 -0.32628904993E+01  0.54367095660E+02  0.40000026177E+02 0.  0.
         12    1    3    3    0    0 -0.22502837908E+02  0.28961264269E+02  0.32628904993E+01  0.36820904340E+02  0.00000000000E+00 0. -1.
         11    1    4    4    0    0  0.17490862433E+02 -0.12298421779E+02 -0.62585546974E+01  0.22278935209E+02  0.51100000000E-03 0.  1.
        -11    1    4    4    0    0 -0.29048698058E+01 -0.20099005320E+01 -0.10228745755E+02  0.10821516009E+02  0.51100000000E-03 0. -1.
         12    1    4    4    0    0  0.79168452813E+01 -0.14652941958E+02  0.13224409953E+02  0.21266644443E+02  0.00000000000E+00 0. -1.
</event>
<event>
 8    1  0.2504019E-006  0.9118800E+02  0.7816164E-02  0.1184000E+00
        -11   -1    0    0    0    0  0.00000000000E+00  0.00000000000E+00  0.45593999997E+02  0.45594000000E+02  0.51100000000E-03 0. -1.
         11   -1    0    0    0    0 -0.00000000000E+00 -0.00000000000E+00 -0.45593999997E+02  0.45594000000E+02  0.51100000000E-03 0.  1.
         23    2    1    2    0    0  0.00000000000E+00  0.00000000000E+00  0.00000000000E+00  0.91188000000E+02  0.91188000000E+02 0.  0.
    9900012    2    3    3    0    0 -0.13260099262E+02 -0.31031272149E+02 -0.14731356023E+02  0.54367042191E+02  0.39999904283E+02 0.  0.
         12    1    3    3    0    0  0.13260099262E+02  0.31031272149E+02  0.14731356023E+02  0.36820957809E+02  0.00000000000E+00 0. -1.
         11    1    4    4    0    0  0.69110754770E+01 -0.13143072805E+02  0.34633500272E+01  0.15247889057E+02  0.51100000000E-03 0.  1.
        -11    1    4    4    0    0 -0.14005114706E+02 -0.81570371963E+01 -0.21693527181E+02  0.27079320811E+02  0.51100000000E-03 0. -1.
        -12    1    4    4    0    0 -0.61660600334E+01 -0.97311621477E+01  0.34988211304E+01  0.12039832324E+02  0.00000000000E+00 0.  1.
</event>
<event>
 8    1  0.2504019E-006  0.9118800E+02  0.7816164E-02  0.1184000E+00
        -11   -1    0    0    0    0  0.00000000000E+00  0.00000000000E+00  0.45593999997E+02  0.45594000000E+02  0.51100000000E-03 0.  1.
         11   -1    0    0    0    0 -0.00000000000E+00 -0.00000000000E+00 -0.45593999997E+02  0.45594000000E+02  0.51100000000E-03 0. -1.
         23    2    1    2    0    0  0.26645352591E-14  0.00000000000E+00 -0.35527136788E-14  0.91188000000E+02  0.91188000000E+02 0.  0.
    9900012    2    3    3    0    0 -0.39058493051E+01  0.22548240187E+02  0.28846159545E+02  0.54367085904E+02  0.40000003936E+02 0.  0.
         12    1    3    3    0    0  0.39058493051E+01 -0.22548240187E+02 -0.28846159545E+02  0.36820914096E+02  0.00000000000E+00 0. -1.
         11    1    4    4    0    0 -0.19232889375E+02  0.13322966483E+02  0.23715885312E+02  0.33314391575E+02  0.51100000000E-03 0. -1.
        -11    1    4    4    0    0  0.73717934476E+01  0.20571427434E+00  0.52039578304E+01  0.90258979807E+01  0.51100000000E-03 0.  1.
         12    1    4    4    0    0  0.79552466219E+01  0.90195594304E+01 -0.73683597480E-01  0.12026796348E+02  0.00000000000E+00 0. -1.
</event>
<event>
 8    1  0.2504019E-006  0.9118800E+02  0.7816164E-02  0.1184000E+00
        -11   -1    0    0    0    0  0.00000000000E+00  0.00000000000E+00  0.45593999997E+02  0.45594000000E+02  0.51100000000E-03 0.  1.
         11   -1    0    0    0    0 -0.00000000000E+00 -0.00000000000E+00 -0.45593999997E+02  0.45594000000E+02  0.51100000000E-03 0. -1.
         23    2    1    2    0    0  0.00000000000E+00  0.00000000000E+00 -0.35527136788E-14  0.91188000000E+02  0.91188000000E+02 0.  0.
    9900012    2    3    3    0    0  0.17071073995E+02 -0.15799204703E+02  0.28543724607E+02  0.54367073192E+02  0.39999974956E+02 0.  0.
         12    1    3    3    0    0 -0.17071073995E+02  0.15799204703E+02 -0.28543724607E+02  0.36820926808E+02  0.00000000000E+00 0. -1.
         11    1    4    4    0    0 -0.49253065680E+01 -0.42750798250E+01  0.14665687419E+02  0.16050462300E+02  0.51100000000E-03 0. -1.
        -11    1    4    4    0    0  0.97396468259E+01  0.76971830804E+01  0.18804090426E+01  0.12555607755E+02  0.51100000000E-03 0.  1.
        -12    1    4    4    0    0  0.12256733737E+02 -0.19221307958E+02  0.11997628145E+02  0.25761003137E+02  0.00000000000E+00 0.  1.
</event>
<event>
 8    1  0.2504019E-006  0.9118800E+02  0.7816164E-02  0.1184000E+00
        -11   -1    0    0    0    0  0.00000000000E+00  0.00000000000E+00  0.45593999997E+02  0.45594000000E+02  0.51100000000E-03 0.  1.
         11   -1    0    0    0    0 -0.00000000000E+00 -0.00000000000E+00 -0.45593999997E+02  0.45594000000E+02  0.51100000000E-03 0. -1.
         23    2    1    2    0    0  0.88817841970E-15  0.00000000000E+00  0.00000000000E+00  0.91188000000E+02  0.91188000000E+02 0.  0.
    9900012    2    3    3    0    0  0.79942296541E+01  0.32015079732E+02  0.16337295935E+02  0.54367078278E+02  0.39999986550E+02 0.  0.
        -12    1    3    3    0    0 -0.79942296541E+01 -0.32015079732E+02 -0.16337295935E+02  0.36820921722E+02  0.00000000000E+00 0.  1.
         11    1    4    4    0    0  0.78333369561E+01  0.34486162757E+01 -0.20061379970E+01  0.87908311330E+01  0.51100000000E-03 0. -1.
        -11    1    4    4    0    0  0.11958522059E+02  0.16539054561E+01  0.77216150165E+01  0.14330561462E+02  0.51100000000E-03 0.  1.
        -12    1    4    4    0    0 -0.11797629362E+02  0.26912558000E+02  0.10621818915E+02  0.31245685682E+02  0.00000000000E+00 0.  1.
</event>
<event>
 8    1  0.2504019E-006  0.9118800E+02  0.7816164E-02  0.1184000E+00
        -11   -1    0    0    0    0  0.00000000000E+00  0.00000000000E+00  0.45593999997E+02  0.45594000000E+02  0.51100000000E-03 0.  1.
         11   -1    0    0    0    0 -0.00000000000E+00 -0.00000000000E+00 -0.45593999997E+02  0.45594000000E+02  0.51100000000E-03 0. -1.
         23    2    1    2    0    0  0.00000000000E+00  0.11102230246E-15  0.00000000000E+00  0.91188000000E+02  0.91188000000E+02 0.  0.
    9900012    2    3    3    0    0 -0.29671399885E+02 -0.60184957109E+00  0.21795051095E+02  0.54367103131E+02  0.40000043207E+02 0.  0.
         12    1    3    3    0    0  0.29671399885E+02  0.60184957109E+00 -0.21795051095E+02  0.36820896869E+02  0.00000000000E+00 0. -1.
         11    1    4    4    0    0 -0.38273694920E+01  0.35532206254E+00 -0.89245441269E+01  0.97171240154E+01  0.51100000000E-03 0. -1.
        -11    1    4    4    0    0 -0.22878794685E+02  0.66420155422E+01  0.25832761818E+02  0.35140961855E+02  0.51100000000E-03 0.  1.
         12    1    4    4    0    0 -0.29652357084E+01 -0.75991871759E+01  0.48868334039E+01  0.95090172603E+01  0.00000000000E+00 0. -1.
</event>
<event>
 8    1  0.2504019E-006  0.9118800E+02  0.7816164E-02  0.1184000E+00
        -11   -1    0    0    0    0  0.00000000000E+00  0.00000000000E+00  0.45593999997E+02  0.45594000000E+02  0.51100000000E-03 0. -1.
         11   -1    0    0    0    0 -0.00000000000E+00 -0.00000000000E+00 -0.45593999997E+02  0.45594000000E+02  0.51100000000E-03 0.  1.
         23    2    1    2    0    0  0.00000000000E+00  0.00000000000E+00  0.00000000000E+00  0.91188000000E+02  0.91188000000E+02 0.  0.
    9900012    2    3    3    0    0  0.22714682207E+02  0.25601400954E+02  0.13579047457E+02  0.54367094954E+02  0.40000024566E+02 0.  0.
        -12    1    3    3    0    0 -0.22714682207E+02 -0.25601400954E+02 -0.13579047457E+02  0.36820905046E+02  0.00000000000E+00 0.  1.
         11    1    4    4    0    0 -0.80793713431E+01  0.15865091903E+02  0.82815215475E+00  0.17823109118E+02  0.51100000000E-03 0. -1.
        -11    1    4    4    0    0  0.16550620065E+02 -0.46818320135E+00  0.80060870819E+01  0.18391292795E+02  0.51100000000E-03 0.  1.
         12    1    4    4    0    0  0.14243433485E+02  0.10204492252E+02  0.47448082204E+01  0.18152693040E+02  0.00000000000E+00 0. -1.
</event>
<event>
 8    1  0.2504019E-006  0.9118800E+02  0.7816164E-02  0.1184000E+00
        -11   -1    0    0    0    0  0.00000000000E+00  0.00000000000E+00  0.45593999997E+02  0.45594000000E+02  0.51100000000E-03 0.  1.
         11   -1    0    0    0    0 -0.00000000000E+00 -0.00000000000E+00 -0.45593999997E+02  0.45594000000E+02  0.51100000000E-03 0. -1.
         23    2    1    2    0    0 -0.17763568394E-14  0.00000000000E+00  0.35527136788E-14  0.91188000000E+02  0.91188000000E+02 0.  0.
    9900012    2    3    3    0    0  0.14506106013E+02 -0.24725485729E+02 -0.23108450485E+02  0.54367119511E+02  0.40000080550E+02 0.  0.
        -12    1    3    3    0    0 -0.14506106013E+02  0.24725485729E+02  0.23108450485E+02  0.36820880489E+02  0.00000000000E+00 0.  1.
         11    1    4    4    0    0  0.29259184839E+01 -0.21046667482E+02 -0.94095111715E+01  0.23239236472E+02  0.51100000000E-03 0. -1.
        -11    1    4    4    0    0 -0.41767612142E+01 -0.91705280689E+01 -0.93662101444E+00  0.10120334900E+02  0.51100000000E-03 0.  1.
        -12    1    4    4    0    0  0.15756948743E+02  0.54917098219E+01 -0.12762318299E+02  0.21007548139E+02  0.00000000000E+00 0.  1.
</event>
<event>
 8    1  0.2504019E-006  0.9118800E+02  0.7816164E-02  0.1184000E+00
        -11   -1    0    0    0    0  0.00000000000E+00  0.00000000000E+00  0.45593999997E+02  0.45594000000E+02  0.51100000000E-03 0. -1.
         11   -1    0    0    0    0 -0.00000000000E+00 -0.00000000000E+00 -0.45593999997E+02  0.45594000000E+02  0.51100000000E-03 0.  1.
         23    2    1    2    0    0  0.17763568394E-14  0.00000000000E+00  0.00000000000E+00  0.91188000000E+02  0.91188000000E+02 0.  0.
    9900012    2    3    3    0    0  0.14423398884E+02  0.33487038745E+02  0.51345968520E+01  0.54367078174E+02  0.39999986312E+02 0.  0.
         12    1    3    3    0    0 -0.14423398884E+02 -0.33487038745E+02 -0.51345968520E+01  0.36820921826E+02  0.00000000000E+00 0. -1.
         11    1    4    4    0    0  0.75619113832E+00  0.32737299189E+02  0.38260050647E+01  0.32968786726E+02  0.51100000000E-03 0. -1.
        -11    1    4    4    0    0  0.76124759004E+01 -0.68445121059E+00 -0.74375106946E+01  0.10664653224E+02  0.51100000000E-03 0.  1.
         12    1    4    4    0    0  0.60547318457E+01  0.14341907674E+01  0.87461024819E+01  0.10733638223E+02  0.00000000000E+00 0. -1.
</event>
<event>
 8    1  0.2504019E-006  0.9118800E+02  0.7816164E-02  0.1184000E+00
        -11   -1    0    0    0    0  0.00000000000E+00  0.00000000000E+00  0.45593999997E+02  0.45594000000E+02  0.51100000000E-03 0. -1.
         11   -1    0    0    0    0 -0.00000000000E+00 -0.00000000000E+00 -0.45593999997E+02  0.45594000000E+02  0.51100000000E-03 0.  1.
         23    2    1    2    0    0 -0.71054273576E-14 -0.35527136788E-14  0.35527136788E-14  0.91188000000E+02  0.91188000000E+02 0.  0.
    9900012    2    3    3    0    0  0.23844209379E+02  0.18753517547E+02 -0.20869599741E+02  0.54367069340E+02  0.39999966175E+02 0.  0.
        -12    1    3    3    0    0 -0.23844209379E+02 -0.18753517547E+02  0.20869599741E+02  0.36820930660E+02  0.00000000000E+00 0.  1.
         11    1    4    4    0    0 -0.43501365173E+01  0.62312914353E+01  0.83054459048E+01  0.11257580229E+02  0.51100000000E-03 0. -1.
        -11    1    4    4    0    0  0.40169710638E+01 -0.11791020607E+00 -0.64643332512E+01  0.76116728771E+01  0.51100000000E-03 0.  1.
        -12    1    4    4    0    0  0.24177374833E+02  0.12640136317E+02 -0.22710712395E+02  0.35497816234E+02  0.00000000000E+00 0.  1.
</event>
<event>
 8    1  0.2504019E-006  0.9118800E+02  0.7816164E-02  0.1184000E+00
        -11   -1    0    0    0    0  0.00000000000E+00  0.00000000000E+00  0.45593999997E+02  0.45594000000E+02  0.51100000000E-03 0.  1.
         11   -1    0    0    0    0 -0.00000000000E+00 -0.00000000000E+00 -0.45593999997E+02  0.45594000000E+02  0.51100000000E-03 0. -1.
         23    2    1    2    0    0  0.88817841970E-15 -0.35527136788E-14  0.00000000000E+00  0.91188000000E+02  0.91188000000E+02 0.  0.
    9900012    2    3    3    0    0  0.72171784366E+01 -0.17716619954E+02  0.31461303129E+02  0.54367083638E+02  0.39999998769E+02 0.  0.
         12    1    3    3    0    0 -0.72171784366E+01  0.17716619954E+02 -0.31461303129E+02  0.36820916362E+02  0.00000000000E+00 0. -1.
         11    1    4    4    0    0  0.11661534413E+02 -0.44904319121E+00  0.19111255961E+01  0.11825625817E+02  0.51100000000E-03 0. -1.
        -11    1    4    4    0    0 -0.97912114383E+01  0.25162674948E+01  0.98496824846E+01  0.14114378089E+02  0.51100000000E-03 0.  1.
        -12    1    4    4    0    0  0.53468554620E+01 -0.19783844257E+02  0.19700495049E+02  0.28427079732E+02  0.00000000000E+00 0.  1.
</event>
<event>
 8    1  0.2504019E-006  0.9118800E+02  0.7816164E-02  0.1184000E+00
        -11   -1    0    0    0    0  0.00000000000E+00  0.00000000000E+00  0.45593999997E+02  0.45594000000E+02  0.51100000000E-03 0.  1.
         11   -1    0    0    0    0 -0.00000000000E+00 -0.00000000000E+00 -0.45593999997E+02  0.45594000000E+02  0.51100000000E-03 0. -1.
         23    2    1    2    0    0  0.00000000000E+00  0.17763568394E-14  0.00000000000E+00  0.91188000000E+02  0.91188000000E+02 0.  0.
    9900012    2    3    3    0    0  0.34348141638E+02 -0.99528922461E+01 -0.87707194397E+01  0.54367076362E+02  0.39999982183E+02 0.  0.
        -12    1    3    3    0    0 -0.34348141638E+02  0.99528922461E+01  0.87707194397E+01  0.36820923638E+02  0.00000000000E+00 0.  1.
         11    1    4    4    0    0  0.38237852022E+01 -0.17491274799E+02 -0.52568595568E+00  0.17912073396E+02  0.51100000000E-03 0. -1.
        -11    1    4    4    0    0  0.71191956971E+01  0.95165478003E+01 -0.42923615391E+01  0.12636138542E+02  0.51100000000E-03 0.  1.
         12    1    4    4    0    0  0.23405160739E+02 -0.19781652474E+01 -0.39526719449E+01  0.23818864424E+02  0.00000000000E+00 0. -1.
</event>
<event>
 8    1  0.2504019E-006  0.9118800E+02  0.7816164E-02  0.1184000E+00
        -11   -1    0    0    0    0  0.00000000000E+00  0.00000000000E+00  0.45593999997E+02  0.45594000000E+02  0.51100000000E-03 0.  1.
         11   -1    0    0    0    0 -0.00000000000E+00 -0.00000000000E+00 -0.45593999997E+02  0.45594000000E+02  0.51100000000E-03 0. -1.
         23    2    1    2    0    0  0.71054273576E-14 -0.35527136788E-14  0.17763568394E-14  0.91188000000E+02  0.91188000000E+02 0.  0.
    9900012    2    3    3    0    0 -0.23228964659E+02 -0.25173351431E+02  0.13509288530E+02  0.54367037248E+02  0.39999893014E+02 0.  0.
         12    1    3    3    0    0  0.23228964659E+02  0.25173351431E+02 -0.13509288530E+02  0.36820962752E+02  0.00000000000E+00 0. -1.
         11    1    4    4    0    0  0.28305455289E+01  0.32930486252E+01  0.11737829002E+02  0.12515302121E+02  0.51100000000E-03 0. -1.
        -11    1    4    4    0    0 -0.25370039808E+02 -0.18427442604E+02  0.38034755876E+01  0.31586009365E+02  0.51100000000E-03 0.  1.
         12    1    4    4    0    0 -0.68947037946E+00 -0.10038957453E+02 -0.20320160603E+01  0.10265725761E+02  0.00000000000E+00 0. -1.
</event>
<event>
 8    1  0.2504019E-006  0.9118800E+02  0.7816164E-02  0.1184000E+00
        -11   -1    0    0    0    0  0.00000000000E+00  0.00000000000E+00  0.45593999997E+02  0.45594000000E+02  0.51100000000E-03 0. -1.
         11   -1    0    0    0    0 -0.00000000000E+00 -0.00000000000E+00 -0.45593999997E+02  0.45594000000E+02  0.51100000000E-03 0.  1.
         23    2    1    2    0    0  0.00000000000E+00  0.88817841970E-15  0.00000000000E+00  0.91188000000E+02  0.91188000000E+02 0.  0.
    9900012    2    3    3    0    0  0.84305778309E+01  0.76022198034E+01 -0.35027315830E+02  0.54367065157E+02  0.39999956638E+02 0.  0.
         12    1    3    3    0    0 -0.84305778309E+01 -0.76022198034E+01  0.35027315830E+02  0.36820934843E+02  0.00000000000E+00 0. -1.
         11    1    4    4    0    0  0.11132476597E+02 -0.42196200398E+01 -0.13071990064E+02  0.17680897968E+02  0.51100000000E-03 0. -1.
        -11    1    4    4    0    0 -0.45936821274E+01 -0.81116213422E+01 -0.79432172907E+01  0.12247245301E+02  0.51100000000E-03 0.  1.
        -12    1    4    4    0    0  0.18917833617E+01  0.19933461185E+02 -0.14012108475E+02  0.24438921888E+02  0.00000000000E+00 0.  1.
</event>
<event>
 8    1  0.2504019E-006  0.9118800E+02  0.7816164E-02  0.1184000E+00
        -11   -1    0    0    0    0  0.00000000000E+00  0.00000000000E+00  0.45593999997E+02  0.45594000000E+02  0.51100000000E-03 0. -1.
         11   -1    0    0    0    0 -0.00000000000E+00 -0.00000000000E+00 -0.45593999997E+02  0.45594000000E+02  0.51100000000E-03 0.  1.
         23    2    1    2    0    0  0.00000000000E+00  0.44408920985E-15  0.00000000000E+00  0.91188000000E+02  0.91188000000E+02 0.  0.
    9900012    2    3    3    0    0 -0.26159531776E+02  0.38049774297E+01  0.25631645588E+02  0.54367079159E+02  0.39999988560E+02 0.  0.
        -12    1    3    3    0    0  0.26159531776E+02 -0.38049774297E+01 -0.25631645588E+02  0.36820920841E+02  0.00000000000E+00 0.  1.
         11    1    4    4    0    0 -0.14619242647E+02  0.76510571046E+01  0.34949160468E+02  0.38648476659E+02  0.51100000000E-03 0. -1.
        -11    1    4    4    0    0 -0.10336937581E+02 -0.21566383018E+01 -0.81459554341E+01  0.13336414717E+02  0.51100000000E-03 0.  1.
         12    1    4    4    0    0 -0.12033515483E+01 -0.16894413730E+01 -0.11715594453E+01  0.23821877835E+01  0.00000000000E+00 0. -1.
</event>
<event>
 8    1  0.2504019E-006  0.9118800E+02  0.7816164E-02  0.1184000E+00
        -11   -1    0    0    0    0  0.00000000000E+00  0.00000000000E+00  0.45593999997E+02  0.45594000000E+02  0.51100000000E-03 0.  1.
         11   -1    0    0    0    0 -0.00000000000E+00 -0.00000000000E+00 -0.45593999997E+02  0.45594000000E+02  0.51100000000E-03 0. -1.
         23    2    1    2    0    0 -0.35527136788E-14  0.00000000000E+00  0.35527136788E-14  0.91188000000E+02  0.91188000000E+02 0.  0.
    9900012    2    3    3    0    0 -0.17081166619E+02 -0.18487172583E+02  0.26874490119E+02  0.54367081729E+02  0.39999994418E+02 0.  0.
         12    1    3    3    0    0  0.17081166619E+02  0.18487172583E+02 -0.26874490119E+02  0.36820918271E+02  0.00000000000E+00 0. -1.
         11    1    4    4    0    0 -0.82350936851E+00 -0.66475001137E+01  0.16509137803E+02  0.17816258212E+02  0.51100000000E-03 0. -1.
        -11    1    4    4    0    0 -0.95731697229E+01  0.78203549872E+01  0.98050833013E+01  0.15777933625E+02  0.51100000000E-03 0.  1.
         12    1    4    4    0    0 -0.66844875271E+01 -0.19660027456E+02  0.56026901521E+00  0.20772889892E+02  0.00000000000E+00 0. -1.
</event>
<event>
 8    1  0.2504019E-006  0.9118800E+02  0.7816164E-02  0.1184000E+00
        -11   -1    0    0    0    0  0.00000000000E+00  0.00000000000E+00  0.45593999997E+02  0.45594000000E+02  0.51100000000E-03 0.  1.
         11   -1    0    0    0    0 -0.00000000000E+00 -0.00000000000E+00 -0.45593999997E+02  0.45594000000E+02  0.51100000000E-03 0. -1.
         23    2    1    2    0    0  0.00000000000E+00  0.88817841970E-15  0.00000000000E+00  0.91188000000E+02  0.91188000000E+02 0.  0.
    9900012    2    3    3    0    0  0.10705338293E+02  0.50424271816E+01  0.34867569566E+02  0.54367112622E+02  0.40000064845E+02 0.  0.
         12    1    3    3    0    0 -0.10705338293E+02 -0.50424271816E+01 -0.34867569566E+02  0.36820887378E+02  0.00000000000E+00 0. -1.
         11    1    4    4    0    0  0.85294031677E+01 -0.11462156197E+02  0.34847633412E+01  0.14706302013E+02  0.51100000000E-03 0. -1.
        -11    1    4    4    0    0  0.19884426714E+01  0.35740312761E+01  0.24827862165E+02  0.25162478888E+02  0.51100000000E-03 0.  1.
         12    1    4    4    0    0  0.18749245404E+00  0.12930552103E+02  0.65549440596E+01  0.14498331722E+02  0.00000000000E+00 0. -1.
</event>
<event>
 8    1  0.2504019E-006  0.9118800E+02  0.7816164E-02  0.1184000E+00
        -11   -1    0    0    0    0  0.00000000000E+00  0.00000000000E+00  0.45593999997E+02  0.45594000000E+02  0.51100000000E-03 0.  1.
         11   -1    0    0    0    0 -0.00000000000E+00 -0.00000000000E+00 -0.45593999997E+02  0.45594000000E+02  0.51100000000E-03 0. -1.
         23    2    1    2    0    0  0.00000000000E+00  0.00000000000E+00 -0.71054273576E-14  0.91188000000E+02  0.91188000000E+02 0.  0.
    9900012    2    3    3    0    0 -0.17563049193E+00 -0.50924306563E+01 -0.36466639890E+02  0.54367088537E+02  0.40000009939E+02 0.  0.
        -12    1    3    3    0    0  0.17563049193E+00  0.50924306563E+01  0.36466639890E+02  0.36820911463E+02  0.00000000000E+00 0.  1.
         11    1    4    4    0    0 -0.45500852910E+01 -0.10472355460E+02 -0.15727605930E+02  0.19435305338E+02  0.51100000000E-03 0. -1.
        -11    1    4    4    0    0  0.91349333018E+01  0.14128186661E+02 -0.17921808146E+02  0.24581372464E+02  0.51100000000E-03 0.  1.
        -12    1    4    4    0    0 -0.47604785028E+01 -0.87482618566E+01 -0.28172258140E+01  0.10350410735E+02  0.00000000000E+00 0.  1.
</event>
<event>
 8    1  0.2504019E-006  0.9118800E+02  0.7816164E-02  0.1184000E+00
        -11   -1    0    0    0    0  0.00000000000E+00  0.00000000000E+00  0.45593999997E+02  0.45594000000E+02  0.51100000000E-03 0. -1.
         11   -1    0    0    0    0 -0.00000000000E+00 -0.00000000000E+00 -0.45593999997E+02  0.45594000000E+02  0.51100000000E-03 0.  1.
         23    2    1    2    0    0  0.00000000000E+00  0.35527136788E-14 -0.35527136788E-14  0.91188000000E+02  0.91188000000E+02 0.  0.
    9900012    2    3    3    0    0  0.18459749674E+02  0.24890628529E+02 -0.19886543045E+02  0.54367077403E+02  0.39999984556E+02 0.  0.
         12    1    3    3    0    0 -0.18459749674E+02 -0.24890628529E+02  0.19886543045E+02  0.36820922597E+02  0.00000000000E+00 0. -1.
         11    1    4    4    0    0 -0.52457274007E+01  0.64212592237E+01  0.39038173196E+01  0.91646066967E+01  0.51100000000E-03 0. -1.
        -11    1    4    4    0    0  0.93704534890E+00  0.13202129015E+02 -0.15555715876E+02  0.20424361953E+02  0.51100000000E-03 0.  1.
        -12    1    4    4    0    0  0.22768431726E+02  0.52672402903E+01 -0.82346444888E+01  0.24778108753E+02  0.00000000000E+00 0.  1.
</event>
<event>
 8    1  0.2504019E-006  0.9118800E+02  0.7816164E-02  0.1184000E+00
        -11   -1    0    0    0    0  0.00000000000E+00  0.00000000000E+00  0.45593999997E+02  0.45594000000E+02  0.51100000000E-03 0. -1.
         11   -1    0    0    0    0 -0.00000000000E+00 -0.00000000000E+00 -0.45593999997E+02  0.45594000000E+02  0.51100000000E-03 0.  1.
         23    2    1    2    0    0 -0.35527136788E-14 -0.35527136788E-14  0.00000000000E+00  0.91188000000E+02  0.91188000000E+02 0.  0.
    9900012    2    3    3    0    0  0.18970387668E+02  0.27764844929E+02 -0.15000597462E+02  0.54367080044E+02  0.39999990576E+02 0.  0.
         12    1    3    3    0    0 -0.18970387668E+02 -0.27764844929E+02  0.15000597462E+02  0.36820919956E+02  0.00000000000E+00 0. -1.
         11    1    4    4    0    0  0.66168309691E+01 -0.25989888420E+01  0.21496597432E+01  0.74268588480E+01  0.51100000000E-03 0. -1.
        -11    1    4    4    0    0 -0.60341282342E+01  0.52235022655E+01 -0.13361392468E+02  0.15563498592E+02  0.51100000000E-03 0.  1.
        -12    1    4    4    0    0  0.18387684933E+02  0.25140331505E+02 -0.37888647370E+01  0.31376722604E+02  0.00000000000E+00 0.  1.
</event>
<event>
 8    1  0.2504019E-006  0.9118800E+02  0.7816164E-02  0.1184000E+00
        -11   -1    0    0    0    0  0.00000000000E+00  0.00000000000E+00  0.45593999997E+02  0.45594000000E+02  0.51100000000E-03 0.  1.
         11   -1    0    0    0    0 -0.00000000000E+00 -0.00000000000E+00 -0.45593999997E+02  0.45594000000E+02  0.51100000000E-03 0. -1.
         23    2    1    2    0    0  0.00000000000E+00 -0.17763568394E-14  0.35527136788E-14  0.91188000000E+02  0.91188000000E+02 0.  0.
    9900012    2    3    3    0    0 -0.25691192145E+02  0.15223699621E+02 -0.21540192732E+02  0.54367105295E+02  0.40000048141E+02 0.  0.
         12    1    3    3    0    0  0.25691192145E+02 -0.15223699621E+02  0.21540192732E+02  0.36820894705E+02  0.00000000000E+00 0. -1.
         11    1    4    4    0    0 -0.77540698576E+01  0.25572177801E+01  0.97947040302E-01  0.81654489170E+01  0.51100000000E-03 0. -1.
        -11    1    4    4    0    0 -0.27087647545E+02  0.42441926743E+01 -0.10046816348E+02  0.29200896218E+02  0.51100000000E-03 0.  1.
         12    1    4    4    0    0  0.91505252574E+01  0.84222891662E+01 -0.11591323424E+02  0.17000760160E+02  0.00000000000E+00 0. -1.
</event>
<event>
 8    1  0.2504019E-006  0.9118800E+02  0.7816164E-02  0.1184000E+00
        -11   -1    0    0    0    0  0.00000000000E+00  0.00000000000E+00  0.45593999997E+02  0.45594000000E+02  0.51100000000E-03 0.  1.
         11   -1    0    0    0    0 -0.00000000000E+00 -0.00000000000E+00 -0.45593999997E+02  0.45594000000E+02  0.51100000000E-03 0. -1.
         23    2    1    2    0    0  0.00000000000E+00  0.00000000000E+00  0.17763568394E-14  0.91188000000E+02  0.91188000000E+02 0.  0.
    9900012    2    3    3    0    0  0.16480401245E+02 -0.30242000241E+02 -0.13022995066E+02  0.54367073826E+02  0.39999976402E+02 0.  0.
         12    1    3    3    0    0 -0.16480401245E+02  0.30242000241E+02  0.13022995066E+02  0.36820926174E+02  0.00000000000E+00 0. -1.
         11    1    4    4    0    0  0.22981768793E+02 -0.13763588212E+02 -0.16545552752E+02  0.31485764616E+02  0.51100000000E-03 0. -1.
        -11    1    4    4    0    0 -0.16339489604E+01 -0.72603524470E+01 -0.53718630298E+01  0.91782035024E+01  0.51100000000E-03 0.  1.
        -12    1    4    4    0    0 -0.48674185873E+01 -0.92180595826E+01  0.88944207160E+01  0.13703105708E+02  0.00000000000E+00 0.  1.
</event>
<event>
 8    1  0.2504019E-006  0.9118800E+02  0.7816164E-02  0.1184000E+00
        -11   -1    0    0    0    0  0.00000000000E+00  0.00000000000E+00  0.45593999997E+02  0.45594000000E+02  0.51100000000E-03 0. -1.
         11   -1    0    0    0    0 -0.00000000000E+00 -0.00000000000E+00 -0.45593999997E+02  0.45594000000E+02  0.51100000000E-03 0.  1.
         23    2    1    2    0    0 -0.99920072216E-15  0.00000000000E+00  0.00000000000E+00  0.91188000000E+02  0.91188000000E+02 0.  0.
    9900012    2    3    3    0    0 -0.79028814008E+00  0.35859223960E+02 -0.83229589658E+01  0.54367080073E+02  0.39999990642E+02 0.  0.
         12    1    3    3    0    0  0.79028814008E+00 -0.35859223960E+02  0.83229589658E+01  0.36820919927E+02  0.00000000000E+00 0. -1.
         11    1    4    4    0    0  0.11325872847E+02  0.14261244831E+01  0.30324356832E+01  0.11811218956E+02  0.51100000000E-03 0. -1.
        -11    1    4    4    0    0  0.62027194400E+00 -0.13490356628E+01  0.18249140566E+01  0.23526466116E+01  0.51100000000E-03 0.  1.
        -12    1    4    4    0    0 -0.12736432931E+02  0.35782135140E+02 -0.13180308706E+02  0.40203214505E+02  0.00000000000E+00 0.  1.
</event>
<event>
 8    1  0.2504019E-006  0.9118800E+02  0.7816164E-02  0.1184000E+00
        -11   -1    0    0    0    0  0.00000000000E+00  0.00000000000E+00  0.45593999997E+02  0.45594000000E+02  0.51100000000E-03 0. -1.
         11   -1    0    0    0    0 -0.00000000000E+00 -0.00000000000E+00 -0.45593999997E+02  0.45594000000E+02  0.51100000000E-03 0.  1.
         23    2    1    2    0    0 -0.88817841970E-15 -0.44408920985E-15 -0.71054273576E-14  0.91188000000E+02  0.91188000000E+02 0.  0.
    9900012    2    3    3    0    0  0.13244467135E+01 -0.27904716783E+01 -0.36691134619E+02  0.54367078625E+02  0.39999987341E+02 0.  0.
         12    1    3    3    0    0 -0.13244467135E+01  0.27904716783E+01  0.36691134619E+02  0.36820921375E+02  0.00000000000E+00 0. -1.
         11    1    4    4    0    0 -0.50425904540E+01  0.49460873067E+01 -0.10395624143E+02  0.12568233755E+02  0.51100000000E-03 0. -1.
        -11    1    4    4    0    0  0.14675041566E+02 -0.76036339888E+01 -0.28726137941E+02  0.33141561461E+02  0.51100000000E-03 0.  1.
        -12    1    4    4    0    0 -0.83080043988E+01 -0.13292499610E+00  0.24306274650E+01  0.86572834088E+01  0.00000000000E+00 0.  1.
</event>
<event>
 8    1  0.2504019E-006  0.9118800E+02  0.7816164E-02  0.1184000E+00
        -11   -1    0    0    0    0  0.00000000000E+00  0.00000000000E+00  0.45593999997E+02  0.45594000000E+02  0.51100000000E-03 0. -1.
         11   -1    0    0    0    0 -0.00000000000E+00 -0.00000000000E+00 -0.45593999997E+02  0.45594000000E+02  0.51100000000E-03 0.  1.
         23    2    1    2    0    0  0.35527136788E-14  0.00000000000E+00  0.17763568394E-14  0.91188000000E+02  0.91188000000E+02 0.  0.
    9900012    2    3    3    0    0 -0.28718783565E+02 -0.17746796614E+02 -0.14699101280E+02  0.54367069838E+02  0.39999967311E+02 0.  0.
        -12    1    3    3    0    0  0.28718783565E+02  0.17746796614E+02  0.14699101280E+02  0.36820930162E+02  0.00000000000E+00 0.  1.
         11    1    4    4    0    0 -0.12279466999E+02 -0.18803777463E+02  0.13788825955E+01  0.22500414977E+02  0.51100000000E-03 0. -1.
        -11    1    4    4    0    0 -0.19316364780E+02  0.74711534093E+00 -0.43863049823E+01  0.19822204754E+02  0.51100000000E-03 0.  1.
        -12    1    4    4    0    0  0.28770482135E+01  0.30986550853E+00 -0.11691678893E+02  0.12044450108E+02  0.00000000000E+00 0.  1.
</event>
<event>
 8    1  0.2504019E-006  0.9118800E+02  0.7816164E-02  0.1184000E+00
        -11   -1    0    0    0    0  0.00000000000E+00  0.00000000000E+00  0.45593999997E+02  0.45594000000E+02  0.51100000000E-03 0. -1.
         11   -1    0    0    0    0 -0.00000000000E+00 -0.00000000000E+00 -0.45593999997E+02  0.45594000000E+02  0.51100000000E-03 0.  1.
         23    2    1    2    0    0  0.00000000000E+00  0.00000000000E+00  0.00000000000E+00  0.91188000000E+02  0.91188000000E+02 0.  0.
    9900012    2    3    3    0    0  0.32283978234E+02  0.97631658147E+01  0.14771784509E+02  0.54367078299E+02  0.39999986598E+02 0.  0.
        -12    1    3    3    0    0 -0.32283978234E+02 -0.97631658147E+01 -0.14771784509E+02  0.36820921701E+02  0.00000000000E+00 0.  1.
         11    1    4    4    0    0  0.43039805185E+01 -0.63224113799E+01  0.93711499227E+01  0.12096097928E+02  0.51100000000E-03 0. -1.
        -11    1    4    4    0    0  0.12170226358E+02  0.36689533751E+01  0.15276556218E+02  0.19873318762E+02  0.51100000000E-03 0.  1.
        -12    1    4    4    0    0  0.15809771357E+02  0.12416623820E+02 -0.98759216320E+01  0.22397661608E+02  0.00000000000E+00 0.  1.
</event>
<event>
 8    1  0.2504019E-006  0.9118800E+02  0.7816164E-02  0.1184000E+00
        -11   -1    0    0    0    0  0.00000000000E+00  0.00000000000E+00  0.45593999997E+02  0.45594000000E+02  0.51100000000E-03 0. -1.
         11   -1    0    0    0    0 -0.00000000000E+00 -0.00000000000E+00 -0.45593999997E+02  0.45594000000E+02  0.51100000000E-03 0.  1.
         23    2    1    2    0    0 -0.22204460493E-15  0.00000000000E+00  0.17763568394E-14  0.91188000000E+02  0.91188000000E+02 0.  0.
    9900012    2    3    3    0    0  0.56214086444E+00  0.36239511301E+02 -0.64932686010E+01  0.54367072271E+02  0.39999972856E+02 0.  0.
        -12    1    3    3    0    0 -0.56214086444E+00 -0.36239511301E+02  0.64932686010E+01  0.36820927729E+02  0.00000000000E+00 0.  1.
         11    1    4    4    0    0 -0.26622468747E+01  0.20322910270E+02 -0.10531349404E+02  0.23043818277E+02  0.51100000000E-03 0. -1.
        -11    1    4    4    0    0  0.46183083328E+01 -0.68305639139E+01  0.50059979288E+00  0.82605069852E+01  0.51100000000E-03 0.  1.
         12    1    4    4    0    0 -0.13939205936E+01  0.22747164945E+02  0.35374810105E+01  0.23062747008E+02  0.00000000000E+00 0. -1.
</event>
<event>
 8    1  0.2504019E-006  0.9118800E+02  0.7816164E-02  0.1184000E+00
        -11   -1    0    0    0    0  0.00000000000E+00  0.00000000000E+00  0.45593999997E+02  0.45594000000E+02  0.51100000000E-03 0.  1.
         11   -1    0    0    0    0 -0.00000000000E+00 -0.00000000000E+00 -0.45593999997E+02  0.45594000000E+02  0.51100000000E-03 0. -1.
         23    2    1    2    0    0  0.00000000000E+00  0.00000000000E+00  0.00000000000E+00  0.91188000000E+02  0.91188000000E+02 0.  0.
    9900012    2    3    3    0    0  0.64793976073E+01 -0.21533374096E+02 -0.29156706168E+02  0.54367050693E+02  0.39999923664E+02 0.  0.
        -12    1    3    3    0    0 -0.64793976073E+01  0.21533374096E+02  0.29156706168E+02  0.36820949307E+02  0.00000000000E+00 0.  1.
         11    1    4    4    0    0 -0.51724890566E+01 -0.21186262345E+02 -0.11322776564E+02  0.24572700800E+02  0.51100000000E-03 0. -1.
        -11    1    4    4    0    0  0.82561075387E+01 -0.17195520970E+01  0.27629517329E+01  0.88743491956E+01  0.51100000000E-03 0.  1.
         12    1    4    4    0    0  0.33957791251E+01  0.13724403462E+01 -0.20596881337E+02  0.20920000697E+02  0.00000000000E+00 0. -1.
</event>
<event>
 8    1  0.2504019E-006  0.9118800E+02  0.7816164E-02  0.1184000E+00
        -11   -1    0    0    0    0  0.00000000000E+00  0.00000000000E+00  0.45593999997E+02  0.45594000000E+02  0.51100000000E-03 0. -1.
         11   -1    0    0    0    0 -0.00000000000E+00 -0.00000000000E+00 -0.45593999997E+02  0.45594000000E+02  0.51100000000E-03 0.  1.
         23    2    1    2    0    0 -0.71054273576E-14  0.88817841970E-15  0.71054273576E-14  0.91188000000E+02  0.91188000000E+02 0.  0.
    9900012    2    3    3    0    0 -0.23576363874E+02  0.47563510113E+01  0.27880315196E+02  0.54367084967E+02  0.40000001800E+02 0.  0.
        -12    1    3    3    0    0  0.23576363874E+02 -0.47563510113E+01 -0.27880315196E+02  0.36820915033E+02  0.00000000000E+00 0.  1.
         11    1    4    4    0    0 -0.42846076775E+01  0.59156275274E+01  0.97445026111E+01  0.12178170774E+02  0.51100000000E-03 0. -1.
        -11    1    4    4    0    0 -0.20286761646E+02  0.11345515953E+02  0.18394842172E+02  0.29641923843E+02  0.51100000000E-03 0.  1.
         12    1    4    4    0    0  0.99500544966E+00 -0.12504792469E+02 -0.25902958756E+00  0.12546990351E+02  0.00000000000E+00 0. -1.
</event>
<event>
 8    1  0.2504019E-006  0.9118800E+02  0.7816164E-02  0.1184000E+00
        -11   -1    0    0    0    0  0.00000000000E+00  0.00000000000E+00  0.45593999997E+02  0.45594000000E+02  0.51100000000E-03 0. -1.
         11   -1    0    0    0    0 -0.00000000000E+00 -0.00000000000E+00 -0.45593999997E+02  0.45594000000E+02  0.51100000000E-03 0.  1.
         23    2    1    2    0    0  0.00000000000E+00  0.00000000000E+00  0.17763568394E-14  0.91188000000E+02  0.91188000000E+02 0.  0.
    9900012    2    3    3    0    0 -0.33181395025E+02 -0.65083128642E+01 -0.14574504272E+02  0.54367091715E+02  0.40000017183E+02 0.  0.
         12    1    3    3    0    0  0.33181395025E+02  0.65083128642E+01  0.14574504272E+02  0.36820908285E+02  0.00000000000E+00 0. -1.
         11    1    4    4    0    0 -0.94857675900E+00 -0.15269017064E+02 -0.38092957878E+01  0.15765576888E+02  0.51100000000E-03 0. -1.
        -11    1    4    4    0    0 -0.97324088757E+01 -0.28661392062E+01 -0.83865505527E+01  0.13163159458E+02  0.51100000000E-03 0.  1.
         12    1    4    4    0    0 -0.22500409390E+02  0.11626843406E+02 -0.23786579320E+01  0.25438355369E+02  0.00000000000E+00 0. -1.
</event>
<event>
 8    1  0.2504019E-006  0.9118800E+02  0.7816164E-02  0.1184000E+00
        -11   -1    0    0    0    0  0.00000000000E+00  0.00000000000E+00  0.45593999997E+02  0.45594000000E+02  0.51100000000E-03 0. -1.
         11   -1    0    0    0    0 -0.00000000000E+00 -0.00000000000E+00 -0.45593999997E+02  0.45594000000E+02  0.51100000000E-03 0.  1.
         23    2    1    2    0    0  0.00000000000E+00 -0.17763568394E-14  0.00000000000E+00  0.91188000000E+02  0.91188000000E+02 0.  0.
    9900012    2    3    3    0    0 -0.30298571295E+02 -0.13760571230E+02  0.15761454465E+02  0.54367079453E+02  0.39999989229E+02 0.  0.
        -12    1    3    3    0    0  0.30298571295E+02  0.13760571230E+02 -0.15761454465E+02  0.36820920547E+02  0.00000000000E+00 0.  1.
         11    1    4    4    0    0 -0.52726870615E+01 -0.78263743311E+01  0.83709424499E+01  0.12614517105E+02  0.51100000000E-03 0. -1.
        -11    1    4    4    0    0 -0.11525482848E+02  0.12151379020E+02  0.92052215040E+01  0.19110962042E+02  0.51100000000E-03 0.  1.
        -12    1    4    4    0    0 -0.13500401385E+02 -0.18085575919E+02 -0.18147094894E+01  0.22641600306E+02  0.00000000000E+00 0.  1.
</event>
<event>
 8    1  0.2504019E-006  0.9118800E+02  0.7816164E-02  0.1184000E+00
        -11   -1    0    0    0    0  0.00000000000E+00  0.00000000000E+00  0.45593999997E+02  0.45594000000E+02  0.51100000000E-03 0.  1.
         11   -1    0    0    0    0 -0.00000000000E+00 -0.00000000000E+00 -0.45593999997E+02  0.45594000000E+02  0.51100000000E-03 0. -1.
         23    2    1    2    0    0 -0.35527136788E-14  0.35527136788E-14  0.17763568394E-14  0.91188000000E+02  0.91188000000E+02 0.  0.
    9900012    2    3    3    0    0 -0.28921047654E+02  0.19730470535E+02  0.11404504266E+02  0.54367065975E+02  0.39999958502E+02 0.  0.
         12    1    3    3    0    0  0.28921047654E+02 -0.19730470535E+02 -0.11404504266E+02  0.36820934025E+02  0.00000000000E+00 0. -1.
         11    1    4    4    0    0 -0.69296210638E+01  0.28167210804E+01  0.13289851046E+02  0.15250367432E+02  0.51100000000E-03 0.  1.
        -11    1    4    4    0    0  0.53219993194E+01  0.53397434465E+01  0.44901498374E+01  0.87748494376E+01  0.51100000000E-03 0. -1.
        -12    1    4    4    0    0 -0.27313425910E+02  0.11574006008E+02 -0.63754966172E+01  0.30341849105E+02  0.00000000000E+00 0.  1.
</event>
<event>
 8    1  0.2504019E-006  0.9118800E+02  0.7816164E-02  0.1184000E+00
        -11   -1    0    0    0    0  0.00000000000E+00  0.00000000000E+00  0.45593999997E+02  0.45594000000E+02  0.51100000000E-03 0. -1.
         11   -1    0    0    0    0 -0.00000000000E+00 -0.00000000000E+00 -0.45593999997E+02  0.45594000000E+02  0.51100000000E-03 0.  1.
         23    2    1    2    0    0  0.00000000000E+00 -0.17763568394E-14  0.00000000000E+00  0.91188000000E+02  0.91188000000E+02 0.  0.
    9900012    2    3    3    0    0 -0.30058869127E+02 -0.15059802988E+02  0.15014838655E+02  0.54367100241E+02  0.40000036619E+02 0.  0.
        -12    1    3    3    0    0  0.30058869127E+02  0.15059802988E+02 -0.15014838655E+02  0.36820899759E+02  0.00000000000E+00 0.  1.
         11    1    4    4    0    0 -0.59883000767E+01  0.50103707992E+01  0.14070917665E+02  0.16092056349E+02  0.51100000000E-03 0. -1.
        -11    1    4    4    0    0 -0.27722475154E+02 -0.20476497392E+02 -0.64033956647E-01  0.34464861450E+02  0.51100000000E-03 0.  1.
         12    1    4    4    0    0  0.36519061041E+01  0.40632360498E+00  0.10079549472E+01  0.38101824419E+01  0.00000000000E+00 0. -1.
</event>
<event>
 8    1  0.2504019E-006  0.9118800E+02  0.7816164E-02  0.1184000E+00
        -11   -1    0    0    0    0  0.00000000000E+00  0.00000000000E+00  0.45593999997E+02  0.45594000000E+02  0.51100000000E-03 0.  1.
         11   -1    0    0    0    0 -0.00000000000E+00 -0.00000000000E+00 -0.45593999997E+02  0.45594000000E+02  0.51100000000E-03 0. -1.
         23    2    1    2    0    0  0.35527136788E-14 -0.35527136788E-14  0.17763568394E-14  0.91188000000E+02  0.91188000000E+02 0.  0.
    9900012    2    3    3    0    0  0.14226670086E+02 -0.30955406158E+02  0.13969398718E+02  0.54367090007E+02  0.40000013290E+02 0.  0.
         12    1    3    3    0    0 -0.14226670086E+02  0.30955406158E+02 -0.13969398718E+02  0.36820909993E+02  0.00000000000E+00 0. -1.
         11    1    4    4    0    0 -0.57321934054E+01 -0.15847233647E+02 -0.16646639424E+01  0.16934106466E+02  0.51100000000E-03 0. -1.
        -11    1    4    4    0    0 -0.13449490624E+01 -0.36258064279E+01 -0.45130043990E+01  0.59432793304E+01  0.51100000000E-03 0.  1.
        -12    1    4    4    0    0  0.21303812554E+02 -0.11482366083E+02  0.20147067060E+02  0.31489704211E+02  0.00000000000E+00 0.  1.
</event>
<event>
 8    1  0.2504019E-006  0.9118800E+02  0.7816164E-02  0.1184000E+00
        -11   -1    0    0    0    0  0.00000000000E+00  0.00000000000E+00  0.45593999997E+02  0.45594000000E+02  0.51100000000E-03 0.  1.
         11   -1    0    0    0    0 -0.00000000000E+00 -0.00000000000E+00 -0.45593999997E+02  0.45594000000E+02  0.51100000000E-03 0. -1.
         23    2    1    2    0    0 -0.22204460493E-15  0.00000000000E+00  0.44408920985E-15  0.91188000000E+02  0.91188000000E+02 0.  0.
    9900012    2    3    3    0    0 -0.79567700656E+00  0.36666645054E+02 -0.32717201398E+01  0.54367080483E+02  0.39999991578E+02 0.  0.
        -12    1    3    3    0    0  0.79567700656E+00 -0.36666645054E+02  0.32717201398E+01  0.36820919517E+02  0.00000000000E+00 0.  1.
         11    1    4    4    0    0 -0.97777457348E+01  0.11132395198E+02  0.52439491539E+01  0.15717300579E+02  0.51100000000E-03 0. -1.
        -11    1    4    4    0    0 -0.14566549061E+01  0.25655059711E+02 -0.87197412871E+00  0.25711170168E+02  0.51100000000E-03 0.  1.
        -12    1    4    4    0    0  0.10438723634E+02 -0.12080985480E+00 -0.76436951649E+01  0.12938609736E+02  0.00000000000E+00 0.  1.
</event>
<event>
 8    1  0.2504019E-006  0.9118800E+02  0.7816164E-02  0.1184000E+00
        -11   -1    0    0    0    0  0.00000000000E+00  0.00000000000E+00  0.45593999997E+02  0.45594000000E+02  0.51100000000E-03 0.  1.
         11   -1    0    0    0    0 -0.00000000000E+00 -0.00000000000E+00 -0.45593999997E+02  0.45594000000E+02  0.51100000000E-03 0. -1.
         23    2    1    2    0    0  0.00000000000E+00  0.17763568394E-14  0.71054273576E-14  0.91188000000E+02  0.91188000000E+02 0.  0.
    9900012    2    3    3    0    0  0.11967851840E+02  0.52322952493E+01  0.34426354473E+02  0.54367078318E+02  0.39999986641E+02 0.  0.
         12    1    3    3    0    0 -0.11967851840E+02 -0.52322952493E+01 -0.34426354473E+02  0.36820921682E+02  0.00000000000E+00 0. -1.
         11    1    4    4    0    0  0.83593479557E+00 -0.12129211641E+02  0.13979544429E+02  0.18526851452E+02  0.51100000000E-03 0. -1.
        -11    1    4    4    0    0  0.17198173851E+01  0.18781006183E+02  0.17865071884E+02  0.25977774323E+02  0.51100000000E-03 0.  1.
         12    1    4    4    0    0  0.94120996592E+01 -0.14194992929E+01  0.25817381609E+01  0.98624525433E+01  0.00000000000E+00 0. -1.
</event>
<event>
 8    1  0.2504019E-006  0.9118800E+02  0.7816164E-02  0.1184000E+00
        -11   -1    0    0    0    0  0.00000000000E+00  0.00000000000E+00  0.45593999997E+02  0.45594000000E+02  0.51100000000E-03 0.  1.
         11   -1    0    0    0    0 -0.00000000000E+00 -0.00000000000E+00 -0.45593999997E+02  0.45594000000E+02  0.51100000000E-03 0. -1.
         23    2    1    2    0    0 -0.17763568394E-14  0.17763568394E-14 -0.35527136788E-14  0.91188000000E+02  0.91188000000E+02 0.  0.
    9900012    2    3    3    0    0 -0.13494182423E+02  0.15640405215E+02 -0.30480552660E+02  0.54367091198E+02  0.40000016004E+02 0.  0.
        -12    1    3    3    0    0  0.13494182423E+02 -0.15640405215E+02  0.30480552660E+02  0.36820908802E+02  0.00000000000E+00 0.  1.
         11    1    4    4    0    0 -0.11913743150E+02  0.79188891090E+01 -0.29561058743E+02  0.32840558382E+02  0.51100000000E-03 0. -1.
        -11    1    4    4    0    0  0.59829259587E+01  0.11276271859E+02 -0.25357474567E+01  0.13014596632E+02  0.51100000000E-03 0.  1.
         12    1    4    4    0    0 -0.75633652314E+01 -0.35547557534E+01  0.16162535399E+01  0.85119361837E+01  0.00000000000E+00 0. -1.
</event>
<event>
 8    1  0.2504019E-006  0.9118800E+02  0.7816164E-02  0.1184000E+00
        -11   -1    0    0    0    0  0.00000000000E+00  0.00000000000E+00  0.45593999997E+02  0.45594000000E+02  0.51100000000E-03 0.  1.
         11   -1    0    0    0    0 -0.00000000000E+00 -0.00000000000E+00 -0.45593999997E+02  0.45594000000E+02  0.51100000000E-03 0. -1.
         23    2    1    2    0    0 -0.17763568394E-14  0.00000000000E+00  0.00000000000E+00  0.91188000000E+02  0.91188000000E+02 0.  0.
    9900012    2    3    3    0    0 -0.89604353958E+01 -0.98969099826E+01  0.34315316748E+02  0.54367092987E+02  0.40000020084E+02 0.  0.
         12    1    3    3    0    0  0.89604353958E+01  0.98969099826E+01 -0.34315316748E+02  0.36820907013E+02  0.00000000000E+00 0. -1.
         11    1    4    4    0    0  0.39612845108E+01  0.14733097762E+01 -0.17497165239E+01  0.45742676843E+01  0.51100000000E-03 0. -1.
        -11    1    4    4    0    0 -0.20554559548E+02 -0.14598783257E+02  0.31447081608E+02  0.40305500031E+02  0.51100000000E-03 0.  1.
        -12    1    4    4    0    0  0.76328396412E+01  0.32285634985E+01  0.46179516642E+01  0.94873252725E+01  0.00000000000E+00 0.  1.
</event>
<event>
 8    1  0.2504019E-006  0.9118800E+02  0.7816164E-02  0.1184000E+00
        -11   -1    0    0    0    0  0.00000000000E+00  0.00000000000E+00  0.45593999997E+02  0.45594000000E+02  0.51100000000E-03 0. -1.
         11   -1    0    0    0    0 -0.00000000000E+00 -0.00000000000E+00 -0.45593999997E+02  0.45594000000E+02  0.51100000000E-03 0.  1.
         23    2    1    2    0    0  0.35527136788E-14  0.35527136788E-14  0.00000000000E+00  0.91188000000E+02  0.91188000000E+02 0.  0.
    9900012    2    3    3    0    0  0.24879782466E+02  0.11533634963E+02  0.24571370106E+02  0.54367074701E+02  0.39999978395E+02 0.  0.
        -12    1    3    3    0    0 -0.24879782466E+02 -0.11533634963E+02 -0.24571370106E+02  0.36820925299E+02  0.00000000000E+00 0.  1.
         11    1    4    4    0    0  0.12479871054E+02 -0.47336259530E+01  0.79804216567E+01  0.15551254814E+02  0.51100000000E-03 0.  1.
        -11    1    4    4    0    0  0.31538133230E+01 -0.31746367248E+01  0.16697792662E+02  0.17287022209E+02  0.51100000000E-03 0. -1.
        -12    1    4    4    0    0  0.92460980891E+01  0.19441897641E+02 -0.10684421343E+00  0.21528797678E+02  0.00000000000E+00 0.  1.
</event>
<event>
 8    1  0.2504019E-006  0.9118800E+02  0.7816164E-02  0.1184000E+00
        -11   -1    0    0    0    0  0.00000000000E+00  0.00000000000E+00  0.45593999997E+02  0.45594000000E+02  0.51100000000E-03 0. -1.
         11   -1    0    0    0    0 -0.00000000000E+00 -0.00000000000E+00 -0.45593999997E+02  0.45594000000E+02  0.51100000000E-03 0.  1.
         23    2    1    2    0    0  0.44408920985E-15 -0.71054273576E-14  0.17763568394E-14  0.91188000000E+02  0.91188000000E+02 0.  0.
    9900012    2    3    3    0    0 -0.25343079309E+01  0.34540189850E+02  0.12503298195E+02  0.54367083427E+02  0.39999998288E+02 0.  0.
        -12    1    3    3    0    0  0.25343079309E+01 -0.34540189850E+02 -0.12503298195E+02  0.36820916573E+02  0.00000000000E+00 0.  1.
         11    1    4    4    0    0  0.84106061097E+01  0.63276867434E+01 -0.10636161122E+01  0.10578714201E+02  0.51100000000E-03 0. -1.
        -11    1    4    4    0    0 -0.43487028737E+01 -0.41448553741E+01 -0.31412804291E+01  0.67792835722E+01  0.51100000000E-03 0.  1.
        -12    1    4    4    0    0 -0.65962111669E+01  0.32357358480E+02  0.16708194736E+02  0.37009085654E+02  0.00000000000E+00 0.  1.
</event>
<event>
 8    1  0.2504019E-006  0.9118800E+02  0.7816164E-02  0.1184000E+00
        -11   -1    0    0    0    0  0.00000000000E+00  0.00000000000E+00  0.45593999997E+02  0.45594000000E+02  0.51100000000E-03 0. -1.
         11   -1    0    0    0    0 -0.00000000000E+00 -0.00000000000E+00 -0.45593999997E+02  0.45594000000E+02  0.51100000000E-03 0.  1.
         23    2    1    2    0    0  0.00000000000E+00  0.35527136788E-14  0.35527136788E-14  0.91188000000E+02  0.91188000000E+02 0.  0.
    9900012    2    3    3    0    0 -0.22585509195E+02 -0.22794547156E+02 -0.18057758504E+02  0.54367092246E+02  0.40000018393E+02 0.  0.
         12    1    3    3    0    0  0.22585509195E+02  0.22794547156E+02  0.18057758504E+02  0.36820907754E+02  0.00000000000E+00 0. -1.
         11    1    4    4    0    0  0.88654380486E+01 -0.74165228619E+01 -0.50768964976E+01  0.12624408163E+02  0.51100000000E-03 0. -1.
        -11    1    4    4    0    0 -0.25662906000E+02 -0.19744783051E+02 -0.11347641253E+02  0.34310496417E+02  0.51100000000E-03 0.  1.
        -12    1    4    4    0    0 -0.57880412438E+01  0.43667587569E+01 -0.16332207531E+01  0.74321876665E+01  0.00000000000E+00 0.  1.
</event>
<event>
 8    1  0.2504019E-006  0.9118800E+02  0.7816164E-02  0.1184000E+00
        -11   -1    0    0    0    0  0.00000000000E+00  0.00000000000E+00  0.45593999997E+02  0.45594000000E+02  0.51100000000E-03 0. -1.
         11   -1    0    0    0    0 -0.00000000000E+00 -0.00000000000E+00 -0.45593999997E+02  0.45594000000E+02  0.51100000000E-03 0.  1.
         23    2    1    2    0    0  0.00000000000E+00 -0.71054273576E-14 -0.35527136788E-14  0.91188000000E+02  0.91188000000E+02 0.  0.
    9900012    2    3    3    0    0  0.99490549397E+01 -0.27279411912E+02 -0.22641360521E+02  0.54367065537E+02  0.39999957505E+02 0.  0.
         12    1    3    3    0    0 -0.99490549397E+01  0.27279411912E+02  0.22641360521E+02  0.36820934463E+02  0.00000000000E+00 0. -1.
         11    1    4    4    0    0  0.14128102471E+02 -0.18817685997E+01 -0.15147642849E+01  0.14333137954E+02  0.51100000000E-03 0. -1.
        -11    1    4    4    0    0  0.15982586656E+01 -0.27473717335E+02 -0.14921143780E+02  0.31304953392E+02  0.51100000000E-03 0.  1.
         12    1    4    4    0    0 -0.57773061971E+01  0.20760740219E+01 -0.62054524562E+01  0.87289741910E+01  0.00000000000E+00 0. -1.
</event>
<event>
 8    1  0.2504019E-006  0.9118800E+02  0.7816164E-02  0.1184000E+00
        -11   -1    0    0    0    0  0.00000000000E+00  0.00000000000E+00  0.45593999997E+02  0.45594000000E+02  0.51100000000E-03 0. -1.
         11   -1    0    0    0    0 -0.00000000000E+00 -0.00000000000E+00 -0.45593999997E+02  0.45594000000E+02  0.51100000000E-03 0.  1.
         23    2    1    2    0    0  0.71054273576E-14  0.71054273576E-14 -0.17763568394E-14  0.91188000000E+02  0.91188000000E+02 0.  0.
    9900012    2    3    3    0    0  0.15094298513E+02  0.32199636105E+02 -0.95458919141E+01  0.54367102872E+02  0.40000042617E+02 0.  0.
         12    1    3    3    0    0 -0.15094298513E+02 -0.32199636105E+02  0.95458919141E+01  0.36820897128E+02  0.00000000000E+00 0. -1.
         11    1    4    4    0    0 -0.93225026121E+01  0.37325488111E+01 -0.55906428668E+01  0.11493313861E+02  0.51100000000E-03 0. -1.
        -11    1    4    4    0    0  0.21910303804E+02  0.17875407093E+02  0.50779264034E+01  0.28729373964E+02  0.51100000000E-03 0.  1.
         12    1    4    4    0    0  0.25064973210E+01  0.10591680201E+02 -0.90331754506E+01  0.14144415047E+02  0.00000000000E+00 0. -1.
</event>
<event>
 8    1  0.2504019E-006  0.9118800E+02  0.7816164E-02  0.1184000E+00
        -11   -1    0    0    0    0  0.00000000000E+00  0.00000000000E+00  0.45593999997E+02  0.45594000000E+02  0.51100000000E-03 0.  1.
         11   -1    0    0    0    0 -0.00000000000E+00 -0.00000000000E+00 -0.45593999997E+02  0.45594000000E+02  0.51100000000E-03 0. -1.
         23    2    1    2    0    0 -0.17763568394E-14  0.00000000000E+00  0.00000000000E+00  0.91188000000E+02  0.91188000000E+02 0.  0.
    9900012    2    3    3    0    0 -0.68105379471E+01  0.14186028596E+02 -0.33288920969E+02  0.54367094339E+02  0.40000023164E+02 0.  0.
        -12    1    3    3    0    0  0.68105379471E+01 -0.14186028596E+02  0.33288920969E+02  0.36820905661E+02  0.00000000000E+00 0.  1.
         11    1    4    4    0    0 -0.99673662142E+01  0.52536741062E+01 -0.37490770055E+01  0.11874555129E+02  0.51100000000E-03 0. -1.
        -11    1    4    4    0    0 -0.73479998566E+01  0.34680058966E+00 -0.27868462246E+02  0.28822986674E+02  0.51100000000E-03 0.  1.
        -12    1    4    4    0    0  0.10504828124E+02  0.85855539004E+01 -0.16713817169E+01  0.13669552536E+02  0.00000000000E+00 0.  1.
</event>
<event>
 8    1  0.2504019E-006  0.9118800E+02  0.7816164E-02  0.1184000E+00
        -11   -1    0    0    0    0  0.00000000000E+00  0.00000000000E+00  0.45593999997E+02  0.45594000000E+02  0.51100000000E-03 0. -1.
         11   -1    0    0    0    0 -0.00000000000E+00 -0.00000000000E+00 -0.45593999997E+02  0.45594000000E+02  0.51100000000E-03 0.  1.
         23    2    1    2    0    0 -0.35527136788E-14  0.00000000000E+00  0.35527136788E-14  0.91188000000E+02  0.91188000000E+02 0.  0.
    9900012    2    3    3    0    0  0.18791499871E+02 -0.11422456010E+02 -0.29532798616E+02  0.54367093401E+02  0.40000021026E+02 0.  0.
         12    1    3    3    0    0 -0.18791499871E+02  0.11422456010E+02  0.29532798616E+02  0.36820906599E+02  0.00000000000E+00 0. -1.
         11    1    4    4    0    0 -0.61579564022E+00  0.11025903879E+02 -0.98775773724E+01  0.14816082331E+02  0.51100000000E-03 0. -1.
        -11    1    4    4    0    0  0.88732193471E+01 -0.55747201031E+00 -0.10521066482E+01  0.89527495935E+01  0.51100000000E-03 0.  1.
         12    1    4    4    0    0  0.10534076164E+02 -0.21890887879E+02 -0.18603114595E+02  0.30598261477E+02  0.00000000000E+00 0. -1.
</event>
<event>
 8    1  0.2504019E-006  0.9118800E+02  0.7816164E-02  0.1184000E+00
        -11   -1    0    0    0    0  0.00000000000E+00  0.00000000000E+00  0.45593999997E+02  0.45594000000E+02  0.51100000000E-03 0. -1.
         11   -1    0    0    0    0 -0.00000000000E+00 -0.00000000000E+00 -0.45593999997E+02  0.45594000000E+02  0.51100000000E-03 0.  1.
         23    2    1    2    0    0 -0.10658141036E-13  0.35527136788E-14 -0.55511151231E-16  0.91188000000E+02  0.91188000000E+02 0.  0.
    9900012    2    3    3    0    0  0.28163549113E+02 -0.23713839313E+02  0.49849981455E+00  0.54367079647E+02  0.39999989671E+02 0.  0.
        -12    1    3    3    0    0 -0.28163549113E+02  0.23713839313E+02 -0.49849981455E+00  0.36820920353E+02  0.00000000000E+00 0.  1.
         11    1    4    4    0    0  0.71337461991E+01 -0.85583950139E+01 -0.29278204476E+01  0.11519921566E+02  0.51100000000E-03 0. -1.
        -11    1    4    4    0    0  0.35739184877E+01 -0.22709888508E+02 -0.19766456885E+01  0.23074207631E+02  0.51100000000E-03 0.  1.
        -12    1    4    4    0    0  0.17455884426E+02  0.75544442088E+01  0.54029659506E+01  0.19772950449E+02  0.00000000000E+00 0.  1.
</event>
<event>
 8    1  0.2504019E-006  0.9118800E+02  0.7816164E-02  0.1184000E+00
        -11   -1    0    0    0    0  0.00000000000E+00  0.00000000000E+00  0.45593999997E+02  0.45594000000E+02  0.51100000000E-03 0.  1.
         11   -1    0    0    0    0 -0.00000000000E+00 -0.00000000000E+00 -0.45593999997E+02  0.45594000000E+02  0.51100000000E-03 0. -1.
         23    2    1    2    0    0  0.44408920985E-15  0.00000000000E+00  0.00000000000E+00  0.91188000000E+02  0.91188000000E+02 0.  0.
    9900012    2    3    3    0    0  0.36614662703E+01  0.30826346391E+02 -0.19801786679E+02  0.54367072217E+02  0.39999972734E+02 0.  0.
        -12    1    3    3    0    0 -0.36614662703E+01 -0.30826346391E+02  0.19801786679E+02  0.36820927783E+02  0.00000000000E+00 0.  1.
         11    1    4    4    0    0  0.33186733026E+01  0.13497444578E+02 -0.22296957026E+02  0.26274491346E+02  0.51100000000E-03 0. -1.
        -11    1    4    4    0    0 -0.23706459906E+01  0.96633852436E+01 -0.93971165388E+01  0.13686006586E+02  0.51100000000E-03 0.  1.
         12    1    4    4    0    0  0.27134389584E+01  0.76655165694E+01  0.11892286885E+02  0.14406574285E+02  0.00000000000E+00 0. -1.
</event>
<event>
 8    1  0.2504019E-006  0.9118800E+02  0.7816164E-02  0.1184000E+00
        -11   -1    0    0    0    0  0.00000000000E+00  0.00000000000E+00  0.45593999997E+02  0.45594000000E+02  0.51100000000E-03 0. -1.
         11   -1    0    0    0    0 -0.00000000000E+00 -0.00000000000E+00 -0.45593999997E+02  0.45594000000E+02  0.51100000000E-03 0.  1.
         23    2    1    2    0    0  0.00000000000E+00 -0.17763568394E-14  0.00000000000E+00  0.91188000000E+02  0.91188000000E+02 0.  0.
    9900012    2    3    3    0    0 -0.12274203760E+02  0.15812869417E+02  0.30904328856E+02  0.54367075797E+02  0.39999980894E+02 0.  0.
        -12    1    3    3    0    0  0.12274203760E+02 -0.15812869417E+02 -0.30904328856E+02  0.36820924203E+02  0.00000000000E+00 0.  1.
         11    1    4    4    0    0 -0.90337755562E+01 -0.36090371965E+01 -0.14580331258E+00  0.97291062875E+01  0.51100000000E-03 0.  1.
        -11    1    4    4    0    0  0.52883227120E+01 -0.20616371342E+01 -0.30458646868E+00  0.56841426757E+01  0.51100000000E-03 0. -1.
        -12    1    4    4    0    0 -0.85287509156E+01  0.21483543748E+02  0.31354718637E+02  0.38953826834E+02  0.00000000000E+00 0.  1.
</event>
<event>
 8    1  0.2504019E-006  0.9118800E+02  0.7816164E-02  0.1184000E+00
        -11   -1    0    0    0    0  0.00000000000E+00  0.00000000000E+00  0.45593999997E+02  0.45594000000E+02  0.51100000000E-03 0. -1.
         11   -1    0    0    0    0 -0.00000000000E+00 -0.00000000000E+00 -0.45593999997E+02  0.45594000000E+02  0.51100000000E-03 0.  1.
         23    2    1    2    0    0  0.44408920985E-15  0.71054273576E-14  0.00000000000E+00  0.91188000000E+02  0.91188000000E+02 0.  0.
    9900012    2    3    3    0    0 -0.25574084356E+01 -0.28788713213E+02 -0.22813370442E+02  0.54367079082E+02  0.39999988383E+02 0.  0.
         12    1    3    3    0    0  0.25574084356E+01  0.28788713213E+02  0.22813370442E+02  0.36820920918E+02  0.00000000000E+00 0. -1.
         11    1    4    4    0    0 -0.52671793384E+00 -0.20444308205E+02 -0.31135846561E+01  0.20686748885E+02  0.51100000000E-03 0. -1.
        -11    1    4    4    0    0 -0.86553808490E+00 -0.17784862110E+02 -0.12781517392E+02  0.21918432050E+02  0.51100000000E-03 0.  1.
         12    1    4    4    0    0 -0.11651524168E+01  0.94404571019E+01 -0.69182683936E+01  0.11761898147E+02  0.00000000000E+00 0. -1.
</event>
<event>
 8    1  0.2504019E-006  0.9118800E+02  0.7816164E-02  0.1184000E+00
        -11   -1    0    0    0    0  0.00000000000E+00  0.00000000000E+00  0.45593999997E+02  0.45594000000E+02  0.51100000000E-03 0. -1.
         11   -1    0    0    0    0 -0.00000000000E+00 -0.00000000000E+00 -0.45593999997E+02  0.45594000000E+02  0.51100000000E-03 0.  1.
         23    2    1    2    0    0  0.88817841970E-15  0.00000000000E+00  0.00000000000E+00  0.91188000000E+02  0.91188000000E+02 0.  0.
    9900012    2    3    3    0    0  0.78952945416E+01  0.14495029857E+02 -0.32914128753E+02  0.54367062505E+02  0.39999950592E+02 0.  0.
         12    1    3    3    0    0 -0.78952945416E+01 -0.14495029857E+02  0.32914128753E+02  0.36820937495E+02  0.00000000000E+00 0. -1.
         11    1    4    4    0    0  0.75996068509E+01  0.91861283314E+01 -0.18596437113E+01  0.12066368675E+02  0.51100000000E-03 0. -1.
        -11    1    4    4    0    0 -0.69706891053E+01  0.33738356623E+01 -0.33507732490E+02  0.34391007699E+02  0.51100000000E-03 0.  1.
        -12    1    4    4    0    0  0.72663767960E+01  0.19350658639E+01  0.24532474484E+01  0.79096861304E+01  0.00000000000E+00 0.  1.
</event>
<event>
 8    1  0.2504019E-006  0.9118800E+02  0.7816164E-02  0.1184000E+00
        -11   -1    0    0    0    0  0.00000000000E+00  0.00000000000E+00  0.45593999997E+02  0.45594000000E+02  0.51100000000E-03 0.  1.
         11   -1    0    0    0    0 -0.00000000000E+00 -0.00000000000E+00 -0.45593999997E+02  0.45594000000E+02  0.51100000000E-03 0. -1.
         23    2    1    2    0    0  0.00000000000E+00  0.00000000000E+00 -0.35527136788E-14  0.91188000000E+02  0.91188000000E+02 0.  0.
    9900012    2    3    3    0    0  0.62539204475E+01  0.29158434499E+02 -0.21597561057E+02  0.54367075690E+02  0.39999980650E+02 0.  0.
        -12    1    3    3    0    0 -0.62539204475E+01 -0.29158434499E+02  0.21597561057E+02  0.36820924310E+02  0.00000000000E+00 0.  1.
         11    1    4    4    0    0  0.13667677967E+02  0.24057132076E+02 -0.16222504635E+02  0.32073675836E+02  0.51100000000E-03 0. -1.
        -11    1    4    4    0    0  0.20627300351E+01  0.15061262154E+01  0.63205511120E+01  0.68170842737E+01  0.51100000000E-03 0.  1.
         12    1    4    4    0    0 -0.94764875550E+01  0.35951762083E+01 -0.11695607534E+02  0.15476315580E+02  0.00000000000E+00 0. -1.
</event>
<event>
 8    1  0.2504019E-006  0.9118800E+02  0.7816164E-02  0.1184000E+00
        -11   -1    0    0    0    0  0.00000000000E+00  0.00000000000E+00  0.45593999997E+02  0.45594000000E+02  0.51100000000E-03 0.  1.
         11   -1    0    0    0    0 -0.00000000000E+00 -0.00000000000E+00 -0.45593999997E+02  0.45594000000E+02  0.51100000000E-03 0. -1.
         23    2    1    2    0    0  0.88817841970E-15  0.00000000000E+00 -0.35527136788E-14  0.91188000000E+02  0.91188000000E+02 0.  0.
    9900012    2    3    3    0    0  0.52208269055E+01  0.28254846901E+02 -0.23025767575E+02  0.54367090460E+02  0.40000014321E+02 0.  0.
        -12    1    3    3    0    0 -0.52208269055E+01 -0.28254846901E+02  0.23025767575E+02  0.36820909540E+02  0.00000000000E+00 0.  1.
         11    1    4    4    0    0  0.53320926364E+01  0.67185418524E+01  0.10087749613E+02  0.13241325803E+02  0.51100000000E-03 0. -1.
        -11    1    4    4    0    0 -0.18071461540E+01  0.51189942950E+01 -0.17831777426E+01  0.57139831061E+01  0.51100000000E-03 0.  1.
         12    1    4    4    0    0  0.16958804231E+01  0.16417310753E+02 -0.31330339446E+02  0.35411781550E+02  0.00000000000E+00 0. -1.
</event>
<event>
 8    1  0.2504019E-006  0.9118800E+02  0.7816164E-02  0.1184000E+00
        -11   -1    0    0    0    0  0.00000000000E+00  0.00000000000E+00  0.45593999997E+02  0.45594000000E+02  0.51100000000E-03 0.  1.
         11   -1    0    0    0    0 -0.00000000000E+00 -0.00000000000E+00 -0.45593999997E+02  0.45594000000E+02  0.51100000000E-03 0. -1.
         23    2    1    2    0    0  0.00000000000E+00  0.35527136788E-14  0.35527136788E-14  0.91188000000E+02  0.91188000000E+02 0.  0.
    9900012    2    3    3    0    0  0.23924092772E+02  0.17943089003E+02 -0.21481693745E+02  0.54367084421E+02  0.40000000554E+02 0.  0.
         12    1    3    3    0    0 -0.23924092772E+02 -0.17943089003E+02  0.21481693745E+02  0.36820915579E+02  0.00000000000E+00 0. -1.
         11    1    4    4    0    0 -0.62889596183E+00 -0.39768973749E+01  0.75983044564E+01  0.85991542452E+01  0.51100000000E-03 0. -1.
        -11    1    4    4    0    0  0.13161253232E+02  0.18023311516E+02 -0.13517155770E+02  0.26091604876E+02  0.51100000000E-03 0.  1.
         12    1    4    4    0    0  0.11391735502E+02  0.38966748614E+01 -0.15562842431E+02  0.19676325299E+02  0.00000000000E+00 0. -1.
</event>
<event>
 8    1  0.2504019E-006  0.9118800E+02  0.7816164E-02  0.1184000E+00
        -11   -1    0    0    0    0  0.00000000000E+00  0.00000000000E+00  0.45593999997E+02  0.45594000000E+02  0.51100000000E-03 0. -1.
         11   -1    0    0    0    0 -0.00000000000E+00 -0.00000000000E+00 -0.45593999997E+02  0.45594000000E+02  0.51100000000E-03 0.  1.
         23    2    1    2    0    0 -0.88817841970E-15  0.00000000000E+00  0.71054273576E-14  0.91188000000E+02  0.91188000000E+02 0.  0.
    9900012    2    3    3    0    0 -0.57965306917E+01 -0.25338357515E+02  0.26079616317E+02  0.54367102172E+02  0.40000041022E+02 0.  0.
        -12    1    3    3    0    0  0.57965306917E+01  0.25338357515E+02 -0.26079616317E+02  0.36820897828E+02  0.00000000000E+00 0.  1.
         11    1    4    4    0    0 -0.59135925253E+01 -0.13272710781E+01 -0.80841536036E+01  0.10103750037E+02  0.51100000000E-03 0. -1.
        -11    1    4    4    0    0 -0.29174572219E+01 -0.24700138295E+01  0.73170163681E-01  0.38233335054E+01  0.51100000000E-03 0.  1.
         12    1    4    4    0    0  0.30345190555E+01 -0.21541072607E+02  0.34090599757E+02  0.40440018629E+02  0.00000000000E+00 0. -1.
</event>
<event>
 8    1  0.2504019E-006  0.9118800E+02  0.7816164E-02  0.1184000E+00
        -11   -1    0    0    0    0  0.00000000000E+00  0.00000000000E+00  0.45593999997E+02  0.45594000000E+02  0.51100000000E-03 0. -1.
         11   -1    0    0    0    0 -0.00000000000E+00 -0.00000000000E+00 -0.45593999997E+02  0.45594000000E+02  0.51100000000E-03 0.  1.
         23    2    1    2    0    0  0.00000000000E+00  0.66613381478E-15  0.00000000000E+00  0.91188000000E+02  0.91188000000E+02 0.  0.
    9900012    2    3    3    0    0  0.33405353582E+02 -0.18830836641E+01 -0.15372561445E+02  0.54367091573E+02  0.40000016859E+02 0.  0.
         12    1    3    3    0    0 -0.33405353582E+02  0.18830836641E+01  0.15372561445E+02  0.36820908427E+02  0.00000000000E+00 0. -1.
         11    1    4    4    0    0 -0.37458806738E+01 -0.16811428254E+01 -0.86635198013E+01  0.95872018248E+01  0.51100000000E-03 0. -1.
        -11    1    4    4    0    0  0.16664468257E+02  0.89203777524E+00  0.89814470405E+01  0.18951691874E+02  0.51100000000E-03 0.  1.
        -12    1    4    4    0    0  0.20486765999E+02 -0.10939786139E+01 -0.15690488684E+02  0.25828197874E+02  0.00000000000E+00 0.  1.
</event>
<event>
 8    1  0.2504019E-006  0.9118800E+02  0.7816164E-02  0.1184000E+00
        -11   -1    0    0    0    0  0.00000000000E+00  0.00000000000E+00  0.45593999997E+02  0.45594000000E+02  0.51100000000E-03 0.  1.
         11   -1    0    0    0    0 -0.00000000000E+00 -0.00000000000E+00 -0.45593999997E+02  0.45594000000E+02  0.51100000000E-03 0. -1.
         23    2    1    2    0    0  0.00000000000E+00  0.00000000000E+00  0.00000000000E+00  0.91188000000E+02  0.91188000000E+02 0.  0.
    9900012    2    3    3    0    0  0.62309205508E+01 -0.49104117698E+01  0.35956133668E+02  0.54367081176E+02  0.39999993158E+02 0.  0.
         12    1    3    3    0    0 -0.62309205508E+01  0.49104117698E+01 -0.35956133668E+02  0.36820918824E+02  0.00000000000E+00 0. -1.
         11    1    4    4    0    0  0.11729196700E+02 -0.58094555099E+01 -0.34411900753E+01  0.13533869290E+02  0.51100000000E-03 0. -1.
        -11    1    4    4    0    0  0.29329485765E-01  0.40741442096E+01  0.11028696254E+02  0.11757195779E+02  0.51100000000E-03 0.  1.
         12    1    4    4    0    0 -0.55276056354E+01 -0.31751004695E+01  0.28368627489E+02  0.29076016108E+02  0.00000000000E+00 0. -1.
</event>
<event>
 8    1  0.2504019E-006  0.9118800E+02  0.7816164E-02  0.1184000E+00
        -11   -1    0    0    0    0  0.00000000000E+00  0.00000000000E+00  0.45593999997E+02  0.45594000000E+02  0.51100000000E-03 0.  1.
         11   -1    0    0    0    0 -0.00000000000E+00 -0.00000000000E+00 -0.45593999997E+02  0.45594000000E+02  0.51100000000E-03 0. -1.
         23    2    1    2    0    0  0.88817841970E-15  0.88817841970E-15  0.00000000000E+00  0.91188000000E+02  0.91188000000E+02 0.  0.
    9900012    2    3    3    0    0  0.47763023816E+01 -0.78454490264E+01 -0.35656953346E+02  0.54367048671E+02  0.39999919055E+02 0.  0.
        -12    1    3    3    0    0 -0.47763023816E+01  0.78454490264E+01  0.35656953346E+02  0.36820951329E+02  0.00000000000E+00 0.  1.
         11    1    4    4    0    0  0.97108058246E+01  0.26588501611E+01  0.10513209133E+01  0.10122969419E+02  0.51100000000E-03 0. -1.
        -11    1    4    4    0    0  0.78822676400E+00 -0.15870289184E+02 -0.29885948536E+02  0.33847559741E+02  0.51100000000E-03 0.  1.
        -12    1    4    4    0    0 -0.57227302070E+01  0.53659899965E+01 -0.68223257229E+01  0.10396519511E+02  0.00000000000E+00 0.  1.
</event>
<event>
 8    1  0.2504019E-006  0.9118800E+02  0.7816164E-02  0.1184000E+00
        -11   -1    0    0    0    0  0.00000000000E+00  0.00000000000E+00  0.45593999997E+02  0.45594000000E+02  0.51100000000E-03 0. -1.
         11   -1    0    0    0    0 -0.00000000000E+00 -0.00000000000E+00 -0.45593999997E+02  0.45594000000E+02  0.51100000000E-03 0.  1.
         23    2    1    2    0    0 -0.22204460493E-15  0.00000000000E+00  0.35527136788E-14  0.91188000000E+02  0.91188000000E+02 0.  0.
    9900012    2    3    3    0    0 -0.19479386493E+01  0.18260390339E+02 -0.31914483680E+02  0.54367209828E+02  0.40000286445E+02 0.  0.
         12    1    3    3    0    0  0.19479386493E+01 -0.18260390339E+02  0.31914483680E+02  0.36820790172E+02  0.00000000000E+00 0. -1.
         11    1    4    4    0    0 -0.71833190619E+01 -0.99142849273E+01 -0.12835076954E+02  0.17737878087E+02  0.51100000000E-03 0. -1.
        -11    1    4    4    0    0  0.58243015539E+01  0.47450656055E+01 -0.69742694627E+01  0.10250783921E+02  0.51100000000E-03 0.  1.
         12    1    4    4    0    0 -0.58892114140E+00  0.23429609660E+02 -0.12105137263E+02  0.26378547820E+02  0.00000000000E+00 0. -1.
</event>
<event>
 8    1  0.2504019E-006  0.9118800E+02  0.7816164E-02  0.1184000E+00
        -11   -1    0    0    0    0  0.00000000000E+00  0.00000000000E+00  0.45593999997E+02  0.45594000000E+02  0.51100000000E-03 0.  1.
         11   -1    0    0    0    0 -0.00000000000E+00 -0.00000000000E+00 -0.45593999997E+02  0.45594000000E+02  0.51100000000E-03 0. -1.
         23    2    1    2    0    0  0.00000000000E+00  0.00000000000E+00 -0.71054273576E-14  0.91188000000E+02  0.91188000000E+02 0.  0.
    9900012    2    3    3    0    0  0.22134840533E+01 -0.15553711107E+01  0.36721365185E+02  0.54367117990E+02  0.40000077082E+02 0.  0.
         12    1    3    3    0    0 -0.22134840533E+01  0.15553711107E+01 -0.36721365185E+02  0.36820882010E+02  0.00000000000E+00 0. -1.
         11    1    4    4    0    0 -0.80563728035E+00 -0.50868931630E+00  0.23007338576E+02  0.23027058971E+02  0.51100000000E-03 0. -1.
        -11    1    4    4    0    0  0.81411168094E+01  0.16696828045E-01  0.20912653892E+02  0.22441416060E+02  0.51100000000E-03 0.  1.
         12    1    4    4    0    0 -0.51219954758E+01 -0.10633786225E+01 -0.71986272833E+01  0.88986429591E+01  0.00000000000E+00 0. -1.
</event>
<event>
 8    1  0.2504019E-006  0.9118800E+02  0.7816164E-02  0.1184000E+00
        -11   -1    0    0    0    0  0.00000000000E+00  0.00000000000E+00  0.45593999997E+02  0.45594000000E+02  0.51100000000E-03 0.  1.
         11   -1    0    0    0    0 -0.00000000000E+00 -0.00000000000E+00 -0.45593999997E+02  0.45594000000E+02  0.51100000000E-03 0. -1.
         23    2    1    2    0    0  0.00000000000E+00  0.17763568394E-14  0.00000000000E+00  0.91188000000E+02  0.91188000000E+02 0.  0.
    9900012    2    3    3    0    0  0.18644979717E+02  0.88739908503E+01 -0.30486006462E+02  0.54367087840E+02  0.40000008350E+02 0.  0.
         12    1    3    3    0    0 -0.18644979717E+02 -0.88739908503E+01  0.30486006462E+02  0.36820912160E+02  0.00000000000E+00 0. -1.
         11    1    4    4    0    0  0.40092094248E+01  0.10989075351E+01 -0.23535059993E+02  0.23899380894E+02  0.51100000000E-03 0. -1.
        -11    1    4    4    0    0  0.16323904560E+01  0.12248506657E+01 -0.14100242810E+02  0.14247168327E+02  0.51100000000E-03 0.  1.
        -12    1    4    4    0    0  0.13003379837E+02  0.65502326495E+01  0.71492963415E+01  0.16220538620E+02  0.00000000000E+00 0.  1.
</event>
<event>
 8    1  0.2504019E-006  0.9118800E+02  0.7816164E-02  0.1184000E+00
        -11   -1    0    0    0    0  0.00000000000E+00  0.00000000000E+00  0.45593999997E+02  0.45594000000E+02  0.51100000000E-03 0. -1.
         11   -1    0    0    0    0 -0.00000000000E+00 -0.00000000000E+00 -0.45593999997E+02  0.45594000000E+02  0.51100000000E-03 0.  1.
         23    2    1    2    0    0  0.35527136788E-14  0.53290705182E-14 -0.71054273576E-14  0.91188000000E+02  0.91188000000E+02 0.  0.
    9900012    2    3    3    0    0  0.23527977961E+02  0.58372514095E+01 -0.27715355280E+02  0.54367079733E+02  0.39999989868E+02 0.  0.
         12    1    3    3    0    0 -0.23527977961E+02 -0.58372514095E+01  0.27715355280E+02  0.36820920267E+02  0.00000000000E+00 0. -1.
         11    1    4    4    0    0  0.16609220435E+01 -0.71458204263E+01 -0.42908575329E+01  0.84989923067E+01  0.51100000000E-03 0. -1.
        -11    1    4    4    0    0  0.11746980557E+02 -0.70044066182E+01 -0.18368856052E+02  0.22901269336E+02  0.51100000000E-03 0.  1.
         12    1    4    4    0    0  0.10120075360E+02  0.19987478454E+02 -0.50556416951E+01  0.22966818090E+02  0.00000000000E+00 0. -1.
</event>
<event>
 8    1  0.2504019E-006  0.9118800E+02  0.7816164E-02  0.1184000E+00
        -11   -1    0    0    0    0  0.00000000000E+00  0.00000000000E+00  0.45593999997E+02  0.45594000000E+02  0.51100000000E-03 0. -1.
         11   -1    0    0    0    0 -0.00000000000E+00 -0.00000000000E+00 -0.45593999997E+02  0.45594000000E+02  0.51100000000E-03 0.  1.
         23    2    1    2    0    0  0.00000000000E+00  0.35527136788E-14 -0.17763568394E-14  0.91188000000E+02  0.91188000000E+02 0.  0.
    9900012    2    3    3    0    0 -0.10895912517E+02 -0.31385458678E+02  0.15874875284E+02  0.54367087582E+02  0.40000007761E+02 0.  0.
        -12    1    3    3    0    0  0.10895912517E+02  0.31385458678E+02 -0.15874875284E+02  0.36820912418E+02  0.00000000000E+00 0.  1.
         11    1    4    4    0    0 -0.48025132835E+01 -0.19833592136E+02  0.16090433344E+02  0.25987257576E+02  0.51100000000E-03 0. -1.
        -11    1    4    4    0    0 -0.13185950656E+02  0.16937085499E+01 -0.10199364740E+01  0.13333349693E+02  0.51100000000E-03 0.  1.
        -12    1    4    4    0    0  0.70925514223E+01 -0.13245575092E+02  0.80437841332E+00  0.15046480313E+02  0.00000000000E+00 0.  1.
</event>
<event>
 8    1  0.2504019E-006  0.9118800E+02  0.7816164E-02  0.1184000E+00
        -11   -1    0    0    0    0  0.00000000000E+00  0.00000000000E+00  0.45593999997E+02  0.45594000000E+02  0.51100000000E-03 0. -1.
         11   -1    0    0    0    0 -0.00000000000E+00 -0.00000000000E+00 -0.45593999997E+02  0.45594000000E+02  0.51100000000E-03 0.  1.
         23    2    1    2    0    0  0.35527136788E-14  0.17763568394E-14 -0.71054273576E-14  0.91188000000E+02  0.91188000000E+02 0.  0.
    9900012    2    3    3    0    0 -0.26979980622E+02 -0.80663516708E+01  0.23723269381E+02  0.54367097054E+02  0.40000029353E+02 0.  0.
        -12    1    3    3    0    0  0.26979980622E+02  0.80663516708E+01 -0.23723269381E+02  0.36820902946E+02  0.00000000000E+00 0.  1.
         11    1    4    4    0    0 -0.12625999568E+02  0.27645403465E+01  0.14968126572E+02  0.19776333375E+02  0.51100000000E-03 0. -1.
        -11    1    4    4    0    0 -0.60947635119E+01  0.18033424679E+01 -0.91696538654E+01  0.11157093645E+02  0.51100000000E-03 0.  1.
        -12    1    4    4    0    0 -0.82592175421E+01 -0.12634234485E+02  0.17924796675E+02  0.23433670034E+02  0.00000000000E+00 0.  1.
</event>
<event>
 8    1  0.2504019E-006  0.9118800E+02  0.7816164E-02  0.1184000E+00
        -11   -1    0    0    0    0  0.00000000000E+00  0.00000000000E+00  0.45593999997E+02  0.45594000000E+02  0.51100000000E-03 0. -1.
         11   -1    0    0    0    0 -0.00000000000E+00 -0.00000000000E+00 -0.45593999997E+02  0.45594000000E+02  0.51100000000E-03 0.  1.
         23    2    1    2    0    0  0.00000000000E+00 -0.35527136788E-14 -0.17763568394E-14  0.91188000000E+02  0.91188000000E+02 0.  0.
    9900012    2    3    3    0    0 -0.19442566367E+02  0.29999961820E+02 -0.88186813221E+01  0.54367078822E+02  0.39999987790E+02 0.  0.
        -12    1    3    3    0    0  0.19442566367E+02 -0.29999961820E+02  0.88186813221E+01  0.36820921178E+02  0.00000000000E+00 0.  1.
         11    1    4    4    0    0 -0.12680109831E+02  0.43062331969E+00 -0.24164265955E+01  0.12915484486E+02  0.51100000000E-03 0. -1.
        -11    1    4    4    0    0 -0.11537591457E+02  0.10508821833E+01  0.92493060443E+00  0.11622214370E+02  0.51100000000E-03 0.  1.
         12    1    4    4    0    0  0.47751349204E+01  0.28518456317E+02 -0.73271853311E+01  0.29829379965E+02  0.00000000000E+00 0. -1.
</event>
<event>
 8    1  0.2504019E-006  0.9118800E+02  0.7816164E-02  0.1184000E+00
        -11   -1    0    0    0    0  0.00000000000E+00  0.00000000000E+00  0.45593999997E+02  0.45594000000E+02  0.51100000000E-03 0.  1.
         11   -1    0    0    0    0 -0.00000000000E+00 -0.00000000000E+00 -0.45593999997E+02  0.45594000000E+02  0.51100000000E-03 0. -1.
         23    2    1    2    0    0  0.17763568394E-14  0.00000000000E+00  0.00000000000E+00  0.91188000000E+02  0.91188000000E+02 0.  0.
    9900012    2    3    3    0    0  0.12701535407E+02  0.21664439811E+02 -0.26927740121E+02  0.54367080104E+02  0.39999990713E+02 0.  0.
         12    1    3    3    0    0 -0.12701535407E+02 -0.21664439811E+02  0.26927740121E+02  0.36820919896E+02  0.00000000000E+00 0. -1.
         11    1    4    4    0    0 -0.71245257956E+01  0.47831423178E+01 -0.10826274311E+02  0.13814685446E+02  0.51100000000E-03 0. -1.
        -11    1    4    4    0    0  0.34537026034E+01  0.15398814099E+02 -0.18075089046E+02  0.23995007431E+02  0.51100000000E-03 0.  1.
        -12    1    4    4    0    0  0.16372358599E+02  0.14824833935E+01  0.19736232366E+01  0.16557387227E+02  0.00000000000E+00 0.  1.
</event>
<event>
 8    1  0.2504019E-006  0.9118800E+02  0.7816164E-02  0.1184000E+00
        -11   -1    0    0    0    0  0.00000000000E+00  0.00000000000E+00  0.45593999997E+02  0.45594000000E+02  0.51100000000E-03 0.  1.
         11   -1    0    0    0    0 -0.00000000000E+00 -0.00000000000E+00 -0.45593999997E+02  0.45594000000E+02  0.51100000000E-03 0. -1.
         23    2    1    2    0    0  0.00000000000E+00  0.00000000000E+00  0.88817841970E-15  0.91188000000E+02  0.91188000000E+02 0.  0.
    9900012    2    3    3    0    0  0.31823050473E+02  0.17798193770E+02 -0.51277935506E+01  0.54367129429E+02  0.40000103160E+02 0.  0.
        -12    1    3    3    0    0 -0.31823050473E+02 -0.17798193770E+02  0.51277935506E+01  0.36820870571E+02  0.00000000000E+00 0.  1.
         11    1    4    4    0    0  0.27162482207E+02  0.93620886162E+01  0.70360454140E+01  0.29579639589E+02  0.51100000000E-03 0. -1.
        -11    1    4    4    0    0 -0.56642172729E+01  0.36244381706E+01  0.16090910414E+01  0.69144112988E+01  0.51100000000E-03 0.  1.
         12    1    4    4    0    0  0.10324785539E+02  0.48116669832E+01 -0.13772930006E+02  0.17873078541E+02  0.00000000000E+00 0. -1.
</event>
<event>
 8    1  0.2504019E-006  0.9118800E+02  0.7816164E-02  0.1184000E+00
        -11   -1    0    0    0    0  0.00000000000E+00  0.00000000000E+00  0.45593999997E+02  0.45594000000E+02  0.51100000000E-03 0.  1.
         11   -1    0    0    0    0 -0.00000000000E+00 -0.00000000000E+00 -0.45593999997E+02  0.45594000000E+02  0.51100000000E-03 0. -1.
         23    2    1    2    0    0  0.35527136788E-14  0.00000000000E+00  0.35527136788E-14  0.91188000000E+02  0.91188000000E+02 0.  0.
    9900012    2    3    3    0    0  0.30825468132E+02  0.12092258207E+02  0.16104305462E+02  0.54367070510E+02  0.39999968841E+02 0.  0.
         12    1    3    3    0    0 -0.30825468132E+02 -0.12092258207E+02 -0.16104305462E+02  0.36820929490E+02  0.00000000000E+00 0. -1.
         11    1    4    4    0    0  0.12256860121E+02  0.14605237861E+02 -0.35144187678E+01  0.19388004863E+02  0.51100000000E-03 0. -1.
        -11    1    4    4    0    0  0.51789093347E+01 -0.31415855808E+01 -0.43906868816E+01  0.74812294051E+01  0.51100000000E-03 0.  1.
        -12    1    4    4    0    0  0.13389698676E+02  0.62860592596E+00  0.24009411112E+02  0.27497836242E+02  0.00000000000E+00 0.  1.
</event>
<event>
 8    1  0.2504019E-006  0.9118800E+02  0.7816164E-02  0.1184000E+00
        -11   -1    0    0    0    0  0.00000000000E+00  0.00000000000E+00  0.45593999997E+02  0.45594000000E+02  0.51100000000E-03 0.  1.
         11   -1    0    0    0    0 -0.00000000000E+00 -0.00000000000E+00 -0.45593999997E+02  0.45594000000E+02  0.51100000000E-03 0. -1.
         23    2    1    2    0    0  0.35527136788E-14 -0.17763568394E-14 -0.35527136788E-14  0.91188000000E+02  0.91188000000E+02 0.  0.
    9900012    2    3    3    0    0 -0.23321845004E+02  0.98315062786E+01  0.26743474677E+02  0.54367076493E+02  0.39999982481E+02 0.  0.
         12    1    3    3    0    0  0.23321845004E+02 -0.98315062786E+01 -0.26743474677E+02  0.36820923507E+02  0.00000000000E+00 0. -1.
         11    1    4    4    0    0  0.72139962724E+01  0.54272827016E+01  0.62373376225E+01  0.10972762670E+02  0.51100000000E-03 0. -1.
        -11    1    4    4    0    0 -0.79963391038E+00  0.86067992752E+00 -0.43314590694E+01  0.44879530144E+01  0.51100000000E-03 0.  1.
        -12    1    4    4    0    0 -0.29736207366E+02  0.35435436495E+01  0.24837596124E+02  0.38906360808E+02  0.00000000000E+00 0.  1.
</event>
<event>
 8    1  0.2504019E-006  0.9118800E+02  0.7816164E-02  0.1184000E+00
        -11   -1    0    0    0    0  0.00000000000E+00  0.00000000000E+00  0.45593999997E+02  0.45594000000E+02  0.51100000000E-03 0.  1.
         11   -1    0    0    0    0 -0.00000000000E+00 -0.00000000000E+00 -0.45593999997E+02  0.45594000000E+02  0.51100000000E-03 0. -1.
         23    2    1    2    0    0  0.35527136788E-14  0.00000000000E+00 -0.88817841970E-15  0.91188000000E+02  0.91188000000E+02 0.  0.
    9900012    2    3    3    0    0  0.24891442749E+02 -0.26790932318E+02  0.42941984840E+01  0.54367107599E+02  0.40000053394E+02 0.  0.
         12    1    3    3    0    0 -0.24891442749E+02  0.26790932318E+02 -0.42941984840E+01  0.36820892401E+02  0.00000000000E+00 0. -1.
         11    1    4    4    0    0  0.12869158188E+02 -0.52870500906E+01  0.84477069116E+01  0.16276728278E+02  0.51100000000E-03 0. -1.
        -11    1    4    4    0    0  0.68160479843E+01 -0.19733932335E+02  0.98213251718E+01  0.23072603319E+02  0.51100000000E-03 0.  1.
         12    1    4    4    0    0  0.52062365768E+01 -0.17699498923E+01 -0.13974833599E+02  0.15017776002E+02  0.00000000000E+00 0. -1.
</event>
<event>
 8    1  0.2504019E-006  0.9118800E+02  0.7816164E-02  0.1184000E+00
        -11   -1    0    0    0    0  0.00000000000E+00  0.00000000000E+00  0.45593999997E+02  0.45594000000E+02  0.51100000000E-03 0. -1.
         11   -1    0    0    0    0 -0.00000000000E+00 -0.00000000000E+00 -0.45593999997E+02  0.45594000000E+02  0.51100000000E-03 0.  1.
         23    2    1    2    0    0  0.35527136788E-14 -0.35527136788E-14  0.00000000000E+00  0.91188000000E+02  0.91188000000E+02 0.  0.
    9900012    2    3    3    0    0 -0.29895235169E+02  0.16299621122E+02 -0.14013456296E+02  0.54367086216E+02  0.40000004646E+02 0.  0.
         12    1    3    3    0    0  0.29895235169E+02 -0.16299621122E+02  0.14013456296E+02  0.36820913784E+02  0.00000000000E+00 0. -1.
         11    1    4    4    0    0 -0.10449085543E+02 -0.11543378142E+02 -0.41994735695E+01  0.16126640882E+02  0.51100000000E-03 0. -1.
        -11    1    4    4    0    0 -0.13889566334E+02  0.24165518786E+02 -0.13115178766E+02  0.30804224799E+02  0.51100000000E-03 0.  1.
         12    1    4    4    0    0 -0.55565832925E+01  0.36774804774E+01  0.33011960399E+01  0.74362205348E+01  0.00000000000E+00 0. -1.
</event>
<event>
 8    1  0.2504019E-006  0.9118800E+02  0.7816164E-02  0.1184000E+00
        -11   -1    0    0    0    0  0.00000000000E+00  0.00000000000E+00  0.45593999997E+02  0.45594000000E+02  0.51100000000E-03 0.  1.
         11   -1    0    0    0    0 -0.00000000000E+00 -0.00000000000E+00 -0.45593999997E+02  0.45594000000E+02  0.51100000000E-03 0. -1.
         23    2    1    2    0    0  0.00000000000E+00  0.35527136788E-14  0.35527136788E-14  0.91188000000E+02  0.91188000000E+02 0.  0.
    9900012    2    3    3    0    0 -0.23650585993E+02  0.20060763128E+02  0.19849313233E+02  0.54367086501E+02  0.40000005296E+02 0.  0.
         12    1    3    3    0    0  0.23650585993E+02 -0.20060763128E+02 -0.19849313233E+02  0.36820913499E+02  0.00000000000E+00 0. -1.
         11    1    4    4    0    0 -0.36048333773E+01  0.46899865640E+01  0.13995915459E+01  0.60786227392E+01  0.51100000000E-03 0. -1.
        -11    1    4    4    0    0 -0.23691035082E+02  0.24255650045E+02  0.96235543934E+01  0.35245063509E+02  0.51100000000E-03 0.  1.
         12    1    4    4    0    0  0.36452824660E+01 -0.88848734814E+01  0.88261672939E+01  0.13043400252E+02  0.00000000000E+00 0. -1.
</event>
<event>
 8    1  0.2504019E-006  0.9118800E+02  0.7816164E-02  0.1184000E+00
        -11   -1    0    0    0    0  0.00000000000E+00  0.00000000000E+00  0.45593999997E+02  0.45594000000E+02  0.51100000000E-03 0.  1.
         11   -1    0    0    0    0 -0.00000000000E+00 -0.00000000000E+00 -0.45593999997E+02  0.45594000000E+02  0.51100000000E-03 0. -1.
         23    2    1    2    0    0  0.00000000000E+00  0.00000000000E+00 -0.35527136788E-14  0.91188000000E+02  0.91188000000E+02 0.  0.
    9900012    2    3    3    0    0  0.25154157823E+02  0.20279676910E+02  0.17657379435E+02  0.54367082034E+02  0.39999995113E+02 0.  0.
         12    1    3    3    0    0 -0.25154157823E+02 -0.20279676910E+02 -0.17657379435E+02  0.36820917966E+02  0.00000000000E+00 0. -1.
         11    1    4    4    0    0  0.15691807830E+01  0.19473994985E+02  0.13658546172E+02  0.23838093313E+02  0.51100000000E-03 0. -1.
        -11    1    4    4    0    0  0.10504179951E+02  0.59369245442E+01 -0.58109358346E+01  0.13392230771E+02  0.51100000000E-03 0.  1.
        -12    1    4    4    0    0  0.13080797089E+02 -0.51312426188E+01  0.98097690968E+01  0.17136757950E+02  0.00000000000E+00 0.  1.
</event>
<event>
 8    1  0.2504019E-006  0.9118800E+02  0.7816164E-02  0.1184000E+00
        -11   -1    0    0    0    0  0.00000000000E+00  0.00000000000E+00  0.45593999997E+02  0.45594000000E+02  0.51100000000E-03 0. -1.
         11   -1    0    0    0    0 -0.00000000000E+00 -0.00000000000E+00 -0.45593999997E+02  0.45594000000E+02  0.51100000000E-03 0.  1.
         23    2    1    2    0    0  0.00000000000E+00  0.00000000000E+00  0.35527136788E-14  0.91188000000E+02  0.91188000000E+02 0.  0.
    9900012    2    3    3    0    0  0.22129101494E+02  0.15063179227E+02  0.25282096586E+02  0.54367069687E+02  0.39999966965E+02 0.  0.
        -12    1    3    3    0    0 -0.22129101494E+02 -0.15063179227E+02 -0.25282096586E+02  0.36820930313E+02  0.00000000000E+00 0.  1.
         11    1    4    4    0    0  0.33413270905E+01  0.15999620637E+02  0.12279363263E+02  0.20443460805E+02  0.51100000000E-03 0. -1.
        -11    1    4    4    0    0  0.10464473843E+02  0.11517816275E+02  0.28312496988E+01  0.15817119829E+02  0.51100000000E-03 0.  1.
        -12    1    4    4    0    0  0.83233005601E+01 -0.12454257686E+02  0.10171483624E+02  0.18106489053E+02  0.00000000000E+00 0.  1.
</event>
<event>
 8    1  0.2504019E-006  0.9118800E+02  0.7816164E-02  0.1184000E+00
        -11   -1    0    0    0    0  0.00000000000E+00  0.00000000000E+00  0.45593999997E+02  0.45594000000E+02  0.51100000000E-03 0.  1.
         11   -1    0    0    0    0 -0.00000000000E+00 -0.00000000000E+00 -0.45593999997E+02  0.45594000000E+02  0.51100000000E-03 0. -1.
         23    2    1    2    0    0  0.00000000000E+00 -0.88817841970E-15  0.00000000000E+00  0.91188000000E+02  0.91188000000E+02 0.  0.
    9900012    2    3    3    0    0  0.33088919879E+02  0.63031652593E+01 -0.14871916136E+02  0.54367076592E+02  0.39999982707E+02 0.  0.
        -12    1    3    3    0    0 -0.33088919879E+02 -0.63031652593E+01  0.14871916136E+02  0.36820923408E+02  0.00000000000E+00 0.  1.
         11    1    4    4    0    0  0.11868909185E+02  0.10296431819E+02  0.52586112282E+01  0.16569263887E+02  0.51100000000E-03 0. -1.
        -11    1    4    4    0    0 -0.17209288833E+01  0.47494744579E+01  0.12927096803E+01  0.52144225400E+01  0.51100000000E-03 0.  1.
        -12    1    4    4    0    0  0.22940939578E+02 -0.87427410177E+01 -0.21423237044E+02  0.32583390165E+02  0.00000000000E+00 0.  1.
</event>
<event>
 8    1  0.2504019E-006  0.9118800E+02  0.7816164E-02  0.1184000E+00
        -11   -1    0    0    0    0  0.00000000000E+00  0.00000000000E+00  0.45593999997E+02  0.45594000000E+02  0.51100000000E-03 0. -1.
         11   -1    0    0    0    0 -0.00000000000E+00 -0.00000000000E+00 -0.45593999997E+02  0.45594000000E+02  0.51100000000E-03 0.  1.
         23    2    1    2    0    0 -0.35527136788E-14  0.17763568394E-14  0.35527136788E-14  0.91188000000E+02  0.91188000000E+02 0.  0.
    9900012    2    3    3    0    0 -0.27480089222E+02  0.13198703711E+02  0.20649998315E+02  0.54367034319E+02  0.39999886338E+02 0.  0.
        -12    1    3    3    0    0  0.27480089222E+02 -0.13198703711E+02 -0.20649998315E+02  0.36820965681E+02  0.00000000000E+00 0.  1.
         11    1    4    4    0    0 -0.31830804431E+02  0.76943830362E+01  0.20625991519E+01  0.32812466481E+02  0.51100000000E-03 0. -1.
        -11    1    4    4    0    0  0.10887686688E+01  0.25924805479E-01 -0.66349252657E+00  0.12752693455E+01  0.51100000000E-03 0.  1.
         12    1    4    4    0    0  0.32619465407E+01  0.54783958689E+01  0.19250891689E+02  0.20279298493E+02  0.00000000000E+00 0. -1.
</event>
<event>
 8    1  0.2504019E-006  0.9118800E+02  0.7816164E-02  0.1184000E+00
        -11   -1    0    0    0    0  0.00000000000E+00  0.00000000000E+00  0.45593999997E+02  0.45594000000E+02  0.51100000000E-03 0.  1.
         11   -1    0    0    0    0 -0.00000000000E+00 -0.00000000000E+00 -0.45593999997E+02  0.45594000000E+02  0.51100000000E-03 0. -1.
         23    2    1    2    0    0  0.17763568394E-14  0.00000000000E+00  0.88817841970E-15  0.91188000000E+02  0.91188000000E+02 0.  0.
    9900012    2    3    3    0    0 -0.10401004616E+02 -0.35183721346E+02 -0.31151227705E+01  0.54367093783E+02  0.40000021897E+02 0.  0.
        -12    1    3    3    0    0  0.10401004616E+02  0.35183721346E+02  0.31151227705E+01  0.36820906217E+02  0.00000000000E+00 0.  1.
         11    1    4    4    0    0  0.58853027092E+01 -0.12942130748E+02  0.85806249317E+01  0.16606103118E+02  0.51100000000E-03 0.  1.
        -11    1    4    4    0    0 -0.11831644246E+01 -0.20655070338E+02 -0.74917485544E+01  0.22003593011E+02  0.51100000000E-03 0. -1.
        -12    1    4    4    0    0 -0.15103142900E+02 -0.15865202599E+01 -0.42039991478E+01  0.15757397654E+02  0.00000000000E+00 0.  1.
</event>
<event>
 8    1  0.2504019E-006  0.9118800E+02  0.7816164E-02  0.1184000E+00
        -11   -1    0    0    0    0  0.00000000000E+00  0.00000000000E+00  0.45593999997E+02  0.45594000000E+02  0.51100000000E-03 0. -1.
         11   -1    0    0    0    0 -0.00000000000E+00 -0.00000000000E+00 -0.45593999997E+02  0.45594000000E+02  0.51100000000E-03 0.  1.
         23    2    1    2    0    0 -0.35527136788E-14  0.17763568394E-14  0.00000000000E+00  0.91188000000E+02  0.91188000000E+02 0.  0.
    9900012    2    3    3    0    0 -0.30129917264E+02  0.41383292929E+01 -0.20756766237E+02  0.54367068069E+02  0.39999963276E+02 0.  0.
         12    1    3    3    0    0  0.30129917264E+02 -0.41383292929E+01  0.20756766237E+02  0.36820931931E+02  0.00000000000E+00 0. -1.
         11    1    4    4    0    0 -0.17982354338E+02 -0.10459093336E+02 -0.65898441923E+01  0.21821634853E+02  0.51100000000E-03 0. -1.
        -11    1    4    4    0    0 -0.12534948986E+02 -0.17617945883E+01 -0.39766861738E+01  0.13268115897E+02  0.51100000000E-03 0.  1.
         12    1    4    4    0    0  0.38738605950E+00  0.16359217217E+02 -0.10190235870E+02  0.19277317319E+02  0.00000000000E+00 0. -1.
</event>
<event>
 8    1  0.2504019E-006  0.9118800E+02  0.7816164E-02  0.1184000E+00
        -11   -1    0    0    0    0  0.00000000000E+00  0.00000000000E+00  0.45593999997E+02  0.45594000000E+02  0.51100000000E-03 0. -1.
         11   -1    0    0    0    0 -0.00000000000E+00 -0.00000000000E+00 -0.45593999997E+02  0.45594000000E+02  0.51100000000E-03 0.  1.
         23    2    1    2    0    0 -0.35527136788E-14  0.00000000000E+00  0.00000000000E+00  0.91188000000E+02  0.91188000000E+02 0.  0.
    9900012    2    3    3    0    0  0.16534483766E+02 -0.18720846607E+02 -0.27054131482E+02  0.54367010315E+02  0.39999831615E+02 0.  0.
         12    1    3    3    0    0 -0.16534483766E+02  0.18720846607E+02  0.27054131482E+02  0.36820989685E+02  0.00000000000E+00 0. -1.
         11    1    4    4    0    0 -0.23460253367E+01  0.11450935552E+01 -0.11663625950E+01  0.28592789466E+01  0.51100000000E-03 0. -1.
        -11    1    4    4    0    0  0.18108446162E+02 -0.18319712840E+01 -0.27935326986E+02  0.33341482200E+02  0.51100000000E-03 0.  1.
         12    1    4    4    0    0  0.77206294082E+00 -0.18033968879E+02  0.20475580988E+01  0.18166249169E+02  0.00000000000E+00 0. -1.
</event>
<event>
 8    1  0.2504019E-006  0.9118800E+02  0.7816164E-02  0.1184000E+00
        -11   -1    0    0    0    0  0.00000000000E+00  0.00000000000E+00  0.45593999997E+02  0.45594000000E+02  0.51100000000E-03 0. -1.
         11   -1    0    0    0    0 -0.00000000000E+00 -0.00000000000E+00 -0.45593999997E+02  0.45594000000E+02  0.51100000000E-03 0.  1.
         23    2    1    2    0    0  0.00000000000E+00 -0.88817841970E-15 -0.17763568394E-14  0.91188000000E+02  0.91188000000E+02 0.  0.
    9900012    2    3    3    0    0  0.36302143613E+02  0.26544162788E+01  0.55569714684E+01  0.54367197611E+02  0.40000258592E+02 0.  0.
        -12    1    3    3    0    0 -0.36302143613E+02 -0.26544162788E+01 -0.55569714684E+01  0.36820802389E+02  0.00000000000E+00 0.  1.
         11    1    4    4    0    0  0.29425592287E+02  0.15625168864E+02 -0.67426960327E+01  0.33992283440E+02  0.51100000000E-03 0. -1.
        -11    1    4    4    0    0  0.16971842104E+01 -0.40019005565E+00 -0.37936739480E+00  0.17845184801E+01  0.51100000000E-03 0.  1.
        -12    1    4    4    0    0  0.51793671161E+01 -0.12570562529E+02  0.12679034896E+02  0.18590395690E+02  0.00000000000E+00 0.  1.
</event>
<event>
 8    1  0.2504019E-006  0.9118800E+02  0.7816164E-02  0.1184000E+00
        -11   -1    0    0    0    0  0.00000000000E+00  0.00000000000E+00  0.45593999997E+02  0.45594000000E+02  0.51100000000E-03 0. -1.
         11   -1    0    0    0    0 -0.00000000000E+00 -0.00000000000E+00 -0.45593999997E+02  0.45594000000E+02  0.51100000000E-03 0.  1.
         23    2    1    2    0    0  0.17763568394E-14  0.35527136788E-14  0.00000000000E+00  0.91188000000E+02  0.91188000000E+02 0.  0.
    9900012    2    3    3    0    0  0.59756196037E+01 -0.22599642492E+02  0.28448696561E+02  0.54367079229E+02  0.39999988718E+02 0.  0.
        -12    1    3    3    0    0 -0.59756196037E+01  0.22599642492E+02 -0.28448696561E+02  0.36820920771E+02  0.00000000000E+00 0.  1.
         11    1    4    4    0    0  0.37176245083E+01  0.29802714820E+01  0.91250428749E+01  0.10294132203E+02  0.51100000000E-03 0. -1.
        -11    1    4    4    0    0  0.15370955369E+02 -0.19802543278E+02  0.10067469811E+02  0.27014087766E+02  0.51100000000E-03 0.  1.
        -12    1    4    4    0    0 -0.13112960273E+02 -0.57773706962E+01  0.92561838756E+01  0.17058859259E+02  0.00000000000E+00 0.  1.
</event>
<event>
 8    1  0.2504019E-006  0.9118800E+02  0.7816164E-02  0.1184000E+00
        -11   -1    0    0    0    0  0.00000000000E+00  0.00000000000E+00  0.45593999997E+02  0.45594000000E+02  0.51100000000E-03 0.  1.
         11   -1    0    0    0    0 -0.00000000000E+00 -0.00000000000E+00 -0.45593999997E+02  0.45594000000E+02  0.51100000000E-03 0. -1.
         23    2    1    2    0    0  0.00000000000E+00 -0.17763568394E-14  0.66613381478E-15  0.91188000000E+02  0.91188000000E+02 0.  0.
    9900012    2    3    3    0    0  0.36057487980E+02 -0.73761725190E+01 -0.11095318912E+01  0.54367062730E+02  0.39999951105E+02 0.  0.
        -12    1    3    3    0    0 -0.36057487980E+02  0.73761725190E+01  0.11095318912E+01  0.36820937270E+02  0.00000000000E+00 0.  1.
         11    1    4    4    0    0  0.25271724606E+02 -0.43464078442E+01  0.82331803715E+01  0.26932073537E+02  0.51100000000E-03 0. -1.
        -11    1    4    4    0    0  0.11788658851E+02  0.39553623596E+01 -0.14194958996E+02  0.18870989112E+02  0.51100000000E-03 0.  1.
        -12    1    4    4    0    0 -0.10028954773E+01 -0.69851270344E+01  0.48522467333E+01  0.85640000809E+01  0.00000000000E+00 0.  1.
</event>
<event>
 8    1  0.2504019E-006  0.9118800E+02  0.7816164E-02  0.1184000E+00
        -11   -1    0    0    0    0  0.00000000000E+00  0.00000000000E+00  0.45593999997E+02  0.45594000000E+02  0.51100000000E-03 0.  1.
         11   -1    0    0    0    0 -0.00000000000E+00 -0.00000000000E+00 -0.45593999997E+02  0.45594000000E+02  0.51100000000E-03 0. -1.
         23    2    1    2    0    0  0.88817841970E-15  0.00000000000E+00  0.35527136788E-14  0.91188000000E+02  0.91188000000E+02 0.  0.
    9900012    2    3    3    0    0  0.59046442811E+01  0.18770988285E+02  0.31121789980E+02  0.54367073384E+02  0.39999975394E+02 0.  0.
         12    1    3    3    0    0 -0.59046442811E+01 -0.18770988285E+02 -0.31121789980E+02  0.36820926616E+02  0.00000000000E+00 0. -1.
         11    1    4    4    0    0 -0.24128043415E+01 -0.86783840994E+01  0.61829725074E+01  0.10925434758E+02  0.51100000000E-03 0. -1.
        -11    1    4    4    0    0 -0.69570666841E+01  0.91431527031E+01  0.10527005510E+02  0.15582549967E+02  0.51100000000E-03 0.  1.
        -12    1    4    4    0    0  0.15274515307E+02  0.18306219681E+02  0.14411811962E+02  0.27859088659E+02  0.00000000000E+00 0.  1.
</event>
<event>
 8    1  0.2504019E-006  0.9118800E+02  0.7816164E-02  0.1184000E+00
        -11   -1    0    0    0    0  0.00000000000E+00  0.00000000000E+00  0.45593999997E+02  0.45594000000E+02  0.51100000000E-03 0.  1.
         11   -1    0    0    0    0 -0.00000000000E+00 -0.00000000000E+00 -0.45593999997E+02  0.45594000000E+02  0.51100000000E-03 0. -1.
         23    2    1    2    0    0  0.00000000000E+00 -0.88817841970E-15  0.00000000000E+00  0.91188000000E+02  0.91188000000E+02 0.  0.
    9900012    2    3    3    0    0  0.75671684821E+01  0.48100998941E+01 -0.35712413246E+02  0.54367142328E+02  0.40000132565E+02 0.  0.
        -12    1    3    3    0    0 -0.75671684821E+01 -0.48100998941E+01  0.35712413246E+02  0.36820857672E+02  0.00000000000E+00 0.  1.
         11    1    4    4    0    0  0.10547680646E+02 -0.37355342551E+01 -0.16508754123E+02  0.19943589099E+02  0.51100000000E-03 0. -1.
        -11    1    4    4    0    0 -0.12384271082E+01 -0.97869709079E+01 -0.44271627218E+01  0.10812875255E+02  0.51100000000E-03 0.  1.
        -12    1    4    4    0    0 -0.17420850552E+01  0.18332605057E+02 -0.14776496401E+02  0.23610677974E+02  0.00000000000E+00 0.  1.
</event>
<event>
 8    1  0.2504019E-006  0.9118800E+02  0.7816164E-02  0.1184000E+00
        -11   -1    0    0    0    0  0.00000000000E+00  0.00000000000E+00  0.45593999997E+02  0.45594000000E+02  0.51100000000E-03 0.  1.
         11   -1    0    0    0    0 -0.00000000000E+00 -0.00000000000E+00 -0.45593999997E+02  0.45594000000E+02  0.51100000000E-03 0. -1.
         23    2    1    2    0    0 -0.17763568394E-14  0.00000000000E+00 -0.88817841970E-15  0.91188000000E+02  0.91188000000E+02 0.  0.
    9900012    2    3    3    0    0 -0.57743443106E+01  0.35850666018E+02  0.60964127352E+01  0.54367088083E+02  0.40000008903E+02 0.  0.
         12    1    3    3    0    0  0.57743443106E+01 -0.35850666018E+02 -0.60964127352E+01  0.36820911917E+02  0.00000000000E+00 0. -1.
         11    1    4    4    0    0 -0.18798577066E+00  0.87976413253E+01  0.46138164729E+01  0.99358509573E+01  0.51100000000E-03 0. -1.
        -11    1    4    4    0    0 -0.16567190630E+02  0.24130196033E+02  0.92153885636E+01  0.30686504405E+02  0.51100000000E-03 0.  1.
         12    1    4    4    0    0  0.10980832091E+02  0.29228286597E+01 -0.77327923013E+01  0.13744732720E+02  0.00000000000E+00 0. -1.
</event>
<event>
 8    1  0.2504019E-006  0.9118800E+02  0.7816164E-02  0.1184000E+00
        -11   -1    0    0    0    0  0.00000000000E+00  0.00000000000E+00  0.45593999997E+02  0.45594000000E+02  0.51100000000E-03 0.  1.
         11   -1    0    0    0    0 -0.00000000000E+00 -0.00000000000E+00 -0.45593999997E+02  0.45594000000E+02  0.51100000000E-03 0. -1.
         23    2    1    2    0    0 -0.88817841970E-15  0.35527136788E-14  0.00000000000E+00  0.91188000000E+02  0.91188000000E+02 0.  0.
    9900012    2    3    3    0    0 -0.71944354961E+01 -0.28160172421E+02  0.22605831164E+02  0.54367098117E+02  0.40000031777E+02 0.  0.
         12    1    3    3    0    0  0.71944354961E+01  0.28160172421E+02 -0.22605831164E+02  0.36820901883E+02  0.00000000000E+00 0. -1.
         11    1    4    4    0    0 -0.40324432613E+01 -0.12791951659E+02 -0.63403108780E+01  0.14835571044E+02  0.51100000000E-03 0. -1.
        -11    1    4    4    0    0 -0.10474092004E+02 -0.13694879374E+02  0.26550178586E+02  0.31657041991E+02  0.51100000000E-03 0.  1.
        -12    1    4    4    0    0  0.73120997690E+01 -0.16733413877E+01  0.23959634562E+01  0.78744850826E+01  0.00000000000E+00 0.  1.
</event>
<event>
 8    1  0.2504019E-006  0.9118800E+02  0.7816164E-02  0.1184000E+00
        -11   -1    0    0    0    0  0.00000000000E+00  0.00000000000E+00  0.45593999997E+02  0.45594000000E+02  0.51100000000E-03 0.  1.
         11   -1    0    0    0    0 -0.00000000000E+00 -0.00000000000E+00 -0.45593999997E+02  0.45594000000E+02  0.51100000000E-03 0. -1.
         23    2    1    2    0    0  0.00000000000E+00  0.26645352591E-14  0.35527136788E-14  0.91188000000E+02  0.91188000000E+02 0.  0.
    9900012    2    3    3    0    0 -0.27153010090E+02 -0.49969398353E+01  0.24362353173E+02  0.54367087235E+02  0.40000006971E+02 0.  0.
         12    1    3    3    0    0  0.27153010090E+02  0.49969398353E+01 -0.24362353173E+02  0.36820912765E+02  0.00000000000E+00 0. -1.
         11    1    4    4    0    0 -0.66486133192E+01 -0.48895612248E+01  0.20063800231E+01  0.84933756009E+01  0.51100000000E-03 0. -1.
        -11    1    4    4    0    0 -0.17182443384E+02 -0.13146385533E+02  0.23476227511E+01  0.21761781776E+02  0.51100000000E-03 0.  1.
        -12    1    4    4    0    0 -0.33219533868E+01  0.13039006922E+02  0.20008350399E+02  0.24111929859E+02  0.00000000000E+00 0.  1.
</event>
<event>
 8    1  0.2504019E-006  0.9118800E+02  0.7816164E-02  0.1184000E+00
        -11   -1    0    0    0    0  0.00000000000E+00  0.00000000000E+00  0.45593999997E+02  0.45594000000E+02  0.51100000000E-03 0. -1.
         11   -1    0    0    0    0 -0.00000000000E+00 -0.00000000000E+00 -0.45593999997E+02  0.45594000000E+02  0.51100000000E-03 0.  1.
         23    2    1    2    0    0 -0.35527136788E-14 -0.35527136788E-14  0.00000000000E+00  0.91188000000E+02  0.91188000000E+02 0.  0.
    9900012    2    3    3    0    0 -0.27185822592E+02  0.18716541596E+02  0.16321758210E+02  0.54367113667E+02  0.40000067226E+02 0.  0.
        -12    1    3    3    0    0  0.27185822592E+02 -0.18716541596E+02 -0.16321758210E+02  0.36820886333E+02  0.00000000000E+00 0.  1.
         11    1    4    4    0    0  0.11808634133E+01  0.14112333927E+02  0.96699735072E+01  0.17148200931E+02  0.51100000000E-03 0.  1.
        -11    1    4    4    0    0 -0.11528835204E+02  0.29003152104E+01  0.14343130262E+02  0.18629311728E+02  0.51100000000E-03 0. -1.
        -12    1    4    4    0    0 -0.16837850801E+02  0.17038924583E+01 -0.76913455601E+01  0.18589601008E+02  0.00000000000E+00 0.  1.
</event>
<event>
 8    1  0.2504019E-006  0.9118800E+02  0.7816164E-02  0.1184000E+00
        -11   -1    0    0    0    0  0.00000000000E+00  0.00000000000E+00  0.45593999997E+02  0.45594000000E+02  0.51100000000E-03 0. -1.
         11   -1    0    0    0    0 -0.00000000000E+00 -0.00000000000E+00 -0.45593999997E+02  0.45594000000E+02  0.51100000000E-03 0.  1.
         23    2    1    2    0    0  0.35527136788E-14  0.00000000000E+00  0.35527136788E-14  0.91188000000E+02  0.91188000000E+02 0.  0.
    9900012    2    3    3    0    0  0.22574322424E+02  0.93823354071E+01 -0.27534549446E+02  0.54367086598E+02  0.40000005516E+02 0.  0.
         12    1    3    3    0    0 -0.22574322424E+02 -0.93823354071E+01  0.27534549446E+02  0.36820913402E+02  0.00000000000E+00 0. -1.
         11    1    4    4    0    0  0.47537644248E+01  0.95564958192E+01  0.33308527432E+01  0.11181210525E+02  0.51100000000E-03 0. -1.
        -11    1    4    4    0    0 -0.46376935753E+01 -0.10227050860E+01 -0.14844920033E+02  0.15586076429E+02  0.51100000000E-03 0.  1.
        -12    1    4    4    0    0  0.22458251575E+02  0.84854467381E+00 -0.16020482156E+02  0.27599799644E+02  0.00000000000E+00 0.  1.
</event>
<event>
 8    1  0.2504019E-006  0.9118800E+02  0.7816164E-02  0.1184000E+00
        -11   -1    0    0    0    0  0.00000000000E+00  0.00000000000E+00  0.45593999997E+02  0.45594000000E+02  0.51100000000E-03 0. -1.
         11   -1    0    0    0    0 -0.00000000000E+00 -0.00000000000E+00 -0.45593999997E+02  0.45594000000E+02  0.51100000000E-03 0.  1.
         23    2    1    2    0    0  0.00000000000E+00 -0.17763568394E-14  0.00000000000E+00  0.91188000000E+02  0.91188000000E+02 0.  0.
    9900012    2    3    3    0    0 -0.35586248940E+02  0.75962578916E+01  0.56299037969E+01  0.54367081158E+02  0.39999993117E+02 0.  0.
        -12    1    3    3    0    0  0.35586248940E+02 -0.75962578916E+01 -0.56299037969E+01  0.36820918842E+02  0.00000000000E+00 0.  1.
         11    1    4    4    0    0 -0.26740202347E+01 -0.36335121406E+01  0.90476219144E+01  0.10110007777E+02  0.51100000000E-03 0. -1.
        -11    1    4    4    0    0 -0.77468075336E+01 -0.89661197631E+01 -0.13027170176E+01  0.11920629281E+02  0.51100000000E-03 0.  1.
        -12    1    4    4    0    0 -0.25165421172E+02  0.20195889795E+02 -0.21150010999E+01  0.32336444100E+02  0.00000000000E+00 0.  1.
</event>
<event>
 8    1  0.2504019E-006  0.9118800E+02  0.7816164E-02  0.1184000E+00
        -11   -1    0    0    0    0  0.00000000000E+00  0.00000000000E+00  0.45593999997E+02  0.45594000000E+02  0.51100000000E-03 0.  1.
         11   -1    0    0    0    0 -0.00000000000E+00 -0.00000000000E+00 -0.45593999997E+02  0.45594000000E+02  0.51100000000E-03 0. -1.
         23    2    1    2    0    0  0.00000000000E+00  0.00000000000E+00  0.71054273576E-14  0.91188000000E+02  0.91188000000E+02 0.  0.
    9900012    2    3    3    0    0  0.21154578891E+02 -0.90335438275E+01  0.28751663170E+02  0.54367092119E+02  0.40000018104E+02 0.  0.
         12    1    3    3    0    0 -0.21154578891E+02  0.90335438275E+01 -0.28751663170E+02  0.36820907881E+02  0.00000000000E+00 0. -1.
         11    1    4    4    0    0  0.63621580494E+01 -0.73133565257E+00 -0.75531257579E+01  0.99026065184E+01  0.51100000000E-03 0. -1.
        -11    1    4    4    0    0 -0.16849533313E+01 -0.56490319406E+01  0.18468360821E+01  0.61774941011E+01  0.51100000000E-03 0.  1.
        -12    1    4    4    0    0  0.16477374173E+02 -0.26531762344E+01  0.34457952846E+02  0.38286991500E+02  0.00000000000E+00 0.  1.
</event>
<event>
 8    1  0.2504019E-006  0.9118800E+02  0.7816164E-02  0.1184000E+00
        -11   -1    0    0    0    0  0.00000000000E+00  0.00000000000E+00  0.45593999997E+02  0.45594000000E+02  0.51100000000E-03 0.  1.
         11   -1    0    0    0    0 -0.00000000000E+00 -0.00000000000E+00 -0.45593999997E+02  0.45594000000E+02  0.51100000000E-03 0. -1.
         23    2    1    2    0    0  0.00000000000E+00  0.17763568394E-14 -0.35527136788E-14  0.91188000000E+02  0.91188000000E+02 0.  0.
    9900012    2    3    3    0    0 -0.19773302267E+02  0.20934758470E+01 -0.30990545111E+02  0.54367081897E+02  0.39999994801E+02 0.  0.
        -12    1    3    3    0    0  0.19773302267E+02 -0.20934758470E+01  0.30990545111E+02  0.36820918103E+02  0.00000000000E+00 0.  1.
         11    1    4    4    0    0 -0.20934533738E+02 -0.10473446218E+02 -0.15052903968E+02  0.27830517362E+02  0.51100000000E-03 0. -1.
        -11    1    4    4    0    0  0.34376247570E+01  0.14399486762E+01  0.27752200097E+01  0.46467798015E+01  0.51100000000E-03 0.  1.
         12    1    4    4    0    0 -0.22763932861E+01  0.11126973389E+02 -0.18712861152E+02  0.21889784734E+02  0.00000000000E+00 0. -1.
</event>
<event>
 8    1  0.2504019E-006  0.9118800E+02  0.7816164E-02  0.1184000E+00
        -11   -1    0    0    0    0  0.00000000000E+00  0.00000000000E+00  0.45593999997E+02  0.45594000000E+02  0.51100000000E-03 0. -1.
         11   -1    0    0    0    0 -0.00000000000E+00 -0.00000000000E+00 -0.45593999997E+02  0.45594000000E+02  0.51100000000E-03 0.  1.
         23    2    1    2    0    0 -0.22204460493E-15  0.00000000000E+00 -0.17763568394E-14  0.91188000000E+02  0.91188000000E+02 0.  0.
    9900012    2    3    3    0    0 -0.11274443809E+01 -0.34051952679E+02 -0.13963366352E+02  0.54367051995E+02  0.39999926634E+02 0.  0.
         12    1    3    3    0    0  0.11274443809E+01  0.34051952679E+02  0.13963366352E+02  0.36820948005E+02  0.00000000000E+00 0. -1.
         11    1    4    4    0    0  0.49061231156E+01 -0.15507240327E+02  0.57103593589E+01  0.17238119122E+02  0.51100000000E-03 0. -1.
        -11    1    4    4    0    0 -0.51308786013E+01  0.24794363543E+00 -0.17442005975E+02  0.18182710578E+02  0.51100000000E-03 0.  1.
        -12    1    4    4    0    0 -0.90268889515E+00 -0.18792655987E+02 -0.22317197360E+01  0.18946222295E+02  0.00000000000E+00 0.  1.
</event>
<event>
 8    1  0.2504019E-006  0.9118800E+02  0.7816164E-02  0.1184000E+00
        -11   -1    0    0    0    0  0.00000000000E+00  0.00000000000E+00  0.45593999997E+02  0.45594000000E+02  0.51100000000E-03 0.  1.
         11   -1    0    0    0    0 -0.00000000000E+00 -0.00000000000E+00 -0.45593999997E+02  0.45594000000E+02  0.51100000000E-03 0. -1.
         23    2    1    2    0    0  0.00000000000E+00  0.00000000000E+00  0.35527136788E-14  0.91188000000E+02  0.91188000000E+02 0.  0.
    9900012    2    3    3    0    0  0.24201941974E+02 -0.13160859418E+02  0.24430298489E+02  0.54367058945E+02  0.39999942476E+02 0.  0.
         12    1    3    3    0    0 -0.24201941974E+02  0.13160859418E+02 -0.24430298489E+02  0.36820941055E+02  0.00000000000E+00 0. -1.
         11    1    4    4    0    0  0.27794359953E+01 -0.57921056753E+00  0.17041671782E+02  0.17276554249E+02  0.51100000000E-03 0. -1.
        -11    1    4    4    0    0  0.18634264882E+02 -0.19224275700E+02  0.30793199800E-02  0.26773281712E+02  0.51100000000E-03 0.  1.
        -12    1    4    4    0    0  0.27882410970E+01  0.66426268498E+01  0.73855473871E+01  0.10317222983E+02  0.00000000000E+00 0.  1.
</event>
<event>
 8    1  0.2504019E-006  0.9118800E+02  0.7816164E-02  0.1184000E+00
        -11   -1    0    0    0    0  0.00000000000E+00  0.00000000000E+00  0.45593999997E+02  0.45594000000E+02  0.51100000000E-03 0.  1.
         11   -1    0    0    0    0 -0.00000000000E+00 -0.00000000000E+00 -0.45593999997E+02  0.45594000000E+02  0.51100000000E-03 0. -1.
         23    2    1    2    0    0 -0.17763568394E-14  0.39968028887E-14  0.00000000000E+00  0.91188000000E+02  0.91188000000E+02 0.  0.
    9900012    2    3    3    0    0  0.97508677703E+01  0.37558248067E+01  0.35307161561E+02  0.54367064382E+02  0.39999954872E+02 0.  0.
         12    1    3    3    0    0 -0.97508677703E+01 -0.37558248067E+01 -0.35307161561E+02  0.36820935618E+02  0.00000000000E+00 0. -1.
         11    1    4    4    0    0  0.54399838257E+01  0.16487516224E+02  0.13294127672E+02  0.21866994446E+02  0.51100000000E-03 0. -1.
        -11    1    4    4    0    0  0.62290848977E+01 -0.14298695866E+01  0.19824956898E+02  0.20829664951E+02  0.51100000000E-03 0.  1.
         12    1    4    4    0    0 -0.19182009532E+01 -0.11301821831E+02  0.21880769910E+01  0.11670404985E+02  0.00000000000E+00 0. -1.
</event>
<event>
 8    1  0.2504019E-006  0.9118800E+02  0.7816164E-02  0.1184000E+00
        -11   -1    0    0    0    0  0.00000000000E+00  0.00000000000E+00  0.45593999997E+02  0.45594000000E+02  0.51100000000E-03 0.  1.
         11   -1    0    0    0    0 -0.00000000000E+00 -0.00000000000E+00 -0.45593999997E+02  0.45594000000E+02  0.51100000000E-03 0. -1.
         23    2    1    2    0    0 -0.17763568394E-14  0.17763568394E-14 -0.35527136788E-14  0.91188000000E+02  0.91188000000E+02 0.  0.
    9900012    2    3    3    0    0  0.13495605359E+02 -0.13757605256E+02  0.31374879660E+02  0.54366998654E+02  0.39999805032E+02 0.  0.
         12    1    3    3    0    0 -0.13495605359E+02  0.13757605256E+02 -0.31374879660E+02  0.36821001346E+02  0.00000000000E+00 0. -1.
         11    1    4    4    0    0  0.57285826438E+01  0.10249655917E+01 -0.18998630611E+01  0.61218210921E+01  0.51100000000E-03 0. -1.
        -11    1    4    4    0    0  0.51368871651E+01 -0.21910330030E+02  0.11684169958E+02  0.25356853110E+02  0.51100000000E-03 0.  1.
        -12    1    4    4    0    0  0.26301355502E+01  0.71277591827E+01  0.21590572763E+02  0.22888324452E+02  0.00000000000E+00 0.  1.
</event>
<event>
 8    1  0.2504019E-006  0.9118800E+02  0.7816164E-02  0.1184000E+00
        -11   -1    0    0    0    0  0.00000000000E+00  0.00000000000E+00  0.45593999997E+02  0.45594000000E+02  0.51100000000E-03 0.  1.
         11   -1    0    0    0    0 -0.00000000000E+00 -0.00000000000E+00 -0.45593999997E+02  0.45594000000E+02  0.51100000000E-03 0. -1.
         23    2    1    2    0    0  0.00000000000E+00  0.00000000000E+00  0.00000000000E+00  0.91188000000E+02  0.91188000000E+02 0.  0.
    9900012    2    3    3    0    0 -0.18128760323E+02  0.21318749282E+02 -0.23929845585E+02  0.54367101973E+02  0.40000040568E+02 0.  0.
        -12    1    3    3    0    0  0.18128760323E+02 -0.21318749282E+02  0.23929845585E+02  0.36820898027E+02  0.00000000000E+00 0.  1.
         11    1    4    4    0    0  0.54362731109E+01 -0.28665338061E+00 -0.12068018425E+02  0.13239044696E+02  0.51100000000E-03 0. -1.
        -11    1    4    4    0    0 -0.16734955990E+02  0.39252024699E+01 -0.13844315884E+02  0.22071045489E+02  0.51100000000E-03 0.  1.
        -12    1    4    4    0    0 -0.68300774442E+01  0.17680200193E+02  0.19824887243E+01  0.19057011788E+02  0.00000000000E+00 0.  1.
</event>
<event>
 8    1  0.2504019E-006  0.9118800E+02  0.7816164E-02  0.1184000E+00
        -11   -1    0    0    0    0  0.00000000000E+00  0.00000000000E+00  0.45593999997E+02  0.45594000000E+02  0.51100000000E-03 0.  1.
         11   -1    0    0    0    0 -0.00000000000E+00 -0.00000000000E+00 -0.45593999997E+02  0.45594000000E+02  0.51100000000E-03 0. -1.
         23    2    1    2    0    0  0.00000000000E+00  0.00000000000E+00  0.00000000000E+00  0.91188000000E+02  0.91188000000E+02 0.  0.
    9900012    2    3    3    0    0  0.11561543334E+02 -0.27625547548E+02 -0.21422821198E+02  0.54367116935E+02  0.40000074677E+02 0.  0.
        -12    1    3    3    0    0 -0.11561543334E+02  0.27625547548E+02  0.21422821198E+02  0.36820883065E+02  0.00000000000E+00 0.  1.
         11    1    4    4    0    0 -0.24819935203E+01 -0.10984496393E+02 -0.17241043354E+02  0.20593033508E+02  0.51100000000E-03 0. -1.
        -11    1    4    4    0    0  0.15358717819E+02 -0.13779916076E+02 -0.13015223436E+02  0.24396154235E+02  0.51100000000E-03 0.  1.
        -12    1    4    4    0    0 -0.13151809650E+01 -0.28611350793E+01  0.88334455923E+01  0.93779291928E+01  0.00000000000E+00 0.  1.
</event>
<event>
 8    1  0.2504019E-006  0.9118800E+02  0.7816164E-02  0.1184000E+00
        -11   -1    0    0    0    0  0.00000000000E+00  0.00000000000E+00  0.45593999997E+02  0.45594000000E+02  0.51100000000E-03 0.  1.
         11   -1    0    0    0    0 -0.00000000000E+00 -0.00000000000E+00 -0.45593999997E+02  0.45594000000E+02  0.51100000000E-03 0. -1.
         23    2    1    2    0    0 -0.35527136788E-14 -0.17763568394E-14  0.35527136788E-14  0.91188000000E+02  0.91188000000E+02 0.  0.
    9900012    2    3    3    0    0  0.29377456254E+02 -0.11498349061E+02  0.18987726501E+02  0.54367072190E+02  0.39999972672E+02 0.  0.
         12    1    3    3    0    0 -0.29377456254E+02  0.11498349061E+02 -0.18987726501E+02  0.36820927810E+02  0.00000000000E+00 0. -1.
         11    1    4    4    0    0  0.10381073483E+02 -0.24325178743E+01 -0.11905647483E+01  0.10728526206E+02  0.51100000000E-03 0. -1.
        -11    1    4    4    0    0  0.56559351578E+01  0.92910568447E+01  0.17748602465E+02  0.20816489366E+02  0.51100000000E-03 0.  1.
        -12    1    4    4    0    0  0.13340447613E+02 -0.18356888032E+02  0.24296887844E+01  0.22822056619E+02  0.00000000000E+00 0.  1.
</event>
<event>
 8    1  0.2504019E-006  0.9118800E+02  0.7816164E-02  0.1184000E+00
        -11   -1    0    0    0    0  0.00000000000E+00  0.00000000000E+00  0.45593999997E+02  0.45594000000E+02  0.51100000000E-03 0.  1.
         11   -1    0    0    0    0 -0.00000000000E+00 -0.00000000000E+00 -0.45593999997E+02  0.45594000000E+02  0.51100000000E-03 0. -1.
         23    2    1    2    0    0  0.00000000000E+00  0.23314683517E-14  0.14210854715E-13  0.91188000000E+02  0.91188000000E+02 0.  0.
    9900012    2    3    3    0    0  0.17324903739E+02  0.76680834239E+00  0.32481372875E+02  0.54367083818E+02  0.39999999181E+02 0.  0.
         12    1    3    3    0    0 -0.17324903739E+02 -0.76680834239E+00 -0.32481372875E+02  0.36820916182E+02  0.00000000000E+00 0. -1.
         11    1    4    4    0    0 -0.18545418579E+01 -0.63008363607E+01  0.47418121664E+00  0.65851888685E+01  0.51100000000E-03 0. -1.
        -11    1    4    4    0    0  0.97372064674E+01  0.18344776040E+02  0.18615448782E+02  0.27890481017E+02  0.51100000000E-03 0.  1.
         12    1    4    4    0    0  0.94422391296E+01 -0.11277131337E+02  0.13391742876E+02  0.19891413933E+02  0.00000000000E+00 0. -1.
</event>
<event>
 8    1  0.2504019E-006  0.9118800E+02  0.7816164E-02  0.1184000E+00
        -11   -1    0    0    0    0  0.00000000000E+00  0.00000000000E+00  0.45593999997E+02  0.45594000000E+02  0.51100000000E-03 0. -1.
         11   -1    0    0    0    0 -0.00000000000E+00 -0.00000000000E+00 -0.45593999997E+02  0.45594000000E+02  0.51100000000E-03 0.  1.
         23    2    1    2    0    0  0.38857805862E-15  0.00000000000E+00  0.00000000000E+00  0.91188000000E+02  0.91188000000E+02 0.  0.
    9900012    2    3    3    0    0 -0.31959401383E+00 -0.33317752325E+02 -0.15671796821E+02  0.54367082359E+02  0.39999995853E+02 0.  0.
         12    1    3    3    0    0  0.31959401383E+00  0.33317752325E+02  0.15671796821E+02  0.36820917641E+02  0.00000000000E+00 0. -1.
         11    1    4    4    0    0  0.14030523458E+02 -0.14632976208E+02  0.49154818391E+01  0.20860046577E+02  0.51100000000E-03 0. -1.
        -11    1    4    4    0    0 -0.10301279670E-01 -0.74829720459E+01 -0.26025479921E+01  0.79226405363E+01  0.51100000000E-03 0.  1.
        -12    1    4    4    0    0 -0.14339816192E+02 -0.11201804071E+02 -0.17984730668E+02  0.25584395246E+02  0.00000000000E+00 0.  1.
</event>
<event>
 8    1  0.2504019E-006  0.9118800E+02  0.7816164E-02  0.1184000E+00
        -11   -1    0    0    0    0  0.00000000000E+00  0.00000000000E+00  0.45593999997E+02  0.45594000000E+02  0.51100000000E-03 0. -1.
         11   -1    0    0    0    0 -0.00000000000E+00 -0.00000000000E+00 -0.45593999997E+02  0.45594000000E+02  0.51100000000E-03 0.  1.
         23    2    1    2    0    0  0.00000000000E+00  0.35527136788E-14  0.00000000000E+00  0.91188000000E+02  0.91188000000E+02 0.  0.
    9900012    2    3    3    0    0 -0.10997088865E+02  0.19145363503E+02 -0.29466941121E+02  0.54367061308E+02  0.39999947863E+02 0.  0.
         12    1    3    3    0    0  0.10997088865E+02 -0.19145363503E+02  0.29466941121E+02  0.36820938692E+02  0.00000000000E+00 0. -1.
         11    1    4    4    0    0  0.99399927055E+01  0.41377603644E+01 -0.64087336645E+01  0.12529819762E+02  0.51100000000E-03 0. -1.
        -11    1    4    4    0    0 -0.13933614082E+02 -0.31843525941E+00 -0.85427696778E+00  0.13963409033E+02  0.51100000000E-03 0.  1.
        -12    1    4    4    0    0 -0.70034674880E+01  0.15326038398E+02 -0.22203930488E+02  0.27873832513E+02  0.00000000000E+00 0.  1.
</event>
<event>
 8    1  0.2504019E-006  0.9118800E+02  0.7816164E-02  0.1184000E+00
        -11   -1    0    0    0    0  0.00000000000E+00  0.00000000000E+00  0.45593999997E+02  0.45594000000E+02  0.51100000000E-03 0.  1.
         11   -1    0    0    0    0 -0.00000000000E+00 -0.00000000000E+00 -0.45593999997E+02  0.45594000000E+02  0.51100000000E-03 0. -1.
         23    2    1    2    0    0  0.00000000000E+00  0.00000000000E+00  0.00000000000E+00  0.91188000000E+02  0.91188000000E+02 0.  0.
    9900012    2    3    3    0    0  0.22647898319E+02  0.22520687343E+02 -0.18321330764E+02  0.54367084508E+02  0.40000000753E+02 0.  0.
        -12    1    3    3    0    0 -0.22647898319E+02 -0.22520687343E+02  0.18321330764E+02  0.36820915492E+02  0.00000000000E+00 0.  1.
         11    1    4    4    0    0  0.11718781788E+02  0.13743637404E+02  0.76750199278E+01  0.19624559788E+02  0.51100000000E-03 0. -1.
        -11    1    4    4    0    0  0.10971463043E+02 -0.23528054619E+01 -0.17289509170E+02  0.20611545853E+02  0.51100000000E-03 0.  1.
        -12    1    4    4    0    0 -0.42346512491E-01  0.11129855401E+02 -0.87068415223E+01  0.14130978868E+02  0.00000000000E+00 0.  1.
</event>
<event>
 8    1  0.2504019E-006  0.9118800E+02  0.7816164E-02  0.1184000E+00
        -11   -1    0    0    0    0  0.00000000000E+00  0.00000000000E+00  0.45593999997E+02  0.45594000000E+02  0.51100000000E-03 0. -1.
         11   -1    0    0    0    0 -0.00000000000E+00 -0.00000000000E+00 -0.45593999997E+02  0.45594000000E+02  0.51100000000E-03 0.  1.
         23    2    1    2    0    0  0.00000000000E+00  0.88817841970E-15 -0.35527136788E-14  0.91188000000E+02  0.91188000000E+02 0.  0.
    9900012    2    3    3    0    0 -0.20592243709E+02 -0.32032559949E+01 -0.30355863889E+02  0.54367084444E+02  0.40000000607E+02 0.  0.
         12    1    3    3    0    0  0.20592243709E+02  0.32032559949E+01  0.30355863889E+02  0.36820915556E+02  0.00000000000E+00 0. -1.
         11    1    4    4    0    0 -0.20503703120E+01  0.99298332086E+01 -0.13469030864E+02  0.16858837405E+02  0.51100000000E-03 0. -1.
        -11    1    4    4    0    0 -0.19890853346E+01 -0.96678805210E+01 -0.18033295703E+02  0.20557824019E+02  0.51100000000E-03 0.  1.
        -12    1    4    4    0    0 -0.16552788063E+02 -0.34652086825E+01  0.11464626784E+01  0.16950423019E+02  0.00000000000E+00 0.  1.
</event>
<event>
 8    1  0.2504019E-006  0.9118800E+02  0.7816164E-02  0.1184000E+00
        -11   -1    0    0    0    0  0.00000000000E+00  0.00000000000E+00  0.45593999997E+02  0.45594000000E+02  0.51100000000E-03 0.  1.
         11   -1    0    0    0    0 -0.00000000000E+00 -0.00000000000E+00 -0.45593999997E+02  0.45594000000E+02  0.51100000000E-03 0. -1.
         23    2    1    2    0    0  0.00000000000E+00  0.26645352591E-14  0.00000000000E+00  0.91188000000E+02  0.91188000000E+02 0.  0.
    9900012    2    3    3    0    0 -0.36264836226E+02  0.50877936127E+01  0.38414018278E+01  0.54367077166E+02  0.39999984016E+02 0.  0.
        -12    1    3    3    0    0  0.36264836226E+02 -0.50877936127E+01 -0.38414018278E+01  0.36820922834E+02  0.00000000000E+00 0.  1.
         11    1    4    4    0    0 -0.14745951534E+02  0.49909898450E+01 -0.27482467439E+01  0.15808413162E+02  0.51100000000E-03 0. -1.
        -11    1    4    4    0    0 -0.97397741971E+00 -0.97276675728E+01  0.11671980512E+02  0.15225349840E+02  0.51100000000E-03 0.  1.
        -12    1    4    4    0    0 -0.20544907272E+02  0.98244713405E+01 -0.50823319403E+01  0.23333314164E+02  0.00000000000E+00 0.  1.
</event>
<event>
 8    1  0.2504019E-006  0.9118800E+02  0.7816164E-02  0.1184000E+00
        -11   -1    0    0    0    0  0.00000000000E+00  0.00000000000E+00  0.45593999997E+02  0.45594000000E+02  0.51100000000E-03 0. -1.
         11   -1    0    0    0    0 -0.00000000000E+00 -0.00000000000E+00 -0.45593999997E+02  0.45594000000E+02  0.51100000000E-03 0.  1.
         23    2    1    2    0    0 -0.17763568394E-14  0.35527136788E-14 -0.17763568394E-14  0.91188000000E+02  0.91188000000E+02 0.  0.
    9900012    2    3    3    0    0  0.96505735263E+01 -0.31764601677E+02  0.15926606589E+02  0.54367078141E+02  0.39999986238E+02 0.  0.
        -12    1    3    3    0    0 -0.96505735263E+01  0.31764601677E+02 -0.15926606589E+02  0.36820921859E+02  0.00000000000E+00 0.  1.
         11    1    4    4    0    0 -0.23404483385E+01 -0.60932245933E+01  0.23308383577E+01  0.69309373162E+01  0.51100000000E-03 0. -1.
        -11    1    4    4    0    0 -0.28710873267E+01 -0.23908763258E+02 -0.39196999575E+01  0.24397461978E+02  0.51100000000E-03 0.  1.
        -12    1    4    4    0    0  0.14862109192E+02 -0.17626138265E+01  0.17515468189E+02  0.23038678847E+02  0.00000000000E+00 0.  1.
</event>
<event>
 8    1  0.2504019E-006  0.9118800E+02  0.7816164E-02  0.1184000E+00
        -11   -1    0    0    0    0  0.00000000000E+00  0.00000000000E+00  0.45593999997E+02  0.45594000000E+02  0.51100000000E-03 0.  1.
         11   -1    0    0    0    0 -0.00000000000E+00 -0.00000000000E+00 -0.45593999997E+02  0.45594000000E+02  0.51100000000E-03 0. -1.
         23    2    1    2    0    0  0.35527136788E-14  0.00000000000E+00  0.00000000000E+00  0.91188000000E+02  0.91188000000E+02 0.  0.
    9900012    2    3    3    0    0  0.24505010077E+02  0.21164526969E+02  0.17531310170E+02  0.54367088048E+02  0.40000008823E+02 0.  0.
         12    1    3    3    0    0 -0.24505010077E+02 -0.21164526969E+02 -0.17531310170E+02  0.36820911952E+02  0.00000000000E+00 0. -1.
         11    1    4    4    0    0  0.13676681576E+02 -0.13887696835E+01 -0.18177111259E-01  0.13747022617E+02  0.51100000000E-03 0. -1.
        -11    1    4    4    0    0  0.99371246486E+01  0.46680150535E+01 -0.47991334064E+01  0.11982007033E+02  0.51100000000E-03 0.  1.
        -12    1    4    4    0    0  0.89120385264E+00  0.17885281599E+02  0.22348620687E+02  0.28638058398E+02  0.00000000000E+00 0.  1.
</event>
<event>
 8    1  0.2504019E-006  0.9118800E+02  0.7816164E-02  0.1184000E+00
        -11   -1    0    0    0    0  0.00000000000E+00  0.00000000000E+00  0.45593999997E+02  0.45594000000E+02  0.51100000000E-03 0. -1.
         11   -1    0    0    0    0 -0.00000000000E+00 -0.00000000000E+00 -0.45593999997E+02  0.45594000000E+02  0.51100000000E-03 0.  1.
         23    2    1    2    0    0  0.00000000000E+00  0.26645352591E-14  0.00000000000E+00  0.91188000000E+02  0.91188000000E+02 0.  0.
    9900012    2    3    3    0    0 -0.35034879006E+02  0.72404848600E+01 -0.87127972314E+01  0.54367079268E+02  0.39999988807E+02 0.  0.
         12    1    3    3    0    0  0.35034879006E+02 -0.72404848600E+01  0.87127972314E+01  0.36820920732E+02  0.00000000000E+00 0. -1.
         11    1    4    4    0    0 -0.18422743284E+02 -0.56215899851E+01  0.94302582749E+01  0.21445967347E+02  0.51100000000E-03 0. -1.
        -11    1    4    4    0    0 -0.17151081945E+02  0.16459776893E+02 -0.14958474902E+02  0.28086292723E+02  0.51100000000E-03 0.  1.
        -12    1    4    4    0    0  0.53894622335E+00 -0.35977020475E+01 -0.31845806038E+01  0.48348191979E+01  0.00000000000E+00 0.  1.
</event>
<event>
 8    1  0.2504019E-006  0.9118800E+02  0.7816164E-02  0.1184000E+00
        -11   -1    0    0    0    0  0.00000000000E+00  0.00000000000E+00  0.45593999997E+02  0.45594000000E+02  0.51100000000E-03 0.  1.
         11   -1    0    0    0    0 -0.00000000000E+00 -0.00000000000E+00 -0.45593999997E+02  0.45594000000E+02  0.51100000000E-03 0. -1.
         23    2    1    2    0    0  0.00000000000E+00  0.00000000000E+00 -0.10658141036E-13  0.91188000000E+02  0.91188000000E+02 0.  0.
    9900012    2    3    3    0    0  0.25712738531E+02  0.11674013627E+02  0.23629508763E+02  0.54367065719E+02  0.39999957919E+02 0.  0.
         12    1    3    3    0    0 -0.25712738531E+02 -0.11674013627E+02 -0.23629508763E+02  0.36820934281E+02  0.00000000000E+00 0. -1.
         11    1    4    4    0    0  0.10945286275E+02  0.70107553912E+01  0.26712401778E+02  0.29706941812E+02  0.51100000000E-03 0. -1.
        -11    1    4    4    0    0  0.12379614918E+02 -0.21546542685E+01 -0.88891216025E+01  0.15392007136E+02  0.51100000000E-03 0.  1.
        -12    1    4    4    0    0  0.23878373379E+01  0.68179125045E+01  0.58062285874E+01  0.92681167710E+01  0.00000000000E+00 0.  1.
</event>
<event>
 8    1  0.2504019E-006  0.9118800E+02  0.7816164E-02  0.1184000E+00
        -11   -1    0    0    0    0  0.00000000000E+00  0.00000000000E+00  0.45593999997E+02  0.45594000000E+02  0.51100000000E-03 0. -1.
         11   -1    0    0    0    0 -0.00000000000E+00 -0.00000000000E+00 -0.45593999997E+02  0.45594000000E+02  0.51100000000E-03 0.  1.
         23    2    1    2    0    0 -0.35527136788E-14 -0.17763568394E-14 -0.35527136788E-14  0.91188000000E+02  0.91188000000E+02 0.  0.
    9900012    2    3    3    0    0  0.30559872116E+02  0.15824183366E+02 -0.13094469964E+02  0.54367140333E+02  0.40000128018E+02 0.  0.
         12    1    3    3    0    0 -0.30559872116E+02 -0.15824183366E+02  0.13094469964E+02  0.36820859667E+02  0.00000000000E+00 0. -1.
         11    1    4    4    0    0 -0.38868276509E+01 -0.76167664387E+00  0.20774878109E+01  0.44725313150E+01  0.51100000000E-03 0. -1.
        -11    1    4    4    0    0  0.43876455579E+01 -0.41943621522E+01 -0.11708296302E+02  0.13188188274E+02  0.51100000000E-03 0.  1.
         12    1    4    4    0    0  0.30059054209E+02  0.20780222162E+02 -0.34636614732E+01  0.36706420744E+02  0.00000000000E+00 0. -1.
</event>
<event>
 8    1  0.2504019E-006  0.9118800E+02  0.7816164E-02  0.1184000E+00
        -11   -1    0    0    0    0  0.00000000000E+00  0.00000000000E+00  0.45593999997E+02  0.45594000000E+02  0.51100000000E-03 0. -1.
         11   -1    0    0    0    0 -0.00000000000E+00 -0.00000000000E+00 -0.45593999997E+02  0.45594000000E+02  0.51100000000E-03 0.  1.
         23    2    1    2    0    0 -0.17763568394E-14  0.00000000000E+00  0.66613381478E-15  0.91188000000E+02  0.91188000000E+02 0.  0.
    9900012    2    3    3    0    0 -0.15154210048E+02  0.33535011070E+02 -0.12380020190E+01  0.54367086125E+02  0.40000004438E+02 0.  0.
        -12    1    3    3    0    0  0.15154210048E+02 -0.33535011070E+02  0.12380020190E+01  0.36820913875E+02  0.00000000000E+00 0.  1.
         11    1    4    4    0    0 -0.11256153439E+02  0.36904264969E+01  0.78984105007E+01  0.14237455063E+02  0.51100000000E-03 0. -1.
        -11    1    4    4    0    0  0.10555973913E+02  0.10308218840E+02 -0.28386477958E+01  0.15024842178E+02  0.51100000000E-03 0.  1.
        -12    1    4    4    0    0 -0.14454030522E+02  0.19536365732E+02 -0.62977647239E+01  0.25104788883E+02  0.00000000000E+00 0.  1.
</event>
<event>
 8    1  0.2504019E-006  0.9118800E+02  0.7816164E-02  0.1184000E+00
        -11   -1    0    0    0    0  0.00000000000E+00  0.00000000000E+00  0.45593999997E+02  0.45594000000E+02  0.51100000000E-03 0. -1.
         11   -1    0    0    0    0 -0.00000000000E+00 -0.00000000000E+00 -0.45593999997E+02  0.45594000000E+02  0.51100000000E-03 0.  1.
         23    2    1    2    0    0  0.00000000000E+00  0.00000000000E+00 -0.17763568394E-14  0.91188000000E+02  0.91188000000E+02 0.  0.
    9900012    2    3    3    0    0  0.26685193377E+02 -0.25219414790E+02 -0.27678971864E+01  0.54367086340E+02  0.40000004929E+02 0.  0.
        -12    1    3    3    0    0 -0.26685193377E+02  0.25219414790E+02  0.27678971864E+01  0.36820913660E+02  0.00000000000E+00 0.  1.
         11    1    4    4    0    0  0.16444008841E+02 -0.15772796543E+02 -0.68831044375E+01  0.23802597852E+02  0.51100000000E-03 0. -1.
        -11    1    4    4    0    0  0.11244894724E+02 -0.11123466012E+01  0.13742351703E+02  0.17791492430E+02  0.51100000000E-03 0.  1.
        -12    1    4    4    0    0 -0.10037101872E+01 -0.83342716459E+01 -0.96271444514E+01  0.12772996058E+02  0.00000000000E+00 0.  1.
</event>
<event>
 8    1  0.2504019E-006  0.9118800E+02  0.7816164E-02  0.1184000E+00
        -11   -1    0    0    0    0  0.00000000000E+00  0.00000000000E+00  0.45593999997E+02  0.45594000000E+02  0.51100000000E-03 0. -1.
         11   -1    0    0    0    0 -0.00000000000E+00 -0.00000000000E+00 -0.45593999997E+02  0.45594000000E+02  0.51100000000E-03 0.  1.
         23    2    1    2    0    0  0.00000000000E+00  0.00000000000E+00 -0.35527136788E-14  0.91188000000E+02  0.91188000000E+02 0.  0.
    9900012    2    3    3    0    0  0.15506862131E+02 -0.27885763915E+02  0.18376651974E+02  0.54367082847E+02  0.39999996965E+02 0.  0.
        -12    1    3    3    0    0 -0.15506862131E+02  0.27885763915E+02 -0.18376651974E+02  0.36820917153E+02  0.00000000000E+00 0.  1.
         11    1    4    4    0    0  0.99139868854E+01 -0.11300278660E+02  0.16495319933E+02  0.22317683879E+02  0.51100000000E-03 0. -1.
        -11    1    4    4    0    0 -0.30388147254E+01 -0.54254641166E+00  0.11178263237E+02  0.11596651276E+02  0.51100000000E-03 0.  1.
         12    1    4    4    0    0  0.86316899706E+01 -0.16042938843E+02 -0.92969311968E+01  0.20452747692E+02  0.00000000000E+00 0. -1.
</event>
<event>
 8    1  0.2504019E-006  0.9118800E+02  0.7816164E-02  0.1184000E+00
        -11   -1    0    0    0    0  0.00000000000E+00  0.00000000000E+00  0.45593999997E+02  0.45594000000E+02  0.51100000000E-03 0.  1.
         11   -1    0    0    0    0 -0.00000000000E+00 -0.00000000000E+00 -0.45593999997E+02  0.45594000000E+02  0.51100000000E-03 0. -1.
         23    2    1    2    0    0  0.35527136788E-14 -0.35527136788E-14  0.00000000000E+00  0.91188000000E+02  0.91188000000E+02 0.  0.
    9900012    2    3    3    0    0  0.27110581584E+02 -0.18472141496E+02 -0.16720428945E+02  0.54367131062E+02  0.40000106881E+02 0.  0.
        -12    1    3    3    0    0 -0.27110581584E+02  0.18472141496E+02  0.16720428945E+02  0.36820868938E+02  0.00000000000E+00 0.  1.
         11    1    4    4    0    0  0.95049876822E+01 -0.17622141726E+02 -0.10416186256E+02  0.22569483960E+02  0.51100000000E-03 0. -1.
        -11    1    4    4    0    0  0.74906538842E+01 -0.93860176201E+01  0.62652512442E+01  0.13544762670E+02  0.51100000000E-03 0.  1.
         12    1    4    4    0    0  0.10114940018E+02  0.85360178507E+01 -0.12569493933E+02  0.18252884431E+02  0.00000000000E+00 0. -1.
</event>
<event>
 8    1  0.2504019E-006  0.9118800E+02  0.7816164E-02  0.1184000E+00
        -11   -1    0    0    0    0  0.00000000000E+00  0.00000000000E+00  0.45593999997E+02  0.45594000000E+02  0.51100000000E-03 0. -1.
         11   -1    0    0    0    0 -0.00000000000E+00 -0.00000000000E+00 -0.45593999997E+02  0.45594000000E+02  0.51100000000E-03 0.  1.
         23    2    1    2    0    0 -0.53290705182E-14  0.00000000000E+00  0.00000000000E+00  0.91188000000E+02  0.91188000000E+02 0.  0.
    9900012    2    3    3    0    0  0.10638403099E+02 -0.26280612527E+02 -0.23493260736E+02  0.54367088614E+02  0.40000010113E+02 0.  0.
         12    1    3    3    0    0 -0.10638403099E+02  0.26280612527E+02  0.23493260736E+02  0.36820911386E+02  0.00000000000E+00 0. -1.
         11    1    4    4    0    0 -0.47353706431E+01 -0.17507305001E+02 -0.25491463799E+01  0.18314682936E+02  0.51100000000E-03 0. -1.
        -11    1    4    4    0    0 -0.42275569627E+01 -0.85205735649E+01 -0.90151031339E+01  0.13105132450E+02  0.51100000000E-03 0.  1.
         12    1    4    4    0    0  0.19601330705E+02 -0.25273396126E+00 -0.11929011222E+02  0.22947273228E+02  0.00000000000E+00 0. -1.
</event>
<event>
 8    1  0.2504019E-006  0.9118800E+02  0.7816164E-02  0.1184000E+00
        -11   -1    0    0    0    0  0.00000000000E+00  0.00000000000E+00  0.45593999997E+02  0.45594000000E+02  0.51100000000E-03 0.  1.
         11   -1    0    0    0    0 -0.00000000000E+00 -0.00000000000E+00 -0.45593999997E+02  0.45594000000E+02  0.51100000000E-03 0. -1.
         23    2    1    2    0    0  0.00000000000E+00 -0.17763568394E-14  0.00000000000E+00  0.91188000000E+02  0.91188000000E+02 0.  0.
    9900012    2    3    3    0    0 -0.44701005431E+01 -0.10749190026E+02 -0.34932099267E+02  0.54367103158E+02  0.40000043269E+02 0.  0.
        -12    1    3    3    0    0  0.44701005431E+01  0.10749190026E+02  0.34932099267E+02  0.36820896842E+02  0.00000000000E+00 0.  1.
         11    1    4    4    0    0 -0.43034689173E+01  0.18529566639E+01 -0.33127480057E+02  0.33457185003E+02  0.51100000000E-03 0. -1.
        -11    1    4    4    0    0 -0.10837777263E+01  0.40301179854E+01 -0.44633700645E+00  0.41970992507E+01  0.51100000000E-03 0.  1.
         12    1    4    4    0    0  0.91714610047E+00 -0.16632264675E+02 -0.13582822034E+01  0.16712818904E+02  0.00000000000E+00 0. -1.
</event>
<event>
 8    1  0.2504019E-006  0.9118800E+02  0.7816164E-02  0.1184000E+00
        -11   -1    0    0    0    0  0.00000000000E+00  0.00000000000E+00  0.45593999997E+02  0.45594000000E+02  0.51100000000E-03 0. -1.
         11   -1    0    0    0    0 -0.00000000000E+00 -0.00000000000E+00 -0.45593999997E+02  0.45594000000E+02  0.51100000000E-03 0.  1.
         23    2    1    2    0    0  0.00000000000E+00  0.00000000000E+00  0.00000000000E+00  0.91188000000E+02  0.91188000000E+02 0.  0.
    9900012    2    3    3    0    0  0.19342534487E+02 -0.48988319721E+01 -0.30945865714E+02  0.54367098329E+02  0.40000032261E+02 0.  0.
         12    1    3    3    0    0 -0.19342534487E+02  0.48988319721E+01  0.30945865714E+02  0.36820901671E+02  0.00000000000E+00 0. -1.
         11    1    4    4    0    0  0.23390647885E+02 -0.15272186938E+02 -0.96216890745E+01  0.29545541174E+02  0.51100000000E-03 0. -1.
        -11    1    4    4    0    0 -0.12336582713E+00  0.64052342285E+01 -0.15415452208E+02  0.16693663819E+02  0.51100000000E-03 0.  1.
         12    1    4    4    0    0 -0.39247475709E+01  0.39681207374E+01 -0.59087244315E+01  0.81278933365E+01  0.00000000000E+00 0. -1.
</event>
<event>
 8    1  0.2504019E-006  0.9118800E+02  0.7816164E-02  0.1184000E+00
        -11   -1    0    0    0    0  0.00000000000E+00  0.00000000000E+00  0.45593999997E+02  0.45594000000E+02  0.51100000000E-03 0.  1.
         11   -1    0    0    0    0 -0.00000000000E+00 -0.00000000000E+00 -0.45593999997E+02  0.45594000000E+02  0.51100000000E-03 0. -1.
         23    2    1    2    0    0  0.17763568394E-14 -0.88817841970E-15  0.00000000000E+00  0.91188000000E+02  0.91188000000E+02 0.  0.
    9900012    2    3    3    0    0  0.95184705400E+01  0.21242483989E+01  0.35505873221E+02  0.54367071903E+02  0.39999972018E+02 0.  0.
         12    1    3    3    0    0 -0.95184705400E+01 -0.21242483989E+01 -0.35505873221E+02  0.36820928097E+02  0.00000000000E+00 0. -1.
         11    1    4    4    0    0  0.14375737394E+02 -0.55883593943E+01  0.19618570670E+02  0.24955558534E+02  0.51100000000E-03 0. -1.
        -11    1    4    4    0    0  0.30247049392E+01  0.13972123556E+02  0.67164765571E+01  0.15794940147E+02  0.51100000000E-03 0.  1.
         12    1    4    4    0    0 -0.78819717927E+01 -0.62595157626E+01  0.91708259941E+01  0.13616573223E+02  0.00000000000E+00 0. -1.
</event>
<event>
 8    1  0.2504019E-006  0.9118800E+02  0.7816164E-02  0.1184000E+00
        -11   -1    0    0    0    0  0.00000000000E+00  0.00000000000E+00  0.45593999997E+02  0.45594000000E+02  0.51100000000E-03 0.  1.
         11   -1    0    0    0    0 -0.00000000000E+00 -0.00000000000E+00 -0.45593999997E+02  0.45594000000E+02  0.51100000000E-03 0. -1.
         23    2    1    2    0    0  0.35527136788E-14  0.00000000000E+00 -0.35527136788E-14  0.91188000000E+02  0.91188000000E+02 0.  0.
    9900012    2    3    3    0    0  0.26641811587E+02 -0.16022920009E+02 -0.19729686884E+02  0.54367073412E+02  0.39999975458E+02 0.  0.
        -12    1    3    3    0    0 -0.26641811587E+02  0.16022920009E+02  0.19729686884E+02  0.36820926588E+02  0.00000000000E+00 0.  1.
         11    1    4    4    0    0  0.41431860916E+01 -0.18852765583E+01 -0.18792946652E+02  0.19336367363E+02  0.51100000000E-03 0. -1.
        -11    1    4    4    0    0  0.17812144467E+02 -0.29934497554E+01 -0.93143733917E+01  0.20322174684E+02  0.51100000000E-03 0.  1.
        -12    1    4    4    0    0  0.46864810280E+01 -0.11144193696E+02  0.83776331593E+01  0.14708531365E+02  0.00000000000E+00 0.  1.
</event>
<event>
 8    1  0.2504019E-006  0.9118800E+02  0.7816164E-02  0.1184000E+00
        -11   -1    0    0    0    0  0.00000000000E+00  0.00000000000E+00  0.45593999997E+02  0.45594000000E+02  0.51100000000E-03 0.  1.
         11   -1    0    0    0    0 -0.00000000000E+00 -0.00000000000E+00 -0.45593999997E+02  0.45594000000E+02  0.51100000000E-03 0. -1.
         23    2    1    2    0    0 -0.71054273576E-14  0.00000000000E+00 -0.17763568394E-14  0.91188000000E+02  0.91188000000E+02 0.  0.
    9900012    2    3    3    0    0 -0.28374378419E+02 -0.17195224633E+02 -0.15968934608E+02  0.54366973760E+02  0.39999748280E+02 0.  0.
        -12    1    3    3    0    0  0.28374378419E+02  0.17195224633E+02  0.15968934608E+02  0.36821026240E+02  0.00000000000E+00 0.  1.
         11    1    4    4    0    0 -0.19879378657E+02 -0.25453500834E+01 -0.18094526097E+02  0.27001488436E+02  0.51100000000E-03 0. -1.
        -11    1    4    4    0    0 -0.12496812498E+02 -0.50504044957E+00  0.19933227879E+01  0.12664861802E+02  0.51100000000E-03 0.  1.
        -12    1    4    4    0    0  0.40018127364E+01 -0.14144834100E+02  0.13226870152E+00  0.14700623521E+02  0.00000000000E+00 0.  1.
</event>
<event>
 8    1  0.2504019E-006  0.9118800E+02  0.7816164E-02  0.1184000E+00
        -11   -1    0    0    0    0  0.00000000000E+00  0.00000000000E+00  0.45593999997E+02  0.45594000000E+02  0.51100000000E-03 0. -1.
         11   -1    0    0    0    0 -0.00000000000E+00 -0.00000000000E+00 -0.45593999997E+02  0.45594000000E+02  0.51100000000E-03 0.  1.
         23    2    1    2    0    0 -0.17763568394E-14  0.00000000000E+00  0.00000000000E+00  0.91188000000E+02  0.91188000000E+02 0.  0.
    9900012    2    3    3    0    0 -0.11750469892E+02 -0.27276393857E+02 -0.21764748662E+02  0.54367088973E+02  0.40000010932E+02 0.  0.
         12    1    3    3    0    0  0.11750469892E+02  0.27276393857E+02  0.21764748662E+02  0.36820911027E+02  0.00000000000E+00 0. -1.
         11    1    4    4    0    0  0.30879467359E+01 -0.10464227957E+02  0.35630825643E+01  0.11477414316E+02  0.51100000000E-03 0. -1.
        -11    1    4    4    0    0  0.67105179671E+01 -0.99375632207E+01 -0.85321628271E+01  0.14716793704E+02  0.51100000000E-03 0.  1.
         12    1    4    4    0    0 -0.21548934595E+02 -0.68746026798E+01 -0.16795668399E+02  0.28172880953E+02  0.00000000000E+00 0. -1.
</event>
<event>
 8    1  0.2504019E-006  0.9118800E+02  0.7816164E-02  0.1184000E+00
        -11   -1    0    0    0    0  0.00000000000E+00  0.00000000000E+00  0.45593999997E+02  0.45594000000E+02  0.51100000000E-03 0.  1.
         11   -1    0    0    0    0 -0.00000000000E+00 -0.00000000000E+00 -0.45593999997E+02  0.45594000000E+02  0.51100000000E-03 0. -1.
         23    2    1    2    0    0  0.00000000000E+00  0.00000000000E+00 -0.17763568394E-14  0.91188000000E+02  0.91188000000E+02 0.  0.
    9900012    2    3    3    0    0  0.99377646806E+01 -0.32994976381E+02  0.12975085687E+02  0.54367075489E+02  0.39999980192E+02 0.  0.
        -12    1    3    3    0    0 -0.99377646806E+01  0.32994976381E+02 -0.12975085687E+02  0.36820924511E+02  0.00000000000E+00 0.  1.
         11    1    4    4    0    0  0.60095104129E+01 -0.38420502737E+01  0.45602300896E+01  0.84658882842E+01  0.51100000000E-03 0. -1.
        -11    1    4    4    0    0 -0.58788661221E+01 -0.25674710834E+02  0.17880009871E+02  0.31834676008E+02  0.51100000000E-03 0.  1.
        -12    1    4    4    0    0  0.98071203897E+01 -0.34782152734E+01 -0.94651542735E+01  0.14066511197E+02  0.00000000000E+00 0.  1.
</event>
<event>
 8    1  0.2504019E-006  0.9118800E+02  0.7816164E-02  0.1184000E+00
        -11   -1    0    0    0    0  0.00000000000E+00  0.00000000000E+00  0.45593999997E+02  0.45594000000E+02  0.51100000000E-03 0. -1.
         11   -1    0    0    0    0 -0.00000000000E+00 -0.00000000000E+00 -0.45593999997E+02  0.45594000000E+02  0.51100000000E-03 0.  1.
         23    2    1    2    0    0  0.00000000000E+00  0.00000000000E+00 -0.35527136788E-14  0.91188000000E+02  0.91188000000E+02 0.  0.
    9900012    2    3    3    0    0  0.27767431100E+02  0.33212112567E+01  0.23952449843E+02  0.54367074868E+02  0.39999978776E+02 0.  0.
        -12    1    3    3    0    0 -0.27767431100E+02 -0.33212112567E+01 -0.23952449843E+02  0.36820925132E+02  0.00000000000E+00 0.  1.
         11    1    4    4    0    0  0.23251899754E+02 -0.95078382216E+01  0.89783933934E+01  0.26676982176E+02  0.51100000000E-03 0. -1.
        -11    1    4    4    0    0  0.39957595471E+01 -0.20253593499E+01 -0.21886877920E+01  0.49858328658E+01  0.51100000000E-03 0.  1.
         12    1    4    4    0    0  0.51977179917E+00  0.14854408828E+02  0.17162744242E+02  0.22704259826E+02  0.00000000000E+00 0. -1.
</event>
<event>
 8    1  0.2504019E-006  0.9118800E+02  0.7816164E-02  0.1184000E+00
        -11   -1    0    0    0    0  0.00000000000E+00  0.00000000000E+00  0.45593999997E+02  0.45594000000E+02  0.51100000000E-03 0. -1.
         11   -1    0    0    0    0 -0.00000000000E+00 -0.00000000000E+00 -0.45593999997E+02  0.45594000000E+02  0.51100000000E-03 0.  1.
         23    2    1    2    0    0  0.00000000000E+00  0.35527136788E-14  0.35527136788E-14  0.91188000000E+02  0.91188000000E+02 0.  0.
    9900012    2    3    3    0    0  0.15509727671E+02 -0.20474242175E+02 -0.26382446257E+02  0.54367085894E+02  0.40000003913E+02 0.  0.
         12    1    3    3    0    0 -0.15509727671E+02  0.20474242175E+02  0.26382446257E+02  0.36820914106E+02  0.00000000000E+00 0. -1.
         11    1    4    4    0    0  0.26325011939E+01  0.40486951394E+00  0.32740440366E+01  0.42205860345E+01  0.51100000000E-03 0. -1.
        -11    1    4    4    0    0  0.17261645294E+02 -0.27508107900E+02 -0.24341650005E+02  0.40585420088E+02  0.51100000000E-03 0.  1.
        -12    1    4    4    0    0 -0.43844188165E+01  0.66289962107E+01 -0.53148402884E+01  0.95610797722E+01  0.00000000000E+00 0.  1.
</event>
<event>
 8    1  0.2504019E-006  0.9118800E+02  0.7816164E-02  0.1184000E+00
        -11   -1    0    0    0    0  0.00000000000E+00  0.00000000000E+00  0.45593999997E+02  0.45594000000E+02  0.51100000000E-03 0.  1.
         11   -1    0    0    0    0 -0.00000000000E+00 -0.00000000000E+00 -0.45593999997E+02  0.45594000000E+02  0.51100000000E-03 0. -1.
         23    2    1    2    0    0  0.00000000000E+00  0.00000000000E+00  0.00000000000E+00  0.91188000000E+02  0.91188000000E+02 0.  0.
    9900012    2    3    3    0    0  0.30340718115E+01  0.16545404685E+02  0.32753921436E+02  0.54367144804E+02  0.40000138209E+02 0.  0.
         12    1    3    3    0    0 -0.30340718115E+01 -0.16545404685E+02 -0.32753921436E+02  0.36820855196E+02  0.00000000000E+00 0. -1.
         11    1    4    4    0    0  0.55689089666E+01  0.20067419130E+02  0.10763391588E+02  0.23442795404E+02  0.51100000000E-03 0.  1.
        -11    1    4    4    0    0 -0.67503362816E+01 -0.36185312841E+01  0.24734740830E+02  0.25893400950E+02  0.51100000000E-03 0. -1.
         12    1    4    4    0    0  0.42154991265E+01  0.96516839176E-01 -0.27442109821E+01  0.50309484494E+01  0.00000000000E+00 0. -1.
</event>
<event>
 8    1  0.2504019E-006  0.9118800E+02  0.7816164E-02  0.1184000E+00
        -11   -1    0    0    0    0  0.00000000000E+00  0.00000000000E+00  0.45593999997E+02  0.45594000000E+02  0.51100000000E-03 0.  1.
         11   -1    0    0    0    0 -0.00000000000E+00 -0.00000000000E+00 -0.45593999997E+02  0.45594000000E+02  0.51100000000E-03 0. -1.
         23    2    1    2    0    0  0.00000000000E+00  0.00000000000E+00  0.00000000000E+00  0.91188000000E+02  0.91188000000E+02 0.  0.
    9900012    2    3    3    0    0  0.76530027896E+01 -0.17511858077E+02  0.31472948924E+02  0.54367080145E+02  0.39999990807E+02 0.  0.
         12    1    3    3    0    0 -0.76530027896E+01  0.17511858077E+02 -0.31472948924E+02  0.36820919855E+02  0.00000000000E+00 0. -1.
         11    1    4    4    0    0  0.64219748548E+01 -0.85662744646E+01  0.27614224563E+01  0.11056594118E+02  0.51100000000E-03 0. -1.
        -11    1    4    4    0    0 -0.10685849734E+02 -0.14109579825E+02  0.94076627302E+01  0.20044244702E+02  0.51100000000E-03 0.  1.
        -12    1    4    4    0    0  0.11916877668E+02  0.51639962126E+01  0.19303863737E+02  0.23266241326E+02  0.00000000000E+00 0.  1.
</event>
<event>
 8    1  0.2504019E-006  0.9118800E+02  0.7816164E-02  0.1184000E+00
        -11   -1    0    0    0    0  0.00000000000E+00  0.00000000000E+00  0.45593999997E+02  0.45594000000E+02  0.51100000000E-03 0. -1.
         11   -1    0    0    0    0 -0.00000000000E+00 -0.00000000000E+00 -0.45593999997E+02  0.45594000000E+02  0.51100000000E-03 0.  1.
         23    2    1    2    0    0  0.00000000000E+00  0.00000000000E+00  0.00000000000E+00  0.91188000000E+02  0.91188000000E+02 0.  0.
    9900012    2    3    3    0    0  0.18088439656E+02  0.17954768068E+02 -0.26574688266E+02  0.54367090152E+02  0.40000013620E+02 0.  0.
         12    1    3    3    0    0 -0.18088439656E+02 -0.17954768068E+02  0.26574688266E+02  0.36820909848E+02  0.00000000000E+00 0. -1.
         11    1    4    4    0    0  0.14120032626E+01  0.16221542554E+02 -0.62656351370E+01  0.17446787096E+02  0.51100000000E-03 0.  1.
        -11    1    4    4    0    0  0.87106455949E+01  0.52691134103E+01  0.41205766238E+01  0.10982625132E+02  0.51100000000E-03 0. -1.
        -12    1    4    4    0    0  0.79657907982E+01 -0.35358878960E+01 -0.24429629753E+02  0.25937677925E+02  0.00000000000E+00 0.  1.
</event>
<event>
 8    1  0.2504019E-006  0.9118800E+02  0.7816164E-02  0.1184000E+00
        -11   -1    0    0    0    0  0.00000000000E+00  0.00000000000E+00  0.45593999997E+02  0.45594000000E+02  0.51100000000E-03 0.  1.
         11   -1    0    0    0    0 -0.00000000000E+00 -0.00000000000E+00 -0.45593999997E+02  0.45594000000E+02  0.51100000000E-03 0. -1.
         23    2    1    2    0    0 -0.88817841970E-15  0.00000000000E+00  0.00000000000E+00  0.91188000000E+02  0.91188000000E+02 0.  0.
    9900012    2    3    3    0    0 -0.63130577557E+01  0.34992821547E+02  0.95617541466E+01  0.54367090174E+02  0.40000013670E+02 0.  0.
         12    1    3    3    0    0  0.63130577557E+01 -0.34992821547E+02 -0.95617541466E+01  0.36820909826E+02  0.00000000000E+00 0. -1.
         11    1    4    4    0    0 -0.30402983798E+01  0.39625555445E+02  0.11702545354E+02  0.41429188100E+02  0.51100000000E-03 0. -1.
        -11    1    4    4    0    0  0.22740568414E+00 -0.25710958436E+01  0.44799359349E+01  0.51703068985E+01  0.51100000000E-03 0.  1.
         12    1    4    4    0    0 -0.35001650600E+01 -0.20616380547E+01 -0.66207271426E+01  0.77675951757E+01  0.00000000000E+00 0. -1.
</event>
<event>
 8    1  0.2504019E-006  0.9118800E+02  0.7816164E-02  0.1184000E+00
        -11   -1    0    0    0    0  0.00000000000E+00  0.00000000000E+00  0.45593999997E+02  0.45594000000E+02  0.51100000000E-03 0.  1.
         11   -1    0    0    0    0 -0.00000000000E+00 -0.00000000000E+00 -0.45593999997E+02  0.45594000000E+02  0.51100000000E-03 0. -1.
         23    2    1    2    0    0  0.00000000000E+00  0.17763568394E-14 -0.35527136788E-14  0.91188000000E+02  0.91188000000E+02 0.  0.
    9900012    2    3    3    0    0  0.16203095100E+02  0.13961127309E+02 -0.29972068867E+02  0.54367105406E+02  0.40000048393E+02 0.  0.
        -12    1    3    3    0    0 -0.16203095100E+02 -0.13961127309E+02  0.29972068867E+02  0.36820894594E+02  0.00000000000E+00 0.  1.
         11    1    4    4    0    0  0.70635934992E+01 -0.53873994500E+00 -0.18960348288E+02  0.20240538563E+02  0.51100000000E-03 0. -1.
        -11    1    4    4    0    0  0.20476756865E+00  0.90986301501E+01  0.82071335868E+01  0.12254959908E+02  0.51100000000E-03 0.  1.
        -12    1    4    4    0    0  0.89347340319E+01  0.54012371040E+01 -0.19218854166E+02  0.21871606935E+02  0.00000000000E+00 0.  1.
</event>
<event>
 8    1  0.2504019E-006  0.9118800E+02  0.7816164E-02  0.1184000E+00
        -11   -1    0    0    0    0  0.00000000000E+00  0.00000000000E+00  0.45593999997E+02  0.45594000000E+02  0.51100000000E-03 0. -1.
         11   -1    0    0    0    0 -0.00000000000E+00 -0.00000000000E+00 -0.45593999997E+02  0.45594000000E+02  0.51100000000E-03 0.  1.
         23    2    1    2    0    0  0.00000000000E+00 -0.35527136788E-14 -0.35527136788E-14  0.91188000000E+02  0.91188000000E+02 0.  0.
    9900012    2    3    3    0    0 -0.28334653307E+02  0.16924508368E+02  0.16324475674E+02  0.54367081115E+02  0.39999993018E+02 0.  0.
        -12    1    3    3    0    0  0.28334653307E+02 -0.16924508368E+02 -0.16324475674E+02  0.36820918885E+02  0.00000000000E+00 0.  1.
         11    1    4    4    0    0 -0.12949226443E+02  0.16453008974E+02  0.13611833042E+02  0.24973305124E+02  0.51100000000E-03 0. -1.
        -11    1    4    4    0    0 -0.18972501334E+02 -0.47227779488E+01 -0.42368912706E+01  0.20005291458E+02  0.51100000000E-03 0.  1.
         12    1    4    4    0    0  0.35870744704E+01  0.51942773431E+01  0.69495339021E+01  0.93884845332E+01  0.00000000000E+00 0. -1.
</event>
<event>
 8    1  0.2504019E-006  0.9118800E+02  0.7816164E-02  0.1184000E+00
        -11   -1    0    0    0    0  0.00000000000E+00  0.00000000000E+00  0.45593999997E+02  0.45594000000E+02  0.51100000000E-03 0.  1.
         11   -1    0    0    0    0 -0.00000000000E+00 -0.00000000000E+00 -0.45593999997E+02  0.45594000000E+02  0.51100000000E-03 0. -1.
         23    2    1    2    0    0  0.00000000000E+00  0.00000000000E+00  0.00000000000E+00  0.91188000000E+02  0.91188000000E+02 0.  0.
    9900012    2    3    3    0    0  0.23862492115E+02  0.17217541180E+02  0.22134080272E+02  0.54367085240E+02  0.40000002423E+02 0.  0.
         12    1    3    3    0    0 -0.23862492115E+02 -0.17217541180E+02 -0.22134080272E+02  0.36820914760E+02  0.00000000000E+00 0. -1.
         11    1    4    4    0    0 -0.59910948170E+01  0.13397883471E+02  0.59901071044E+01  0.15851746970E+02  0.51100000000E-03 0. -1.
        -11    1    4    4    0    0  0.26378364471E+01  0.33102329310E+01 -0.30423173878E+01  0.52126306726E+01  0.51100000000E-03 0.  1.
         12    1    4    4    0    0  0.27215750485E+02  0.50942477792E+00  0.19186290555E+02  0.33302707598E+02  0.00000000000E+00 0. -1.
</event>
<event>
 8    1  0.2504019E-006  0.9118800E+02  0.7816164E-02  0.1184000E+00
        -11   -1    0    0    0    0  0.00000000000E+00  0.00000000000E+00  0.45593999997E+02  0.45594000000E+02  0.51100000000E-03 0.  1.
         11   -1    0    0    0    0 -0.00000000000E+00 -0.00000000000E+00 -0.45593999997E+02  0.45594000000E+02  0.51100000000E-03 0. -1.
         23    2    1    2    0    0  0.88817841970E-15  0.00000000000E+00  0.00000000000E+00  0.91188000000E+02  0.91188000000E+02 0.  0.
    9900012    2    3    3    0    0  0.75843280775E+01 -0.13229814035E+02  0.33514608118E+02  0.54367096031E+02  0.40000027021E+02 0.  0.
         12    1    3    3    0    0 -0.75843280775E+01  0.13229814035E+02 -0.33514608118E+02  0.36820903969E+02  0.00000000000E+00 0. -1.
         11    1    4    4    0    0 -0.37666998901E+01 -0.11272593712E+02 -0.43932215169E+01  0.12671219066E+02  0.51100000000E-03 0. -1.
        -11    1    4    4    0    0  0.20367417229E+01  0.25377180621E+01  0.24735526682E+02  0.24948639448E+02  0.51100000000E-03 0.  1.
        -12    1    4    4    0    0  0.93142862447E+01 -0.44949383850E+01  0.13172302953E+02  0.16747237516E+02  0.00000000000E+00 0.  1.
</event>
<event>
 8    1  0.2504019E-006  0.9118800E+02  0.7816164E-02  0.1184000E+00
        -11   -1    0    0    0    0  0.00000000000E+00  0.00000000000E+00  0.45593999997E+02  0.45594000000E+02  0.51100000000E-03 0.  1.
         11   -1    0    0    0    0 -0.00000000000E+00 -0.00000000000E+00 -0.45593999997E+02  0.45594000000E+02  0.51100000000E-03 0. -1.
         23    2    1    2    0    0  0.00000000000E+00  0.00000000000E+00  0.35527136788E-14  0.91188000000E+02  0.91188000000E+02 0.  0.
    9900012    2    3    3    0    0 -0.26082973080E+02  0.10165271247E+02 -0.23919135631E+02  0.54367091896E+02  0.40000017596E+02 0.  0.
        -12    1    3    3    0    0  0.26082973080E+02 -0.10165271247E+02  0.23919135631E+02  0.36820908104E+02  0.00000000000E+00 0.  1.
         11    1    4    4    0    0 -0.20623172525E+02  0.15651193832E+02 -0.42933044667E+01  0.26243238688E+02  0.51100000000E-03 0. -1.
        -11    1    4    4    0    0  0.29752374274E+01  0.29042849128E+01 -0.14648918554E+02  0.15227531766E+02  0.51100000000E-03 0.  1.
         12    1    4    4    0    0 -0.84350379829E+01 -0.83902074974E+01 -0.49769126105E+01  0.12896321443E+02  0.00000000000E+00 0. -1.
</event>
<event>
 8    1  0.2504019E-006  0.9118800E+02  0.7816164E-02  0.1184000E+00
        -11   -1    0    0    0    0  0.00000000000E+00  0.00000000000E+00  0.45593999997E+02  0.45594000000E+02  0.51100000000E-03 0. -1.
         11   -1    0    0    0    0 -0.00000000000E+00 -0.00000000000E+00 -0.45593999997E+02  0.45594000000E+02  0.51100000000E-03 0.  1.
         23    2    1    2    0    0  0.35527136788E-14 -0.35527136788E-14  0.35527136788E-14  0.91188000000E+02  0.91188000000E+02 0.  0.
    9900012    2    3    3    0    0  0.17528952835E+02  0.12315501355E+02  0.29947378865E+02  0.54367064895E+02  0.39999956041E+02 0.  0.
        -12    1    3    3    0    0 -0.17528952835E+02 -0.12315501355E+02 -0.29947378865E+02  0.36820935105E+02  0.00000000000E+00 0.  1.
         11    1    4    4    0    0  0.86438781416E+01 -0.36976436534E+01  0.67124824649E+01  0.11551909756E+02  0.51100000000E-03 0. -1.
        -11    1    4    4    0    0 -0.11289219063E+01 -0.47038280589E+01  0.18760182946E+02  0.19373820674E+02  0.51100000000E-03 0.  1.
        -12    1    4    4    0    0  0.10013996600E+02  0.20716973068E+02  0.44747134542E+01  0.23441334465E+02  0.00000000000E+00 0.  1.
</event>
<event>
 8    1  0.2504019E-006  0.9118800E+02  0.7816164E-02  0.1184000E+00
        -11   -1    0    0    0    0  0.00000000000E+00  0.00000000000E+00  0.45593999997E+02  0.45594000000E+02  0.51100000000E-03 0.  1.
         11   -1    0    0    0    0 -0.00000000000E+00 -0.00000000000E+00 -0.45593999997E+02  0.45594000000E+02  0.51100000000E-03 0. -1.
         23    2    1    2    0    0  0.17763568394E-14  0.00000000000E+00  0.88817841970E-15  0.91188000000E+02  0.91188000000E+02 0.  0.
    9900012    2    3    3    0    0  0.73941809144E+01  0.35764305299E+02  0.46925496320E+01  0.54367089270E+02  0.40000011610E+02 0.  0.
        -12    1    3    3    0    0 -0.73941809144E+01 -0.35764305299E+02 -0.46925496320E+01  0.36820910730E+02  0.00000000000E+00 0.  1.
         11    1    4    4    0    0  0.14871456939E+02  0.13292652418E+02  0.38096393608E+01  0.20306850866E+02  0.51100000000E-03 0. -1.
        -11    1    4    4    0    0  0.71320053838E+01  0.26757354901E+01  0.50046105558E+01  0.91143397064E+01  0.51100000000E-03 0.  1.
        -12    1    4    4    0    0 -0.14609281408E+02  0.19795917391E+02 -0.41217002846E+01  0.24945898698E+02  0.00000000000E+00 0.  1.
</event>
<event>
 8    1  0.2504019E-006  0.9118800E+02  0.7816164E-02  0.1184000E+00
        -11   -1    0    0    0    0  0.00000000000E+00  0.00000000000E+00  0.45593999997E+02  0.45594000000E+02  0.51100000000E-03 0.  1.
         11   -1    0    0    0    0 -0.00000000000E+00 -0.00000000000E+00 -0.45593999997E+02  0.45594000000E+02  0.51100000000E-03 0. -1.
         23    2    1    2    0    0 -0.35527136788E-14  0.00000000000E+00 -0.71054273576E-14  0.91188000000E+02  0.91188000000E+02 0.  0.
    9900012    2    3    3    0    0  0.10044642931E+02  0.99106259294E+01  0.34009757491E+02  0.54367096120E+02  0.40000027225E+02 0.  0.
         12    1    3    3    0    0 -0.10044642931E+02 -0.99106259294E+01 -0.34009757491E+02  0.36820903880E+02  0.00000000000E+00 0. -1.
         11    1    4    4    0    0 -0.65927097726E+01  0.17140758786E+01 -0.12216532756E+01  0.69205718875E+01  0.51100000000E-03 0. -1.
        -11    1    4    4    0    0  0.22275872021E+02  0.65152155571E+01  0.18405027080E+02  0.29621065648E+02  0.51100000000E-03 0.  1.
        -12    1    4    4    0    0 -0.56385193173E+01  0.16813344937E+01  0.16826383687E+02  0.17825458584E+02  0.00000000000E+00 0.  1.
</event>
<event>
 8    1  0.2504019E-006  0.9118800E+02  0.7816164E-02  0.1184000E+00
        -11   -1    0    0    0    0  0.00000000000E+00  0.00000000000E+00  0.45593999997E+02  0.45594000000E+02  0.51100000000E-03 0.  1.
         11   -1    0    0    0    0 -0.00000000000E+00 -0.00000000000E+00 -0.45593999997E+02  0.45594000000E+02  0.51100000000E-03 0. -1.
         23    2    1    2    0    0  0.17763568394E-14  0.00000000000E+00  0.00000000000E+00  0.91188000000E+02  0.91188000000E+02 0.  0.
    9900012    2    3    3    0    0 -0.97141896092E+01  0.35444800286E+02 -0.22539949487E+01  0.54367084201E+02  0.40000000052E+02 0.  0.
         12    1    3    3    0    0  0.97141896092E+01 -0.35444800286E+02  0.22539949487E+01  0.36820915799E+02  0.00000000000E+00 0. -1.
         11    1    4    4    0    0 -0.19311166555E+02  0.11187076296E+02 -0.10384660354E+02  0.24615300134E+02  0.51100000000E-03 0. -1.
        -11    1    4    4    0    0  0.77269847718E+01  0.11627853587E+02 -0.10887316541E+01  0.14003521328E+02  0.51100000000E-03 0.  1.
        -12    1    4    4    0    0  0.18699921741E+01  0.12629870403E+02  0.92193970597E+01  0.15748262738E+02  0.00000000000E+00 0.  1.
</event>
<event>
 8    1  0.2504019E-006  0.9118800E+02  0.7816164E-02  0.1184000E+00
        -11   -1    0    0    0    0  0.00000000000E+00  0.00000000000E+00  0.45593999997E+02  0.45594000000E+02  0.51100000000E-03 0.  1.
         11   -1    0    0    0    0 -0.00000000000E+00 -0.00000000000E+00 -0.45593999997E+02  0.45594000000E+02  0.51100000000E-03 0. -1.
         23    2    1    2    0    0  0.00000000000E+00  0.00000000000E+00  0.00000000000E+00  0.91188000000E+02  0.91188000000E+02 0.  0.
    9900012    2    3    3    0    0  0.34634962304E+02 -0.75393493047E+01 -0.99678857281E+01  0.54367066448E+02  0.39999959581E+02 0.  0.
        -12    1    3    3    0    0 -0.34634962304E+02  0.75393493047E+01  0.99678857281E+01  0.36820933552E+02  0.00000000000E+00 0.  1.
         11    1    4    4    0    0  0.16540338979E+02 -0.14332690229E+02 -0.68946779397E+01  0.22946577237E+02  0.51100000000E-03 0. -1.
        -11    1    4    4    0    0 -0.47303188934E+00 -0.65800772439E+01 -0.52550562376E+01  0.84342629806E+01  0.51100000000E-03 0.  1.
         12    1    4    4    0    0  0.18567655215E+02  0.13373418168E+02  0.21818484492E+01  0.22986226231E+02  0.00000000000E+00 0. -1.
</event>
<event>
 8    1  0.2504019E-006  0.9118800E+02  0.7816164E-02  0.1184000E+00
        -11   -1    0    0    0    0  0.00000000000E+00  0.00000000000E+00  0.45593999997E+02  0.45594000000E+02  0.51100000000E-03 0.  1.
         11   -1    0    0    0    0 -0.00000000000E+00 -0.00000000000E+00 -0.45593999997E+02  0.45594000000E+02  0.51100000000E-03 0. -1.
         23    2    1    2    0    0  0.17763568394E-14  0.35527136788E-14  0.35527136788E-14  0.91188000000E+02  0.91188000000E+02 0.  0.
    9900012    2    3    3    0    0 -0.14346858132E+02 -0.31067158432E+02 -0.13593371768E+02  0.54367076229E+02  0.39999981880E+02 0.  0.
        -12    1    3    3    0    0  0.14346858132E+02  0.31067158432E+02  0.13593371768E+02  0.36820923771E+02  0.00000000000E+00 0.  1.
         11    1    4    4    0    0 -0.94159319681E+00 -0.28150684147E+02  0.34359804903E+01  0.28375228244E+02  0.51100000000E-03 0. -1.
        -11    1    4    4    0    0 -0.13512537835E+02 -0.71749249232E+01 -0.14233940368E+02  0.20896729051E+02  0.51100000000E-03 0.  1.
         12    1    4    4    0    0  0.10727289931E+00  0.42584506382E+01 -0.27954118900E+01  0.50951189336E+01  0.00000000000E+00 0. -1.
</event>
<event>
 8    1  0.2504019E-006  0.9118800E+02  0.7816164E-02  0.1184000E+00
        -11   -1    0    0    0    0  0.00000000000E+00  0.00000000000E+00  0.45593999997E+02  0.45594000000E+02  0.51100000000E-03 0. -1.
         11   -1    0    0    0    0 -0.00000000000E+00 -0.00000000000E+00 -0.45593999997E+02  0.45594000000E+02  0.51100000000E-03 0.  1.
         23    2    1    2    0    0  0.00000000000E+00  0.00000000000E+00  0.88817841970E-15  0.91188000000E+02  0.91188000000E+02 0.  0.
    9900012    2    3    3    0    0  0.35781349022E+02  0.72180055280E+01 -0.48348034942E+01  0.54367083846E+02  0.39999999243E+02 0.  0.
         12    1    3    3    0    0 -0.35781349022E+02 -0.72180055280E+01  0.48348034942E+01  0.36820916154E+02  0.00000000000E+00 0. -1.
         11    1    4    4    0    0 -0.33399846043E+01  0.33032996710E+01 -0.36284960118E+01  0.59357619092E+01  0.51100000000E-03 0. -1.
        -11    1    4    4    0    0  0.19716434836E+02  0.10838032595E+02  0.10397632046E+02  0.24785308261E+02  0.51100000000E-03 0.  1.
        -12    1    4    4    0    0  0.19404898790E+02 -0.69233267377E+01 -0.11603939528E+02  0.23646013675E+02  0.00000000000E+00 0.  1.
</event>
<event>
 8    1  0.2504019E-006  0.9118800E+02  0.7816164E-02  0.1184000E+00
        -11   -1    0    0    0    0  0.00000000000E+00  0.00000000000E+00  0.45593999997E+02  0.45594000000E+02  0.51100000000E-03 0. -1.
         11   -1    0    0    0    0 -0.00000000000E+00 -0.00000000000E+00 -0.45593999997E+02  0.45594000000E+02  0.51100000000E-03 0.  1.
         23    2    1    2    0    0  0.00000000000E+00  0.00000000000E+00  0.71054273576E-14  0.91188000000E+02  0.91188000000E+02 0.  0.
    9900012    2    3    3    0    0 -0.41666408969E+01 -0.12001309362E+02 -0.34559900868E+02  0.54367094651E+02  0.40000023875E+02 0.  0.
         12    1    3    3    0    0  0.41666408969E+01  0.12001309362E+02  0.34559900868E+02  0.36820905349E+02  0.00000000000E+00 0. -1.
         11    1    4    4    0    0 -0.72088424806E+01  0.70565971932E+01  0.23081730124E+00  0.10090403894E+02  0.51100000000E-03 0. -1.
        -11    1    4    4    0    0 -0.71234519639E+01 -0.61922940610E+01 -0.20329165352E+02  0.22413456623E+02  0.51100000000E-03 0.  1.
        -12    1    4    4    0    0  0.10165653548E+02 -0.12865612495E+02 -0.14461552817E+02  0.21863234134E+02  0.00000000000E+00 0.  1.
</event>
<event>
 8    1  0.2504019E-006  0.9118800E+02  0.7816164E-02  0.1184000E+00
        -11   -1    0    0    0    0  0.00000000000E+00  0.00000000000E+00  0.45593999997E+02  0.45594000000E+02  0.51100000000E-03 0. -1.
         11   -1    0    0    0    0 -0.00000000000E+00 -0.00000000000E+00 -0.45593999997E+02  0.45594000000E+02  0.51100000000E-03 0.  1.
         23    2    1    2    0    0  0.00000000000E+00  0.00000000000E+00  0.00000000000E+00  0.91188000000E+02  0.91188000000E+02 0.  0.
    9900012    2    3    3    0    0 -0.10791719402E+01  0.43182944032E+01 -0.36550802999E+02  0.54367170589E+02  0.40000196992E+02 0.  0.
         12    1    3    3    0    0  0.10791719402E+01 -0.43182944032E+01  0.36550802999E+02  0.36820829411E+02  0.00000000000E+00 0. -1.
         11    1    4    4    0    0 -0.15504181003E+01  0.61573377211E+01 -0.48181220305E+01  0.79706275951E+01  0.51100000000E-03 0. -1.
        -11    1    4    4    0    0  0.21175346066E+01  0.12382668259E+02 -0.29293509316E+02  0.31873564506E+02  0.51100000000E-03 0.  1.
        -12    1    4    4    0    0 -0.16462884465E+01 -0.14221711577E+02 -0.24391716527E+01  0.14522978489E+02  0.00000000000E+00 0.  1.
</event>
<event>
 8    1  0.2504019E-006  0.9118800E+02  0.7816164E-02  0.1184000E+00
        -11   -1    0    0    0    0  0.00000000000E+00  0.00000000000E+00  0.45593999997E+02  0.45594000000E+02  0.51100000000E-03 0.  1.
         11   -1    0    0    0    0 -0.00000000000E+00 -0.00000000000E+00 -0.45593999997E+02  0.45594000000E+02  0.51100000000E-03 0. -1.
         23    2    1    2    0    0  0.17763568394E-14  0.00000000000E+00  0.00000000000E+00  0.91188000000E+02  0.91188000000E+02 0.  0.
    9900012    2    3    3    0    0 -0.85363257899E+01  0.31649103607E+02 -0.16770350554E+02  0.54367091879E+02  0.40000017557E+02 0.  0.
         12    1    3    3    0    0  0.85363257899E+01 -0.31649103607E+02  0.16770350554E+02  0.36820908121E+02  0.00000000000E+00 0. -1.
         11    1    4    4    0    0  0.10448885411E+02  0.39905629642E+01  0.63962681866E+01  0.12884721420E+02  0.51100000000E-03 0. -1.
        -11    1    4    4    0    0 -0.11639719866E+02  0.19418325217E+02 -0.11398731292E+02  0.25347297847E+02  0.51100000000E-03 0.  1.
        -12    1    4    4    0    0 -0.73454913346E+01  0.82402154260E+01 -0.11767887448E+02  0.16135072613E+02  0.00000000000E+00 0.  1.
</event>
<event>
 8    1  0.2504019E-006  0.9118800E+02  0.7816164E-02  0.1184000E+00
        -11   -1    0    0    0    0  0.00000000000E+00  0.00000000000E+00  0.45593999997E+02  0.45594000000E+02  0.51100000000E-03 0. -1.
         11   -1    0    0    0    0 -0.00000000000E+00 -0.00000000000E+00 -0.45593999997E+02  0.45594000000E+02  0.51100000000E-03 0.  1.
         23    2    1    2    0    0 -0.17763568394E-14  0.88817841970E-15 -0.71054273576E-14  0.91188000000E+02  0.91188000000E+02 0.  0.
    9900012    2    3    3    0    0  0.63621703265E+01  0.69185055602E+01 -0.35601078812E+02  0.54367085522E+02  0.40000003064E+02 0.  0.
         12    1    3    3    0    0 -0.63621703265E+01 -0.69185055602E+01  0.35601078812E+02  0.36820914478E+02  0.00000000000E+00 0. -1.
         11    1    4    4    0    0  0.14765528758E+02  0.66407404004E+00 -0.23611195950E+01  0.14967856220E+02  0.51100000000E-03 0. -1.
        -11    1    4    4    0    0  0.12102332862E+01  0.10344809270E+02 -0.19840176083E+02  0.22407863145E+02  0.51100000000E-03 0.  1.
         12    1    4    4    0    0 -0.96135917176E+01 -0.40903777499E+01 -0.13399783133E+02  0.16991366157E+02  0.00000000000E+00 0. -1.
</event>
<event>
 8    1  0.2504019E-006  0.9118800E+02  0.7816164E-02  0.1184000E+00
        -11   -1    0    0    0    0  0.00000000000E+00  0.00000000000E+00  0.45593999997E+02  0.45594000000E+02  0.51100000000E-03 0. -1.
         11   -1    0    0    0    0 -0.00000000000E+00 -0.00000000000E+00 -0.45593999997E+02  0.45594000000E+02  0.51100000000E-03 0.  1.
         23    2    1    2    0    0  0.00000000000E+00  0.00000000000E+00  0.00000000000E+00  0.91188000000E+02  0.91188000000E+02 0.  0.
    9900012    2    3    3    0    0 -0.17681754347E+02 -0.86161603140E+01  0.31127104215E+02  0.54367091915E+02  0.40000017639E+02 0.  0.
        -12    1    3    3    0    0  0.17681754347E+02  0.86161603140E+01 -0.31127104215E+02  0.36820908085E+02  0.00000000000E+00 0.  1.
         11    1    4    4    0    0 -0.63190325847E+01  0.10197247398E+00  0.25617541687E+01  0.68193222445E+01  0.51100000000E-03 0. -1.
        -11    1    4    4    0    0  0.10754195608E+02 -0.44751095810E+01  0.20591086901E+02  0.23657391846E+02  0.51100000000E-03 0.  1.
        -12    1    4    4    0    0 -0.22116917370E+02 -0.42430232070E+01  0.79742631460E+01  0.23890377825E+02  0.00000000000E+00 0.  1.
</event>
<event>
 8    1  0.2504019E-006  0.9118800E+02  0.7816164E-02  0.1184000E+00
        -11   -1    0    0    0    0  0.00000000000E+00  0.00000000000E+00  0.45593999997E+02  0.45594000000E+02  0.51100000000E-03 0. -1.
         11   -1    0    0    0    0 -0.00000000000E+00 -0.00000000000E+00 -0.45593999997E+02  0.45594000000E+02  0.51100000000E-03 0.  1.
         23    2    1    2    0    0  0.44408920985E-15  0.00000000000E+00  0.00000000000E+00  0.91188000000E+02  0.91188000000E+02 0.  0.
    9900012    2    3    3    0    0  0.12244839861E+01 -0.27100534753E+02 -0.24896628903E+02  0.54367075573E+02  0.39999980383E+02 0.  0.
         12    1    3    3    0    0 -0.12244839861E+01  0.27100534753E+02  0.24896628903E+02  0.36820924427E+02  0.00000000000E+00 0. -1.
         11    1    4    4    0    0 -0.15473198507E+00 -0.12813918663E+02 -0.13538804674E+02  0.18641879888E+02  0.51100000000E-03 0. -1.
        -11    1    4    4    0    0  0.14686394579E+02 -0.11030460783E+02 -0.12117420654E+02  0.22004388980E+02  0.51100000000E-03 0.  1.
         12    1    4    4    0    0 -0.13307178608E+02 -0.32561553074E+01  0.75959642525E+00  0.13720806705E+02  0.00000000000E+00 0. -1.
</event>
<event>
 8    1  0.2504019E-006  0.9118800E+02  0.7816164E-02  0.1184000E+00
        -11   -1    0    0    0    0  0.00000000000E+00  0.00000000000E+00  0.45593999997E+02  0.45594000000E+02  0.51100000000E-03 0. -1.
         11   -1    0    0    0    0 -0.00000000000E+00 -0.00000000000E+00 -0.45593999997E+02  0.45594000000E+02  0.51100000000E-03 0.  1.
         23    2    1    2    0    0  0.35527136788E-14  0.88817841970E-15  0.00000000000E+00  0.91188000000E+02  0.91188000000E+02 0.  0.
    9900012    2    3    3    0    0 -0.17152201443E+02 -0.50746921698E+01  0.32184297777E+02  0.54367088300E+02  0.40000009399E+02 0.  0.
        -12    1    3    3    0    0  0.17152201443E+02  0.50746921698E+01 -0.32184297777E+02  0.36820911700E+02  0.00000000000E+00 0.  1.
         11    1    4    4    0    0 -0.59992032720E+01 -0.14552618718E+02  0.15508882664E+02  0.22097388832E+02  0.51100000000E-03 0. -1.
        -11    1    4    4    0    0  0.30359541939E+01  0.12669665439E+02  0.89010638570E+01  0.15778668457E+02  0.51100000000E-03 0.  1.
         12    1    4    4    0    0 -0.14188952365E+02 -0.31917388912E+01  0.77743512560E+01  0.16491031012E+02  0.00000000000E+00 0. -1.
</event>
<event>
 8    1  0.2504019E-006  0.9118800E+02  0.7816164E-02  0.1184000E+00
        -11   -1    0    0    0    0  0.00000000000E+00  0.00000000000E+00  0.45593999997E+02  0.45594000000E+02  0.51100000000E-03 0. -1.
         11   -1    0    0    0    0 -0.00000000000E+00 -0.00000000000E+00 -0.45593999997E+02  0.45594000000E+02  0.51100000000E-03 0.  1.
         23    2    1    2    0    0  0.00000000000E+00 -0.35527136788E-14  0.00000000000E+00  0.91188000000E+02  0.91188000000E+02 0.  0.
    9900012    2    3    3    0    0 -0.21079299697E+02  0.21879643206E+02 -0.20802012147E+02  0.54367090561E+02  0.40000014552E+02 0.  0.
         12    1    3    3    0    0  0.21079299697E+02 -0.21879643206E+02  0.20802012147E+02  0.36820909439E+02  0.00000000000E+00 0. -1.
         11    1    4    4    0    0  0.20259139498E+01 -0.12306765375E+01 -0.70011074334E+01  0.73915084812E+01  0.51100000000E-03 0. -1.
        -11    1    4    4    0    0 -0.16669477632E+02  0.25650588819E+02  0.10316706549E+01  0.30608634989E+02  0.51100000000E-03 0.  1.
        -12    1    4    4    0    0 -0.64357360150E+01 -0.25402690749E+01 -0.14832575368E+02  0.16366947091E+02  0.00000000000E+00 0.  1.
</event>
<event>
 8    1  0.2504019E-006  0.9118800E+02  0.7816164E-02  0.1184000E+00
        -11   -1    0    0    0    0  0.00000000000E+00  0.00000000000E+00  0.45593999997E+02  0.45594000000E+02  0.51100000000E-03 0.  1.
         11   -1    0    0    0    0 -0.00000000000E+00 -0.00000000000E+00 -0.45593999997E+02  0.45594000000E+02  0.51100000000E-03 0. -1.
         23    2    1    2    0    0  0.13322676296E-14  0.35527136788E-14  0.35527136788E-14  0.91188000000E+02  0.91188000000E+02 0.  0.
    9900012    2    3    3    0    0 -0.18865983762E+01 -0.18242033618E+02 -0.31928902356E+02  0.54367002599E+02  0.39999814025E+02 0.  0.
        -12    1    3    3    0    0  0.18865983762E+01  0.18242033618E+02  0.31928902356E+02  0.36820997401E+02  0.00000000000E+00 0.  1.
         11    1    4    4    0    0  0.10130482889E+02 -0.97336632625E+01 -0.27491173008E+02  0.30872892280E+02  0.51100000000E-03 0. -1.
        -11    1    4    4    0    0 -0.10354965498E+02 -0.24726487618E+01 -0.10375460087E+02  0.14865714737E+02  0.51100000000E-03 0.  1.
         12    1    4    4    0    0 -0.16621157673E+01 -0.60357215935E+01  0.59377307403E+01  0.86283955822E+01  0.00000000000E+00 0. -1.
</event>
<event>
 8    1  0.2504019E-006  0.9118800E+02  0.7816164E-02  0.1184000E+00
        -11   -1    0    0    0    0  0.00000000000E+00  0.00000000000E+00  0.45593999997E+02  0.45594000000E+02  0.51100000000E-03 0.  1.
         11   -1    0    0    0    0 -0.00000000000E+00 -0.00000000000E+00 -0.45593999997E+02  0.45594000000E+02  0.51100000000E-03 0. -1.
         23    2    1    2    0    0  0.00000000000E+00  0.00000000000E+00  0.17763568394E-14  0.91188000000E+02  0.91188000000E+02 0.  0.
    9900012    2    3    3    0    0 -0.31707848159E+02  0.14971413786E+02  0.11236122255E+02  0.54367064258E+02  0.39999954588E+02 0.  0.
         12    1    3    3    0    0  0.31707848159E+02 -0.14971413786E+02 -0.11236122255E+02  0.36820935742E+02  0.00000000000E+00 0. -1.
         11    1    4    4    0    0 -0.18914833663E+02  0.60619022289E+01 -0.41911516947E+01  0.20299836057E+02  0.51100000000E-03 0. -1.
        -11    1    4    4    0    0  0.55692213708E+01  0.74824482474E+01 -0.10090710175E+01  0.93819764992E+01  0.51100000000E-03 0.  1.
        -12    1    4    4    0    0 -0.18362235866E+02  0.14270633100E+01  0.16436344967E+02  0.24685251702E+02  0.00000000000E+00 0.  1.
</event>
<event>
 8    1  0.2504019E-006  0.9118800E+02  0.7816164E-02  0.1184000E+00
        -11   -1    0    0    0    0  0.00000000000E+00  0.00000000000E+00  0.45593999997E+02  0.45594000000E+02  0.51100000000E-03 0.  1.
         11   -1    0    0    0    0 -0.00000000000E+00 -0.00000000000E+00 -0.45593999997E+02  0.45594000000E+02  0.51100000000E-03 0. -1.
         23    2    1    2    0    0  0.00000000000E+00 -0.27755575616E-15  0.00000000000E+00  0.91188000000E+02  0.91188000000E+02 0.  0.
    9900012    2    3    3    0    0 -0.99102257963E+01 -0.27374476068E+00  0.35461214098E+02  0.54367011192E+02  0.39999833613E+02 0.  0.
         12    1    3    3    0    0  0.99102257963E+01  0.27374476068E+00 -0.35461214098E+02  0.36820988808E+02  0.00000000000E+00 0. -1.
         11    1    4    4    0    0 -0.63990078984E+01 -0.76263917000E+01  0.16448616916E+01  0.10090328176E+02  0.51100000000E-03 0. -1.
        -11    1    4    4    0    0  0.17882572873E+01 -0.46693338537E+01  0.30253574286E+02  0.30663973978E+02  0.51100000000E-03 0.  1.
        -12    1    4    4    0    0 -0.52994751852E+01  0.12021980793E+02  0.35627781205E+01  0.13612709038E+02  0.00000000000E+00 0.  1.
</event>
<event>
 8    1  0.2504019E-006  0.9118800E+02  0.7816164E-02  0.1184000E+00
        -11   -1    0    0    0    0  0.00000000000E+00  0.00000000000E+00  0.45593999997E+02  0.45594000000E+02  0.51100000000E-03 0.  1.
         11   -1    0    0    0    0 -0.00000000000E+00 -0.00000000000E+00 -0.45593999997E+02  0.45594000000E+02  0.51100000000E-03 0. -1.
         23    2    1    2    0    0 -0.35527136788E-14  0.00000000000E+00  0.35527136788E-14  0.91188000000E+02  0.91188000000E+02 0.  0.
    9900012    2    3    3    0    0  0.18901671075E+02 -0.25846240823E+02 -0.18179097363E+02  0.54367069607E+02  0.39999966782E+02 0.  0.
        -12    1    3    3    0    0 -0.18901671075E+02  0.25846240823E+02  0.18179097363E+02  0.36820930393E+02  0.00000000000E+00 0.  1.
         11    1    4    4    0    0  0.65044211455E+01 -0.30794424882E+02 -0.95810615999E+01  0.32899860788E+02  0.51100000000E-03 0. -1.
        -11    1    4    4    0    0  0.37971930210E+01 -0.40438383606E+00  0.38471596082E+01  0.54205939193E+01  0.51100000000E-03 0.  1.
        -12    1    4    4    0    0  0.86000569085E+01  0.53525678947E+01 -0.12445195371E+02  0.16046614899E+02  0.00000000000E+00 0.  1.
</event>
<event>
 8    1  0.2504019E-006  0.9118800E+02  0.7816164E-02  0.1184000E+00
        -11   -1    0    0    0    0  0.00000000000E+00  0.00000000000E+00  0.45593999997E+02  0.45594000000E+02  0.51100000000E-03 0.  1.
         11   -1    0    0    0    0 -0.00000000000E+00 -0.00000000000E+00 -0.45593999997E+02  0.45594000000E+02  0.51100000000E-03 0. -1.
         23    2    1    2    0    0  0.11102230246E-14  0.00000000000E+00  0.14210854715E-13  0.91188000000E+02  0.91188000000E+02 0.  0.
    9900012    2    3    3    0    0  0.16183015316E+01 -0.21134012063E+02 -0.30108394306E+02  0.54367071530E+02  0.39999971166E+02 0.  0.
        -12    1    3    3    0    0 -0.16183015316E+01  0.21134012063E+02  0.30108394306E+02  0.36820928470E+02  0.00000000000E+00 0.  1.
         11    1    4    4    0    0 -0.10027019834E+02 -0.15069485387E+02 -0.27616323944E+02  0.33019567911E+02  0.51100000000E-03 0. -1.
        -11    1    4    4    0    0  0.80220012484E+01 -0.53806197637E+01  0.64905854097E+01  0.11637494245E+02  0.51100000000E-03 0.  1.
        -12    1    4    4    0    0  0.36233201173E+01 -0.68390691249E+00 -0.89826557719E+01  0.97100093745E+01  0.00000000000E+00 0.  1.
</event>
<event>
 8    1  0.2504019E-006  0.9118800E+02  0.7816164E-02  0.1184000E+00
        -11   -1    0    0    0    0  0.00000000000E+00  0.00000000000E+00  0.45593999997E+02  0.45594000000E+02  0.51100000000E-03 0.  1.
         11   -1    0    0    0    0 -0.00000000000E+00 -0.00000000000E+00 -0.45593999997E+02  0.45594000000E+02  0.51100000000E-03 0. -1.
         23    2    1    2    0    0 -0.17763568394E-14  0.00000000000E+00  0.35527136788E-14  0.91188000000E+02  0.91188000000E+02 0.  0.
    9900012    2    3    3    0    0  0.35398983919E+01  0.20063391765E+02  0.30670974411E+02  0.54367092338E+02  0.40000018603E+02 0.  0.
         12    1    3    3    0    0 -0.35398983919E+01 -0.20063391765E+02 -0.30670974411E+02  0.36820907662E+02  0.00000000000E+00 0. -1.
         11    1    4    4    0    0 -0.24626831649E+01 -0.21051519684E+01  0.11710393501E+01  0.34449683019E+01  0.51100000000E-03 0. -1.
        -11    1    4    4    0    0  0.20381217842E+02  0.10160347799E+02  0.16175330894E+02  0.27933278323E+02  0.51100000000E-03 0.  1.
        -12    1    4    4    0    0 -0.14378636285E+02  0.12008195934E+02  0.13324604167E+02  0.22988845713E+02  0.00000000000E+00 0.  1.
</event>
<event>
 8    1  0.2504019E-006  0.9118800E+02  0.7816164E-02  0.1184000E+00
        -11   -1    0    0    0    0  0.00000000000E+00  0.00000000000E+00  0.45593999997E+02  0.45594000000E+02  0.51100000000E-03 0.  1.
         11   -1    0    0    0    0 -0.00000000000E+00 -0.00000000000E+00 -0.45593999997E+02  0.45594000000E+02  0.51100000000E-03 0. -1.
         23    2    1    2    0    0  0.00000000000E+00  0.00000000000E+00  0.71054273576E-14  0.91188000000E+02  0.91188000000E+02 0.  0.
    9900012    2    3    3    0    0  0.95045568907E+01  0.14024273650E+02  0.32691954864E+02  0.54367071631E+02  0.39999971397E+02 0.  0.
         12    1    3    3    0    0 -0.95045568907E+01 -0.14024273650E+02 -0.32691954864E+02  0.36820928369E+02  0.00000000000E+00 0. -1.
         11    1    4    4    0    0 -0.66827828082E+01 -0.23310408320E+01  0.52885052175E+01  0.88352490128E+01  0.51100000000E-03 0. -1.
        -11    1    4    4    0    0  0.24286745272E+02  0.13389478633E+02  0.20628255872E+02  0.34563695904E+02  0.51100000000E-03 0.  1.
        -12    1    4    4    0    0 -0.80994055734E+01  0.29658358492E+01  0.67751937749E+01  0.10968126714E+02  0.00000000000E+00 0.  1.
</event>
<event>
 8    1  0.2504019E-006  0.9118800E+02  0.7816164E-02  0.1184000E+00
        -11   -1    0    0    0    0  0.00000000000E+00  0.00000000000E+00  0.45593999997E+02  0.45594000000E+02  0.51100000000E-03 0. -1.
         11   -1    0    0    0    0 -0.00000000000E+00 -0.00000000000E+00 -0.45593999997E+02  0.45594000000E+02  0.51100000000E-03 0.  1.
         23    2    1    2    0    0  0.88817841970E-15  0.00000000000E+00  0.00000000000E+00  0.91188000000E+02  0.91188000000E+02 0.  0.
    9900012    2    3    3    0    0  0.79140457010E+01 -0.15377349162E+02 -0.32506699373E+02  0.54367075368E+02  0.39999979917E+02 0.  0.
         12    1    3    3    0    0 -0.79140457010E+01  0.15377349162E+02  0.32506699373E+02  0.36820924632E+02  0.00000000000E+00 0. -1.
         11    1    4    4    0    0  0.10995670986E+02 -0.12497546229E+02 -0.56415418336E+01  0.17576132587E+02  0.51100000000E-03 0. -1.
        -11    1    4    4    0    0 -0.54146182496E+00 -0.71686812954E+01 -0.30035238476E+02  0.30883631959E+02  0.51100000000E-03 0.  1.
         12    1    4    4    0    0 -0.25401634602E+01  0.42888783626E+01  0.31700809361E+01  0.59073108226E+01  0.00000000000E+00 0. -1.
</event>
<event>
 8    1  0.2504019E-006  0.9118800E+02  0.7816164E-02  0.1184000E+00
        -11   -1    0    0    0    0  0.00000000000E+00  0.00000000000E+00  0.45593999997E+02  0.45594000000E+02  0.51100000000E-03 0.  1.
         11   -1    0    0    0    0 -0.00000000000E+00 -0.00000000000E+00 -0.45593999997E+02  0.45594000000E+02  0.51100000000E-03 0. -1.
         23    2    1    2    0    0  0.35527136788E-14  0.00000000000E+00  0.00000000000E+00  0.91188000000E+02  0.91188000000E+02 0.  0.
    9900012    2    3    3    0    0 -0.17222705159E+02 -0.25328171872E+02 -0.20436281044E+02  0.54367089551E+02  0.40000012250E+02 0.  0.
        -12    1    3    3    0    0  0.17222705159E+02  0.25328171872E+02  0.20436281044E+02  0.36820910449E+02  0.00000000000E+00 0.  1.
         11    1    4    4    0    0 -0.84355340070E+01 -0.12133985462E+02 -0.97283324000E+01  0.17692718523E+02  0.51100000000E-03 0. -1.
        -11    1    4    4    0    0 -0.10983340330E+01  0.96219646485E+01  0.12964308139E+01  0.97708379611E+01  0.51100000000E-03 0.  1.
        -12    1    4    4    0    0 -0.76888371186E+01 -0.22816151058E+02 -0.12004379458E+02  0.26903533068E+02  0.00000000000E+00 0.  1.
</event>
<event>
 8    1  0.2504019E-006  0.9118800E+02  0.7816164E-02  0.1184000E+00
        -11   -1    0    0    0    0  0.00000000000E+00  0.00000000000E+00  0.45593999997E+02  0.45594000000E+02  0.51100000000E-03 0. -1.
         11   -1    0    0    0    0 -0.00000000000E+00 -0.00000000000E+00 -0.45593999997E+02  0.45594000000E+02  0.51100000000E-03 0.  1.
         23    2    1    2    0    0  0.00000000000E+00 -0.35527136788E-14  0.00000000000E+00  0.91188000000E+02  0.91188000000E+02 0.  0.
    9900012    2    3    3    0    0 -0.22999932744E+02 -0.17224322419E+02 -0.23024060374E+02  0.54367061050E+02  0.39999947276E+02 0.  0.
         12    1    3    3    0    0  0.22999932744E+02  0.17224322419E+02  0.23024060374E+02  0.36820938950E+02  0.00000000000E+00 0. -1.
         11    1    4    4    0    0 -0.26382239357E+02 -0.27629021552E+01 -0.10170996362E+02  0.28409599594E+02  0.51100000000E-03 0. -1.
        -11    1    4    4    0    0  0.44321739112E+00 -0.16871957105E+02 -0.14062560435E+02  0.21968499823E+02  0.51100000000E-03 0.  1.
         12    1    4    4    0    0  0.29390892214E+01  0.24105368413E+01  0.12094964237E+01  0.39889616335E+01  0.00000000000E+00 0. -1.
</event>
<event>
 8    1  0.2504019E-006  0.9118800E+02  0.7816164E-02  0.1184000E+00
        -11   -1    0    0    0    0  0.00000000000E+00  0.00000000000E+00  0.45593999997E+02  0.45594000000E+02  0.51100000000E-03 0.  1.
         11   -1    0    0    0    0 -0.00000000000E+00 -0.00000000000E+00 -0.45593999997E+02  0.45594000000E+02  0.51100000000E-03 0. -1.
         23    2    1    2    0    0  0.00000000000E+00  0.00000000000E+00  0.00000000000E+00  0.91188000000E+02  0.91188000000E+02 0.  0.
    9900012    2    3    3    0    0 -0.17057843593E+02 -0.44534744904E+01 -0.32326088734E+02  0.54367089148E+02  0.40000011332E+02 0.  0.
        -12    1    3    3    0    0  0.17057843593E+02  0.44534744904E+01  0.32326088734E+02  0.36820910852E+02  0.00000000000E+00 0.  1.
         11    1    4    4    0    0 -0.89215770632E+01 -0.98113739332E+01 -0.21694888280E+02  0.25426871091E+02  0.51100000000E-03 0. -1.
        -11    1    4    4    0    0  0.26256865161E+01  0.25022322835E+01 -0.16122434625E+02  0.16525383342E+02  0.51100000000E-03 0.  1.
         12    1    4    4    0    0 -0.10761953046E+02  0.28556671593E+01  0.54912341710E+01  0.12414834715E+02  0.00000000000E+00 0. -1.
</event>
<event>
 8    1  0.2504019E-006  0.9118800E+02  0.7816164E-02  0.1184000E+00
        -11   -1    0    0    0    0  0.00000000000E+00  0.00000000000E+00  0.45593999997E+02  0.45594000000E+02  0.51100000000E-03 0. -1.
         11   -1    0    0    0    0 -0.00000000000E+00 -0.00000000000E+00 -0.45593999997E+02  0.45594000000E+02  0.51100000000E-03 0.  1.
         23    2    1    2    0    0  0.00000000000E+00  0.00000000000E+00  0.71054273576E-14  0.91188000000E+02  0.91188000000E+02 0.  0.
    9900012    2    3    3    0    0  0.81742056092E+01  0.28236958847E+01 -0.35790880962E+02  0.54367108432E+02  0.40000055293E+02 0.  0.
         12    1    3    3    0    0 -0.81742056092E+01 -0.28236958847E+01  0.35790880962E+02  0.36820891568E+02  0.00000000000E+00 0. -1.
         11    1    4    4    0    0 -0.71039479162E+01  0.32126961149E+01  0.26533935695E+01  0.82357750102E+01  0.51100000000E-03 0. -1.
        -11    1    4    4    0    0  0.38760751622E+01  0.71353747495E+01 -0.27358732054E+02  0.28538355793E+02  0.51100000000E-03 0.  1.
        -12    1    4    4    0    0  0.11402078363E+02 -0.75243749797E+01 -0.11085542477E+02  0.17592977629E+02  0.00000000000E+00 0.  1.
</event>
<event>
 8    1  0.2504019E-006  0.9118800E+02  0.7816164E-02  0.1184000E+00
        -11   -1    0    0    0    0  0.00000000000E+00  0.00000000000E+00  0.45593999997E+02  0.45594000000E+02  0.51100000000E-03 0. -1.
         11   -1    0    0    0    0 -0.00000000000E+00 -0.00000000000E+00 -0.45593999997E+02  0.45594000000E+02  0.51100000000E-03 0.  1.
         23    2    1    2    0    0  0.66613381478E-15 -0.71054273576E-14  0.00000000000E+00  0.91188000000E+02  0.91188000000E+02 0.  0.
    9900012    2    3    3    0    0 -0.11198928916E+01  0.30122736792E+02 -0.21145836963E+02  0.54367084031E+02  0.39999999665E+02 0.  0.
         12    1    3    3    0    0  0.11198928916E+01 -0.30122736792E+02  0.21145836963E+02  0.36820915969E+02  0.00000000000E+00 0. -1.
         11    1    4    4    0    0  0.62178041891E+01 -0.84768708017E+00 -0.21279441093E+02  0.22185451896E+02  0.51100000000E-03 0. -1.
        -11    1    4    4    0    0 -0.18282285885E+01  0.72307766042E+01  0.20526109263E+01  0.77356164556E+01  0.51100000000E-03 0.  1.
         12    1    4    4    0    0 -0.55094684922E+01  0.23739647268E+02 -0.19190067959E+01  0.24446015679E+02  0.00000000000E+00 0. -1.
</event>
<event>
 8    1  0.2504019E-006  0.9118800E+02  0.7816164E-02  0.1184000E+00
        -11   -1    0    0    0    0  0.00000000000E+00  0.00000000000E+00  0.45593999997E+02  0.45594000000E+02  0.51100000000E-03 0.  1.
         11   -1    0    0    0    0 -0.00000000000E+00 -0.00000000000E+00 -0.45593999997E+02  0.45594000000E+02  0.51100000000E-03 0. -1.
         23    2    1    2    0    0  0.00000000000E+00  0.00000000000E+00 -0.13322676296E-14  0.91188000000E+02  0.91188000000E+02 0.  0.
    9900012    2    3    3    0    0  0.87202700679E+01  0.35766983932E+02 -0.67775420702E+00  0.54367087458E+02  0.40000007479E+02 0.  0.
        -12    1    3    3    0    0 -0.87202700679E+01 -0.35766983932E+02  0.67775420702E+00  0.36820912542E+02  0.00000000000E+00 0.  1.
         11    1    4    4    0    0  0.35043055754E+01  0.16807857741E+02 -0.66476347193E+01  0.18411281515E+02  0.51100000000E-03 0. -1.
        -11    1    4    4    0    0 -0.80743237287E+01 -0.48326704211E+00 -0.54789064685E+01  0.97696810112E+01  0.51100000000E-03 0.  1.
         12    1    4    4    0    0  0.13290288221E+02  0.19442393233E+02  0.11448786981E+02  0.26186124932E+02  0.00000000000E+00 0. -1.
</event>
<event>
 8    1  0.2504019E-006  0.9118800E+02  0.7816164E-02  0.1184000E+00
        -11   -1    0    0    0    0  0.00000000000E+00  0.00000000000E+00  0.45593999997E+02  0.45594000000E+02  0.51100000000E-03 0.  1.
         11   -1    0    0    0    0 -0.00000000000E+00 -0.00000000000E+00 -0.45593999997E+02  0.45594000000E+02  0.51100000000E-03 0. -1.
         23    2    1    2    0    0  0.00000000000E+00 -0.35527136788E-14 -0.17763568394E-14  0.91188000000E+02  0.91188000000E+02 0.  0.
    9900012    2    3    3    0    0  0.29789831805E+02  0.19912668769E+02  0.84753828507E+01  0.54367074280E+02  0.39999977435E+02 0.  0.
         12    1    3    3    0    0 -0.29789831805E+02 -0.19912668769E+02 -0.84753828507E+01  0.36820925720E+02  0.00000000000E+00 0. -1.
         11    1    4    4    0    0  0.14119743079E+02  0.92482061846E+01 -0.11050265069E+02  0.20174360476E+02  0.51100000000E-03 0. -1.
        -11    1    4    4    0    0  0.11466272234E+02  0.16802633806E+02  0.12036881272E+02  0.23636632856E+02  0.51100000000E-03 0.  1.
         12    1    4    4    0    0  0.42038164912E+01 -0.61381712222E+01  0.74887666484E+01  0.10556080947E+02  0.00000000000E+00 0. -1.
</event>
<event>
 8    1  0.2504019E-006  0.9118800E+02  0.7816164E-02  0.1184000E+00
        -11   -1    0    0    0    0  0.00000000000E+00  0.00000000000E+00  0.45593999997E+02  0.45594000000E+02  0.51100000000E-03 0.  1.
         11   -1    0    0    0    0 -0.00000000000E+00 -0.00000000000E+00 -0.45593999997E+02  0.45594000000E+02  0.51100000000E-03 0. -1.
         23    2    1    2    0    0  0.35527136788E-14 -0.35527136788E-14 -0.17763568394E-14  0.91188000000E+02  0.91188000000E+02 0.  0.
    9900012    2    3    3    0    0 -0.28931688873E+02  0.21489720741E+02  0.75451585096E+01  0.54367080192E+02  0.39999990913E+02 0.  0.
         12    1    3    3    0    0  0.28931688873E+02 -0.21489720741E+02 -0.75451585096E+01  0.36820919808E+02  0.00000000000E+00 0. -1.
         11    1    4    4    0    0 -0.29048779448E+01  0.36482138865E+01  0.98413648059E+01  0.10890373820E+02  0.51100000000E-03 0. -1.
        -11    1    4    4    0    0 -0.10117686574E+02  0.13805387994E+02  0.12645872521E+02  0.21280846114E+02  0.51100000000E-03 0.  1.
         12    1    4    4    0    0 -0.15909124354E+02  0.40361188612E+01 -0.14942078818E+02  0.22195860257E+02  0.00000000000E+00 0. -1.
</event>
<event>
 8    1  0.2504019E-006  0.9118800E+02  0.7816164E-02  0.1184000E+00
        -11   -1    0    0    0    0  0.00000000000E+00  0.00000000000E+00  0.45593999997E+02  0.45594000000E+02  0.51100000000E-03 0.  1.
         11   -1    0    0    0    0 -0.00000000000E+00 -0.00000000000E+00 -0.45593999997E+02  0.45594000000E+02  0.51100000000E-03 0. -1.
         23    2    1    2    0    0 -0.35527136788E-14  0.00000000000E+00  0.00000000000E+00  0.91188000000E+02  0.91188000000E+02 0.  0.
    9900012    2    3    3    0    0 -0.29862020601E+02  0.13350081271E+02  0.16905820379E+02  0.54367194645E+02  0.40000251830E+02 0.  0.
        -12    1    3    3    0    0  0.29862020601E+02 -0.13350081271E+02 -0.16905820379E+02  0.36820805355E+02  0.00000000000E+00 0.  1.
         11    1    4    4    0    0 -0.21247061312E+02  0.21020961755E+02  0.46530116403E+01  0.30248453929E+02  0.51100000000E-03 0. -1.
        -11    1    4    4    0    0 -0.63620247091E+01 -0.12509263055E+02  0.45611550634E+01  0.14756732577E+02  0.51100000000E-03 0.  1.
        -12    1    4    4    0    0 -0.22529345800E+01  0.48383825717E+01  0.76916536749E+01  0.93620081385E+01  0.00000000000E+00 0.  1.
</event>
<event>
 8    1  0.2504019E-006  0.9118800E+02  0.7816164E-02  0.1184000E+00
        -11   -1    0    0    0    0  0.00000000000E+00  0.00000000000E+00  0.45593999997E+02  0.45594000000E+02  0.51100000000E-03 0.  1.
         11   -1    0    0    0    0 -0.00000000000E+00 -0.00000000000E+00 -0.45593999997E+02  0.45594000000E+02  0.51100000000E-03 0. -1.
         23    2    1    2    0    0 -0.35527136788E-14  0.00000000000E+00  0.00000000000E+00  0.91188000000E+02  0.91188000000E+02 0.  0.
    9900012    2    3    3    0    0  0.26915499753E+02  0.21721233259E+02  0.12630274980E+02  0.54367082747E+02  0.39999996739E+02 0.  0.
         12    1    3    3    0    0 -0.26915499753E+02 -0.21721233259E+02 -0.12630274980E+02  0.36820917253E+02  0.00000000000E+00 0. -1.
         11    1    4    4    0    0  0.44756031705E+01 -0.52523573312E+01  0.14157059799E+02  0.15749305499E+02  0.51100000000E-03 0. -1.
        -11    1    4    4    0    0 -0.81153375050E+00  0.21607417469E+01  0.35520416285E+01  0.42360821424E+01  0.51100000000E-03 0.  1.
         12    1    4    4    0    0  0.23251430333E+02  0.24812848844E+02 -0.50788264480E+01  0.34381695106E+02  0.00000000000E+00 0. -1.
</event>
<event>
 8    1  0.2504019E-006  0.9118800E+02  0.7816164E-02  0.1184000E+00
        -11   -1    0    0    0    0  0.00000000000E+00  0.00000000000E+00  0.45593999997E+02  0.45594000000E+02  0.51100000000E-03 0. -1.
         11   -1    0    0    0    0 -0.00000000000E+00 -0.00000000000E+00 -0.45593999997E+02  0.45594000000E+02  0.51100000000E-03 0.  1.
         23    2    1    2    0    0  0.00000000000E+00 -0.35527136788E-14  0.35527136788E-14  0.91188000000E+02  0.91188000000E+02 0.  0.
    9900012    2    3    3    0    0  0.23570358478E+02  0.16327133852E+02 -0.23100688414E+02  0.54367096918E+02  0.40000029043E+02 0.  0.
        -12    1    3    3    0    0 -0.23570358478E+02 -0.16327133852E+02  0.23100688414E+02  0.36820903082E+02  0.00000000000E+00 0.  1.
         11    1    4    4    0    0 -0.58985919249E+01  0.23035326099E+01 -0.32802940310E+01  0.71316182155E+01  0.51100000000E-03 0. -1.
        -11    1    4    4    0    0  0.40124494873E+01  0.11752762952E+02 -0.17656364799E+02  0.21586440329E+02  0.51100000000E-03 0.  1.
         12    1    4    4    0    0  0.25456500916E+02  0.22708382899E+01 -0.21640295838E+01  0.25649038373E+02  0.00000000000E+00 0. -1.
</event>
<event>
 8    1  0.2504019E-006  0.9118800E+02  0.7816164E-02  0.1184000E+00
        -11   -1    0    0    0    0  0.00000000000E+00  0.00000000000E+00  0.45593999997E+02  0.45594000000E+02  0.51100000000E-03 0. -1.
         11   -1    0    0    0    0 -0.00000000000E+00 -0.00000000000E+00 -0.45593999997E+02  0.45594000000E+02  0.51100000000E-03 0.  1.
         23    2    1    2    0    0  0.00000000000E+00  0.00000000000E+00  0.44408920985E-15  0.91188000000E+02  0.91188000000E+02 0.  0.
    9900012    2    3    3    0    0  0.16618681869E+02 -0.32678307600E+02 -0.34246796438E+01  0.54367071096E+02  0.39999970179E+02 0.  0.
        -12    1    3    3    0    0 -0.16618681869E+02  0.32678307600E+02  0.34246796438E+01  0.36820928904E+02  0.00000000000E+00 0.  1.
         11    1    4    4    0    0 -0.54714738289E+01 -0.79649295482E+01  0.70733617002E+01  0.11975373671E+02  0.51100000000E-03 0. -1.
        -11    1    4    4    0    0  0.19727119034E+02 -0.25196772342E+02 -0.16441689491E+02  0.35977294443E+02  0.51100000000E-03 0.  1.
         12    1    4    4    0    0  0.23630366640E+01  0.48339429059E+00  0.59436481474E+01  0.64144029820E+01  0.00000000000E+00 0. -1.
</event>
<event>
 8    1  0.2504019E-006  0.9118800E+02  0.7816164E-02  0.1184000E+00
        -11   -1    0    0    0    0  0.00000000000E+00  0.00000000000E+00  0.45593999997E+02  0.45594000000E+02  0.51100000000E-03 0.  1.
         11   -1    0    0    0    0 -0.00000000000E+00 -0.00000000000E+00 -0.45593999997E+02  0.45594000000E+02  0.51100000000E-03 0. -1.
         23    2    1    2    0    0  0.35527136788E-14  0.00000000000E+00  0.17763568394E-14  0.91188000000E+02  0.91188000000E+02 0.  0.
    9900012    2    3    3    0    0 -0.28311628097E+02  0.21523441827E+02 -0.95379863741E+01  0.54367081792E+02  0.39999994562E+02 0.  0.
        -12    1    3    3    0    0  0.28311628097E+02 -0.21523441827E+02  0.95379863741E+01  0.36820918208E+02  0.00000000000E+00 0.  1.
         11    1    4    4    0    0  0.21308183898E+01  0.61955337318E+01 -0.11209556016E+01  0.66469216148E+01  0.51100000000E-03 0. -1.
        -11    1    4    4    0    0  0.40958294186E-01 -0.67684559276E+01  0.42554037872E+01  0.79951319489E+01  0.51100000000E-03 0.  1.
         12    1    4    4    0    0 -0.30483404781E+02  0.22096364023E+02 -0.12672434560E+02  0.39725028229E+02  0.00000000000E+00 0. -1.
</event>
<event>
 8    1  0.2504019E-006  0.9118800E+02  0.7816164E-02  0.1184000E+00
        -11   -1    0    0    0    0  0.00000000000E+00  0.00000000000E+00  0.45593999997E+02  0.45594000000E+02  0.51100000000E-03 0.  1.
         11   -1    0    0    0    0 -0.00000000000E+00 -0.00000000000E+00 -0.45593999997E+02  0.45594000000E+02  0.51100000000E-03 0. -1.
         23    2    1    2    0    0  0.00000000000E+00  0.00000000000E+00  0.00000000000E+00  0.91188000000E+02  0.91188000000E+02 0.  0.
    9900012    2    3    3    0    0  0.18289403649E+02 -0.11669954116E+02  0.29750492924E+02  0.54367055633E+02  0.39999934926E+02 0.  0.
         12    1    3    3    0    0 -0.18289403649E+02  0.11669954116E+02 -0.29750492924E+02  0.36820944367E+02  0.00000000000E+00 0. -1.
         11    1    4    4    0    0 -0.16814414422E+01 -0.40458867801E+00 -0.37314569836E+01  0.41127495430E+01  0.51100000000E-03 0. -1.
        -11    1    4    4    0    0  0.20673119346E+02 -0.27609538662E-01  0.33054024122E+02  0.38986499415E+02  0.51100000000E-03 0.  1.
        -12    1    4    4    0    0 -0.70227425443E+00 -0.11237755899E+02  0.42792578585E+00  0.11267806674E+02  0.00000000000E+00 0.  1.
</event>
<event>
 8    1  0.2504019E-006  0.9118800E+02  0.7816164E-02  0.1184000E+00
        -11   -1    0    0    0    0  0.00000000000E+00  0.00000000000E+00  0.45593999997E+02  0.45594000000E+02  0.51100000000E-03 0. -1.
         11   -1    0    0    0    0 -0.00000000000E+00 -0.00000000000E+00 -0.45593999997E+02  0.45594000000E+02  0.51100000000E-03 0.  1.
         23    2    1    2    0    0  0.00000000000E+00  0.00000000000E+00  0.00000000000E+00  0.91188000000E+02  0.91188000000E+02 0.  0.
    9900012    2    3    3    0    0 -0.14831246225E+02 -0.18260883061E+02 -0.28325859386E+02  0.54367081696E+02  0.39999994343E+02 0.  0.
         12    1    3    3    0    0  0.14831246225E+02  0.18260883061E+02  0.28325859386E+02  0.36820918304E+02  0.00000000000E+00 0. -1.
         11    1    4    4    0    0  0.78855582300E+01 -0.85809485565E+01 -0.12629087314E+02  0.17184544026E+02  0.51100000000E-03 0. -1.
        -11    1    4    4    0    0  0.37764509501E+01 -0.85857569073E+00  0.17574599467E+01  0.42529283700E+01  0.51100000000E-03 0.  1.
         12    1    4    4    0    0 -0.26493255405E+02 -0.88213588139E+01 -0.17454232019E+02  0.32929609300E+02  0.00000000000E+00 0. -1.
</event>
<event>
 8    1  0.2504019E-006  0.9118800E+02  0.7816164E-02  0.1184000E+00
        -11   -1    0    0    0    0  0.00000000000E+00  0.00000000000E+00  0.45593999997E+02  0.45594000000E+02  0.51100000000E-03 0.  1.
         11   -1    0    0    0    0 -0.00000000000E+00 -0.00000000000E+00 -0.45593999997E+02  0.45594000000E+02  0.51100000000E-03 0. -1.
         23    2    1    2    0    0  0.88817841970E-15 -0.71054273576E-14  0.35527136788E-14  0.91188000000E+02  0.91188000000E+02 0.  0.
    9900012    2    3    3    0    0 -0.40389059349E+01 -0.28887090271E+02  0.22472258284E+02  0.54367093739E+02  0.40000021797E+02 0.  0.
         12    1    3    3    0    0  0.40389059349E+01  0.28887090271E+02 -0.22472258284E+02  0.36820906261E+02  0.00000000000E+00 0. -1.
         11    1    4    4    0    0 -0.24011155441E+01 -0.33036155184E+01 -0.87946093146E+01  0.96966171734E+01  0.51100000000E-03 0. -1.
        -11    1    4    4    0    0 -0.96144532546E+01 -0.19922042057E+02  0.21862194274E+02  0.31101141616E+02  0.51100000000E-03 0.  1.
         12    1    4    4    0    0  0.79766628639E+01 -0.56614326957E+01  0.94046733252E+01  0.13569334949E+02  0.00000000000E+00 0. -1.
</event>
<event>
 8    1  0.2504019E-006  0.9118800E+02  0.7816164E-02  0.1184000E+00
        -11   -1    0    0    0    0  0.00000000000E+00  0.00000000000E+00  0.45593999997E+02  0.45594000000E+02  0.51100000000E-03 0. -1.
         11   -1    0    0    0    0 -0.00000000000E+00 -0.00000000000E+00 -0.45593999997E+02  0.45594000000E+02  0.51100000000E-03 0.  1.
         23    2    1    2    0    0  0.00000000000E+00  0.00000000000E+00 -0.27755575616E-16  0.91188000000E+02  0.91188000000E+02 0.  0.
    9900012    2    3    3    0    0  0.35909697650E+02  0.81375550380E+01 -0.23032171501E+00  0.54367092415E+02  0.40000018777E+02 0.  0.
         12    1    3    3    0    0 -0.35909697650E+02 -0.81375550380E+01  0.23032171501E+00  0.36820907585E+02  0.00000000000E+00 0. -1.
         11    1    4    4    0    0  0.30381490752E+01  0.86092003963E+01 -0.88650151893E+01  0.12725453856E+02  0.51100000000E-03 0.  1.
        -11    1    4    4    0    0  0.23431757853E+02  0.67075504745E+01  0.14553217536E+02  0.28387226888E+02  0.51100000000E-03 0. -1.
         12    1    4    4    0    0  0.94397907219E+01 -0.71791958328E+01 -0.59185240619E+01  0.13254411671E+02  0.00000000000E+00 0. -1.
</event>
<event>
 8    1  0.2504019E-006  0.9118800E+02  0.7816164E-02  0.1184000E+00
        -11   -1    0    0    0    0  0.00000000000E+00  0.00000000000E+00  0.45593999997E+02  0.45594000000E+02  0.51100000000E-03 0. -1.
         11   -1    0    0    0    0 -0.00000000000E+00 -0.00000000000E+00 -0.45593999997E+02  0.45594000000E+02  0.51100000000E-03 0.  1.
         23    2    1    2    0    0 -0.17763568394E-14  0.17763568394E-14  0.00000000000E+00  0.91188000000E+02  0.91188000000E+02 0.  0.
    9900012    2    3    3    0    0  0.13051671690E+02 -0.10255126993E+02  0.32867390922E+02  0.54367093580E+02  0.40000021435E+02 0.  0.
        -12    1    3    3    0    0 -0.13051671690E+02  0.10255126993E+02 -0.32867390922E+02  0.36820906420E+02  0.00000000000E+00 0.  1.
         11    1    4    4    0    0  0.42884390991E+01  0.39574582836E+01  0.17721200568E+02  0.18657254241E+02  0.51100000000E-03 0. -1.
        -11    1    4    4    0    0  0.48261963642E+01 -0.17864777141E+02  0.20848726179E+02  0.27876725367E+02  0.51100000000E-03 0.  1.
        -12    1    4    4    0    0  0.39370362265E+01  0.36521918643E+01 -0.57025358254E+01  0.78331139722E+01  0.00000000000E+00 0.  1.
</event>
<event>
 8    1  0.2504019E-006  0.9118800E+02  0.7816164E-02  0.1184000E+00
        -11   -1    0    0    0    0  0.00000000000E+00  0.00000000000E+00  0.45593999997E+02  0.45594000000E+02  0.51100000000E-03 0. -1.
         11   -1    0    0    0    0 -0.00000000000E+00 -0.00000000000E+00 -0.45593999997E+02  0.45594000000E+02  0.51100000000E-03 0.  1.
         23    2    1    2    0    0 -0.88817841970E-15  0.00000000000E+00 -0.35527136788E-14  0.91188000000E+02  0.91188000000E+02 0.  0.
    9900012    2    3    3    0    0  0.70224363610E+01  0.32082613009E+02  0.16648511350E+02  0.54367060304E+02  0.39999945575E+02 0.  0.
        -12    1    3    3    0    0 -0.70224363610E+01 -0.32082613009E+02 -0.16648511350E+02  0.36820939696E+02  0.00000000000E+00 0.  1.
         11    1    4    4    0    0  0.10480822589E+01 -0.31522833309E+01 -0.45683844890E+01  0.56484957042E+01  0.51100000000E-03 0. -1.
        -11    1    4    4    0    0  0.33939985780E+00  0.10597486812E+02  0.20908282729E+02  0.23443084395E+02  0.51100000000E-03 0.  1.
         12    1    4    4    0    0  0.56349542443E+01  0.24637409527E+02  0.30861310977E+00  0.25275480205E+02  0.00000000000E+00 0. -1.
</event>
<event>
 8    1  0.2504019E-006  0.9118800E+02  0.7816164E-02  0.1184000E+00
        -11   -1    0    0    0    0  0.00000000000E+00  0.00000000000E+00  0.45593999997E+02  0.45594000000E+02  0.51100000000E-03 0. -1.
         11   -1    0    0    0    0 -0.00000000000E+00 -0.00000000000E+00 -0.45593999997E+02  0.45594000000E+02  0.51100000000E-03 0.  1.
         23    2    1    2    0    0  0.88817841970E-15 -0.14210854715E-13 -0.17763568394E-14  0.91188000000E+02  0.91188000000E+02 0.  0.
    9900012    2    3    3    0    0 -0.72570392218E+01  0.33893322464E+02  0.12424055596E+02  0.54367094480E+02  0.40000023485E+02 0.  0.
         12    1    3    3    0    0  0.72570392218E+01 -0.33893322464E+02 -0.12424055596E+02  0.36820905520E+02  0.00000000000E+00 0. -1.
         11    1    4    4    0    0 -0.92041427933E+01  0.12064685004E+02 -0.58102681947E+00  0.15185863862E+02  0.51100000000E-03 0. -1.
        -11    1    4    4    0    0  0.18254347005E+01 -0.40778878167E+01 -0.56891657332E+01  0.72338086712E+01  0.51100000000E-03 0.  1.
        -12    1    4    4    0    0  0.12166887098E+00  0.25906525276E+02  0.18694248148E+02  0.31947421947E+02  0.00000000000E+00 0.  1.
</event>
<event>
 8    1  0.2504019E-006  0.9118800E+02  0.7816164E-02  0.1184000E+00
        -11   -1    0    0    0    0  0.00000000000E+00  0.00000000000E+00  0.45593999997E+02  0.45594000000E+02  0.51100000000E-03 0.  1.
         11   -1    0    0    0    0 -0.00000000000E+00 -0.00000000000E+00 -0.45593999997E+02  0.45594000000E+02  0.51100000000E-03 0. -1.
         23    2    1    2    0    0  0.00000000000E+00  0.00000000000E+00  0.00000000000E+00  0.91188000000E+02  0.91188000000E+02 0.  0.
    9900012    2    3    3    0    0 -0.26056002066E+02  0.99387870441E+01 -0.24043417868E+02  0.54367072875E+02  0.39999974234E+02 0.  0.
        -12    1    3    3    0    0  0.26056002066E+02 -0.99387870441E+01  0.24043417868E+02  0.36820927125E+02  0.00000000000E+00 0.  1.
         11    1    4    4    0    0 -0.46466619212E+01 -0.36957234714E+01 -0.38578447282E+01  0.70804523298E+01  0.51100000000E-03 0. -1.
        -11    1    4    4    0    0 -0.24990923649E+02  0.41152723273E+01 -0.25389100241E+02  0.35862071085E+02  0.51100000000E-03 0.  1.
        -12    1    4    4    0    0  0.35815835052E+01  0.95192381881E+01  0.52035271011E+01  0.11424549461E+02  0.00000000000E+00 0.  1.
</event>
<event>
 8    1  0.2504019E-006  0.9118800E+02  0.7816164E-02  0.1184000E+00
        -11   -1    0    0    0    0  0.00000000000E+00  0.00000000000E+00  0.45593999997E+02  0.45594000000E+02  0.51100000000E-03 0.  1.
         11   -1    0    0    0    0 -0.00000000000E+00 -0.00000000000E+00 -0.45593999997E+02  0.45594000000E+02  0.51100000000E-03 0. -1.
         23    2    1    2    0    0  0.00000000000E+00 -0.35527136788E-14  0.00000000000E+00  0.91188000000E+02  0.91188000000E+02 0.  0.
    9900012    2    3    3    0    0 -0.18272925649E+02 -0.29685879946E+02  0.11858670961E+02  0.54367090765E+02  0.40000015017E+02 0.  0.
        -12    1    3    3    0    0  0.18272925649E+02  0.29685879946E+02 -0.11858670961E+02  0.36820909235E+02  0.00000000000E+00 0.  1.
         11    1    4    4    0    0 -0.63347276306E+01 -0.10112149086E+02 -0.68796787683E+00  0.11952306612E+02  0.51100000000E-03 0. -1.
        -11    1    4    4    0    0 -0.17251852811E+02  0.21030693507E+01  0.13145237023E+01  0.17429208213E+02  0.51100000000E-03 0.  1.
        -12    1    4    4    0    0  0.53136547930E+01 -0.21676800211E+02  0.11232115135E+02  0.24985575940E+02  0.00000000000E+00 0.  1.
</event>
<event>
 8    1  0.2504019E-006  0.9118800E+02  0.7816164E-02  0.1184000E+00
        -11   -1    0    0    0    0  0.00000000000E+00  0.00000000000E+00  0.45593999997E+02  0.45594000000E+02  0.51100000000E-03 0.  1.
         11   -1    0    0    0    0 -0.00000000000E+00 -0.00000000000E+00 -0.45593999997E+02  0.45594000000E+02  0.51100000000E-03 0. -1.
         23    2    1    2    0    0  0.00000000000E+00  0.00000000000E+00  0.17763568394E-14  0.91188000000E+02  0.91188000000E+02 0.  0.
    9900012    2    3    3    0    0  0.96736336602E+01 -0.33921886785E+02 -0.10559622297E+02  0.54367092701E+02  0.40000019431E+02 0.  0.
        -12    1    3    3    0    0 -0.96736336602E+01  0.33921886785E+02  0.10559622297E+02  0.36820907299E+02  0.00000000000E+00 0.  1.
         11    1    4    4    0    0  0.23048001986E+01 -0.18605732308E+02 -0.12027653844E+02  0.22274421113E+02  0.51100000000E-03 0. -1.
        -11    1    4    4    0    0 -0.66097521281E+01 -0.10392584544E+02 -0.78322822386E+01  0.14595865237E+02  0.51100000000E-03 0.  1.
        -12    1    4    4    0    0  0.13978585590E+02 -0.49235699332E+01  0.93003137857E+01  0.17496806351E+02  0.00000000000E+00 0.  1.
</event>
<event>
 8    1  0.2504019E-006  0.9118800E+02  0.7816164E-02  0.1184000E+00
        -11   -1    0    0    0    0  0.00000000000E+00  0.00000000000E+00  0.45593999997E+02  0.45594000000E+02  0.51100000000E-03 0.  1.
         11   -1    0    0    0    0 -0.00000000000E+00 -0.00000000000E+00 -0.45593999997E+02  0.45594000000E+02  0.51100000000E-03 0. -1.
         23    2    1    2    0    0  0.00000000000E+00  0.88817841970E-15  0.17763568394E-14  0.91188000000E+02  0.91188000000E+02 0.  0.
    9900012    2    3    3    0    0 -0.33377785362E+02  0.70557617210E+01  0.13853625332E+02  0.54367037710E+02  0.39999894067E+02 0.  0.
         12    1    3    3    0    0  0.33377785362E+02 -0.70557617210E+01 -0.13853625332E+02  0.36820962290E+02  0.00000000000E+00 0. -1.
         11    1    4    4    0    0 -0.16843317249E+02  0.50809485483E+00 -0.99648965925E+01  0.19576890986E+02  0.51100000000E-03 0.  1.
        -11    1    4    4    0    0 -0.57388932663E+01 -0.99159726059E+00  0.20359104013E+02  0.21175723778E+02  0.51100000000E-03 0. -1.
        -12    1    4    4    0    0 -0.10795574847E+02  0.75392641268E+01  0.34594179110E+01  0.13614422945E+02  0.00000000000E+00 0.  1.
</event>
<event>
 8    1  0.2504019E-006  0.9118800E+02  0.7816164E-02  0.1184000E+00
        -11   -1    0    0    0    0  0.00000000000E+00  0.00000000000E+00  0.45593999997E+02  0.45594000000E+02  0.51100000000E-03 0.  1.
         11   -1    0    0    0    0 -0.00000000000E+00 -0.00000000000E+00 -0.45593999997E+02  0.45594000000E+02  0.51100000000E-03 0. -1.
         23    2    1    2    0    0 -0.71054273576E-14 -0.35527136788E-14  0.17763568394E-14  0.91188000000E+02  0.91188000000E+02 0.  0.
    9900012    2    3    3    0    0  0.32171766019E+02 -0.16778321254E+02  0.62646166490E+01  0.54367081833E+02  0.39999994654E+02 0.  0.
         12    1    3    3    0    0 -0.32171766019E+02  0.16778321254E+02 -0.62646166490E+01  0.36820918167E+02  0.00000000000E+00 0. -1.
         11    1    4    4    0    0  0.58835183737E+01 -0.14665371057E+02  0.16749037480E+02  0.23026488083E+02  0.51100000000E-03 0. -1.
        -11    1    4    4    0    0  0.78265997727E+01  0.54854288400E+01 -0.29568946245E+01  0.10004439996E+02  0.51100000000E-03 0.  1.
         12    1    4    4    0    0  0.18461647873E+02 -0.75983790375E+01 -0.75275262066E+01  0.21336153753E+02  0.00000000000E+00 0. -1.
</event>
<event>
 8    1  0.2504019E-006  0.9118800E+02  0.7816164E-02  0.1184000E+00
        -11   -1    0    0    0    0  0.00000000000E+00  0.00000000000E+00  0.45593999997E+02  0.45594000000E+02  0.51100000000E-03 0.  1.
         11   -1    0    0    0    0 -0.00000000000E+00 -0.00000000000E+00 -0.45593999997E+02  0.45594000000E+02  0.51100000000E-03 0. -1.
         23    2    1    2    0    0  0.35527136788E-14  0.35527136788E-14  0.35527136788E-14  0.91188000000E+02  0.91188000000E+02 0.  0.
    9900012    2    3    3    0    0  0.28989480169E+02  0.20927025834E+02  0.88005022752E+01  0.54367092746E+02  0.40000019532E+02 0.  0.
         12    1    3    3    0    0 -0.28989480169E+02 -0.20927025834E+02 -0.88005022752E+01  0.36820907254E+02  0.00000000000E+00 0. -1.
         11    1    4    4    0    0  0.19920929939E+02  0.15453993225E+02 -0.79839870618E+01  0.26446425200E+02  0.51100000000E-03 0. -1.
        -11    1    4    4    0    0  0.12494751432E+02  0.88149585236E+01  0.17320497917E+02  0.23104587325E+02  0.51100000000E-03 0.  1.
         12    1    4    4    0    0 -0.34262012010E+01 -0.33419259146E+01 -0.53600857989E+00  0.48160802201E+01  0.00000000000E+00 0. -1.
</event>
<event>
 8    1  0.2504019E-006  0.9118800E+02  0.7816164E-02  0.1184000E+00
        -11   -1    0    0    0    0  0.00000000000E+00  0.00000000000E+00  0.45593999997E+02  0.45594000000E+02  0.51100000000E-03 0.  1.
         11   -1    0    0    0    0 -0.00000000000E+00 -0.00000000000E+00 -0.45593999997E+02  0.45594000000E+02  0.51100000000E-03 0. -1.
         23    2    1    2    0    0  0.00000000000E+00  0.00000000000E+00  0.00000000000E+00  0.91188000000E+02  0.91188000000E+02 0.  0.
    9900012    2    3    3    0    0  0.28511442035E+02  0.20558212122E+02 -0.10965242059E+02  0.54367096345E+02  0.40000027737E+02 0.  0.
        -12    1    3    3    0    0 -0.28511442035E+02 -0.20558212122E+02  0.10965242059E+02  0.36820903655E+02  0.00000000000E+00 0.  1.
         11    1    4    4    0    0  0.64587894353E+01 -0.38407344235E+01 -0.74492598746E+01  0.10581052633E+02  0.51100000000E-03 0. -1.
        -11    1    4    4    0    0  0.58328052720E+01  0.41666216912E+00  0.10193684110E+02  0.11751868818E+02  0.51100000000E-03 0.  1.
         12    1    4    4    0    0  0.16219847328E+02  0.23982284376E+02 -0.13709666295E+02  0.32034174894E+02  0.00000000000E+00 0. -1.
</event>
<event>
 8    1  0.2504019E-006  0.9118800E+02  0.7816164E-02  0.1184000E+00
        -11   -1    0    0    0    0  0.00000000000E+00  0.00000000000E+00  0.45593999997E+02  0.45594000000E+02  0.51100000000E-03 0.  1.
         11   -1    0    0    0    0 -0.00000000000E+00 -0.00000000000E+00 -0.45593999997E+02  0.45594000000E+02  0.51100000000E-03 0. -1.
         23    2    1    2    0    0  0.44408920985E-15  0.44408920985E-15  0.00000000000E+00  0.91188000000E+02  0.91188000000E+02 0.  0.
    9900012    2    3    3    0    0  0.11536579136E+01 -0.27046265694E+01  0.36703328075E+02  0.54367079001E+02  0.39999988198E+02 0.  0.
         12    1    3    3    0    0 -0.11536579136E+01  0.27046265694E+01 -0.36703328075E+02  0.36820920999E+02  0.00000000000E+00 0. -1.
         11    1    4    4    0    0  0.48227727454E+01 -0.21644384229E+01 -0.46975723067E+01  0.70718538219E+01  0.51100000000E-03 0. -1.
        -11    1    4    4    0    0 -0.12977791747E+01  0.65854502726E+01  0.17460027567E+01  0.69354821005E+01  0.51100000000E-03 0.  1.
         12    1    4    4    0    0 -0.23713356571E+01 -0.71256384190E+01  0.39654897625E+02  0.40359743078E+02  0.00000000000E+00 0. -1.
</event>
<event>
 8    1  0.2504019E-006  0.9118800E+02  0.7816164E-02  0.1184000E+00
        -11   -1    0    0    0    0  0.00000000000E+00  0.00000000000E+00  0.45593999997E+02  0.45594000000E+02  0.51100000000E-03 0.  1.
         11   -1    0    0    0    0 -0.00000000000E+00 -0.00000000000E+00 -0.45593999997E+02  0.45594000000E+02  0.51100000000E-03 0. -1.
         23    2    1    2    0    0  0.00000000000E+00  0.35527136788E-14 -0.35527136788E-14  0.91188000000E+02  0.91188000000E+02 0.  0.
    9900012    2    3    3    0    0  0.10772648562E+02 -0.31765623389E+02  0.15188061114E+02  0.54367055053E+02  0.39999933605E+02 0.  0.
        -12    1    3    3    0    0 -0.10772648562E+02  0.31765623389E+02 -0.15188061114E+02  0.36820944947E+02  0.00000000000E+00 0.  1.
         11    1    4    4    0    0 -0.77217150005E+01 -0.11598244902E+02 -0.47438797446E+01  0.14718986468E+02  0.51100000000E-03 0. -1.
        -11    1    4    4    0    0 -0.22868177005E+01  0.24933912017E+01  0.95107366365E+00  0.35144098018E+01  0.51100000000E-03 0.  1.
         12    1    4    4    0    0  0.20781181263E+02 -0.22660769689E+02  0.18980867195E+02  0.36133658783E+02  0.00000000000E+00 0. -1.
</event>
<event>
 8    1  0.2504019E-006  0.9118800E+02  0.7816164E-02  0.1184000E+00
        -11   -1    0    0    0    0  0.00000000000E+00  0.00000000000E+00  0.45593999997E+02  0.45594000000E+02  0.51100000000E-03 0. -1.
         11   -1    0    0    0    0 -0.00000000000E+00 -0.00000000000E+00 -0.45593999997E+02  0.45594000000E+02  0.51100000000E-03 0.  1.
         23    2    1    2    0    0  0.00000000000E+00 -0.88817841970E-15  0.00000000000E+00  0.91188000000E+02  0.91188000000E+02 0.  0.
    9900012    2    3    3    0    0 -0.92998159999E+01 -0.46251494290E+01 -0.35325664982E+02  0.54367065855E+02  0.39999958230E+02 0.  0.
         12    1    3    3    0    0  0.92998159999E+01  0.46251494290E+01  0.35325664982E+02  0.36820934145E+02  0.00000000000E+00 0. -1.
         11    1    4    4    0    0  0.74913812916E+01  0.34520876179E+00 -0.37482302580E+01  0.83838650438E+01  0.51100000000E-03 0. -1.
        -11    1    4    4    0    0  0.35141426106E+01  0.27678741256E+01 -0.21624634473E+02  0.22082462313E+02  0.51100000000E-03 0.  1.
        -12    1    4    4    0    0 -0.20305339902E+02 -0.77382323164E+01 -0.99528002514E+01  0.23900738498E+02  0.00000000000E+00 0.  1.
</event>
<event>
 8    1  0.2504019E-006  0.9118800E+02  0.7816164E-02  0.1184000E+00
        -11   -1    0    0    0    0  0.00000000000E+00  0.00000000000E+00  0.45593999997E+02  0.45594000000E+02  0.51100000000E-03 0. -1.
         11   -1    0    0    0    0 -0.00000000000E+00 -0.00000000000E+00 -0.45593999997E+02  0.45594000000E+02  0.51100000000E-03 0.  1.
         23    2    1    2    0    0  0.17763568394E-14 -0.35527136788E-14 -0.35527136788E-14  0.91188000000E+02  0.91188000000E+02 0.  0.
    9900012    2    3    3    0    0  0.13223883470E+02  0.25589544306E+02  0.22936596226E+02  0.54367036973E+02  0.39999892387E+02 0.  0.
         12    1    3    3    0    0 -0.13223883470E+02 -0.25589544306E+02 -0.22936596226E+02  0.36820963027E+02  0.00000000000E+00 0. -1.
         11    1    4    4    0    0  0.14408371764E+02 -0.15199646993E+01  0.11598288725E+02  0.18558873112E+02  0.51100000000E-03 0. -1.
        -11    1    4    4    0    0  0.94657339593E+01  0.15831512055E+02  0.65511358733E+01  0.19574326932E+02  0.51100000000E-03 0.  1.
         12    1    4    4    0    0 -0.10650222253E+02  0.11277996950E+02  0.47871716278E+01  0.16233836929E+02  0.00000000000E+00 0. -1.
</event>
<event>
 8    1  0.2504019E-006  0.9118800E+02  0.7816164E-02  0.1184000E+00
        -11   -1    0    0    0    0  0.00000000000E+00  0.00000000000E+00  0.45593999997E+02  0.45594000000E+02  0.51100000000E-03 0.  1.
         11   -1    0    0    0    0 -0.00000000000E+00 -0.00000000000E+00 -0.45593999997E+02  0.45594000000E+02  0.51100000000E-03 0. -1.
         23    2    1    2    0    0  0.00000000000E+00  0.00000000000E+00  0.00000000000E+00  0.91188000000E+02  0.91188000000E+02 0.  0.
    9900012    2    3    3    0    0 -0.35726974364E+02 -0.45206464238E+01  0.76764401307E+01  0.54367072874E+02  0.39999974231E+02 0.  0.
         12    1    3    3    0    0  0.35726974364E+02  0.45206464238E+01 -0.76764401307E+01  0.36820927126E+02  0.00000000000E+00 0. -1.
         11    1    4    4    0    0  0.22360686621E+01  0.17843900198E+01 -0.77597023879E+01  0.82702498278E+01  0.51100000000E-03 0. -1.
        -11    1    4    4    0    0 -0.65974392566E+01 -0.22385206025E+01  0.12528561388E+02  0.14335341989E+02  0.51100000000E-03 0.  1.
         12    1    4    4    0    0 -0.31365603770E+02 -0.40665158411E+01  0.29075811310E+01  0.31761481058E+02  0.00000000000E+00 0. -1.
</event>
<event>
 8    1  0.2504019E-006  0.9118800E+02  0.7816164E-02  0.1184000E+00
        -11   -1    0    0    0    0  0.00000000000E+00  0.00000000000E+00  0.45593999997E+02  0.45594000000E+02  0.51100000000E-03 0. -1.
         11   -1    0    0    0    0 -0.00000000000E+00 -0.00000000000E+00 -0.45593999997E+02  0.45594000000E+02  0.51100000000E-03 0.  1.
         23    2    1    2    0    0  0.00000000000E+00  0.00000000000E+00  0.00000000000E+00  0.91188000000E+02  0.91188000000E+02 0.  0.
    9900012    2    3    3    0    0 -0.15799974903E+02  0.27128346735E+02 -0.19240403818E+02  0.54367088243E+02  0.40000009268E+02 0.  0.
         12    1    3    3    0    0  0.15799974903E+02 -0.27128346735E+02  0.19240403818E+02  0.36820911757E+02  0.00000000000E+00 0. -1.
         11    1    4    4    0    0 -0.14015518623E+02 -0.35109320500E+01 -0.73818345422E+01  0.16225069726E+02  0.51100000000E-03 0. -1.
        -11    1    4    4    0    0 -0.53478149025E+01  0.10884660010E+02 -0.13322034575E+02  0.18015314409E+02  0.51100000000E-03 0.  1.
        -12    1    4    4    0    0  0.35633586218E+01  0.19754618775E+02  0.14634652995E+01  0.20126704109E+02  0.00000000000E+00 0.  1.
</event>
<event>
 8    1  0.2504019E-006  0.9118800E+02  0.7816164E-02  0.1184000E+00
        -11   -1    0    0    0    0  0.00000000000E+00  0.00000000000E+00  0.45593999997E+02  0.45594000000E+02  0.51100000000E-03 0.  1.
         11   -1    0    0    0    0 -0.00000000000E+00 -0.00000000000E+00 -0.45593999997E+02  0.45594000000E+02  0.51100000000E-03 0. -1.
         23    2    1    2    0    0  0.17763568394E-14  0.35527136788E-14 -0.35527136788E-14  0.91188000000E+02  0.91188000000E+02 0.  0.
    9900012    2    3    3    0    0  0.68364983663E+01  0.31922808654E+02  0.17028693219E+02  0.54367084544E+02  0.40000000835E+02 0.  0.
         12    1    3    3    0    0 -0.68364983663E+01 -0.31922808654E+02 -0.17028693219E+02  0.36820915456E+02  0.00000000000E+00 0. -1.
         11    1    4    4    0    0  0.11698122414E+02 -0.13638092328E+01 -0.38722646652E+01  0.12397599668E+02  0.51100000000E-03 0. -1.
        -11    1    4    4    0    0 -0.12497918529E+01  0.70326478104E+00 -0.16447796037E+01  0.21821689288E+01  0.51100000000E-03 0.  1.
        -12    1    4    4    0    0 -0.36118321945E+01  0.32583353106E+02  0.22545737488E+02  0.39787315947E+02  0.00000000000E+00 0.  1.
</event>
<event>
 8    1  0.2504019E-006  0.9118800E+02  0.7816164E-02  0.1184000E+00
        -11   -1    0    0    0    0  0.00000000000E+00  0.00000000000E+00  0.45593999997E+02  0.45594000000E+02  0.51100000000E-03 0. -1.
         11   -1    0    0    0    0 -0.00000000000E+00 -0.00000000000E+00 -0.45593999997E+02  0.45594000000E+02  0.51100000000E-03 0.  1.
         23    2    1    2    0    0 -0.11102230246E-15  0.35527136788E-14  0.00000000000E+00  0.91188000000E+02  0.91188000000E+02 0.  0.
    9900012    2    3    3    0    0 -0.69541870704E+00  0.31976868688E+02  0.18242220759E+02  0.54367050033E+02  0.39999922160E+02 0.  0.
        -12    1    3    3    0    0  0.69541870704E+00 -0.31976868688E+02 -0.18242220759E+02  0.36820949967E+02  0.00000000000E+00 0.  1.
         11    1    4    4    0    0  0.15242739780E+00  0.60527198438E+01 -0.34166163085E+01  0.69521161441E+01  0.51100000000E-03 0. -1.
        -11    1    4    4    0    0  0.22818335400E+01  0.88984165458E+01 -0.85810316608E+01  0.12570707456E+02  0.51100000000E-03 0.  1.
         12    1    4    4    0    0 -0.31296796449E+01  0.17025732298E+02  0.30239868728E+02  0.34844226432E+02  0.00000000000E+00 0. -1.
</event>
<event>
 8    1  0.2504019E-006  0.9118800E+02  0.7816164E-02  0.1184000E+00
        -11   -1    0    0    0    0  0.00000000000E+00  0.00000000000E+00  0.45593999997E+02  0.45594000000E+02  0.51100000000E-03 0.  1.
         11   -1    0    0    0    0 -0.00000000000E+00 -0.00000000000E+00 -0.45593999997E+02  0.45594000000E+02  0.51100000000E-03 0. -1.
         23    2    1    2    0    0  0.00000000000E+00 -0.88817841970E-15 -0.35527136788E-14  0.91188000000E+02  0.91188000000E+02 0.  0.
    9900012    2    3    3    0    0  0.24536700220E+02 -0.50401453916E+01 -0.26987495791E+02  0.54367113912E+02  0.40000067785E+02 0.  0.
        -12    1    3    3    0    0 -0.24536700220E+02  0.50401453916E+01  0.26987495791E+02  0.36820886088E+02  0.00000000000E+00 0.  1.
         11    1    4    4    0    0 -0.60511646102E+01  0.47327407150E+01  0.29512569741E+00  0.76878168067E+01  0.51100000000E-03 0.  1.
        -11    1    4    4    0    0 -0.30497882262E+00 -0.26515372870E+01 -0.10448577523E+02  0.10784082464E+02  0.51100000000E-03 0. -1.
        -12    1    4    4    0    0  0.30892843652E+02 -0.71213488195E+01 -0.16834043965E+02  0.35895214642E+02  0.00000000000E+00 0.  1.
</event>
<event>
 8    1  0.2504019E-006  0.9118800E+02  0.7816164E-02  0.1184000E+00
        -11   -1    0    0    0    0  0.00000000000E+00  0.00000000000E+00  0.45593999997E+02  0.45594000000E+02  0.51100000000E-03 0.  1.
         11   -1    0    0    0    0 -0.00000000000E+00 -0.00000000000E+00 -0.45593999997E+02  0.45594000000E+02  0.51100000000E-03 0. -1.
         23    2    1    2    0    0  0.00000000000E+00  0.00000000000E+00  0.00000000000E+00  0.91188000000E+02  0.91188000000E+02 0.  0.
    9900012    2    3    3    0    0 -0.16672499342E+01  0.34348354135E+02 -0.13160160893E+02  0.54367095763E+02  0.40000026411E+02 0.  0.
         12    1    3    3    0    0  0.16672499342E+01 -0.34348354135E+02  0.13160160893E+02  0.36820904237E+02  0.00000000000E+00 0. -1.
         11    1    4    4    0    0 -0.61599098357E+01  0.47805060002E+01  0.74656976600E+01  0.10795108550E+02  0.51100000000E-03 0. -1.
        -11    1    4    4    0    0 -0.80687903697E+01  0.22329961102E+02 -0.10981558086E+02  0.26159647534E+02  0.51100000000E-03 0.  1.
        -12    1    4    4    0    0  0.12561450271E+02  0.72378870328E+01 -0.96443004663E+01  0.17412339679E+02  0.00000000000E+00 0.  1.
</event>
<event>
 8    1  0.2504019E-006  0.9118800E+02  0.7816164E-02  0.1184000E+00
        -11   -1    0    0    0    0  0.00000000000E+00  0.00000000000E+00  0.45593999997E+02  0.45594000000E+02  0.51100000000E-03 0.  1.
         11   -1    0    0    0    0 -0.00000000000E+00 -0.00000000000E+00 -0.45593999997E+02  0.45594000000E+02  0.51100000000E-03 0. -1.
         23    2    1    2    0    0  0.00000000000E+00  0.00000000000E+00  0.00000000000E+00  0.91188000000E+02  0.91188000000E+02 0.  0.
    9900012    2    3    3    0    0  0.26538423681E+02  0.15445071623E+02  0.20320947726E+02  0.54367094452E+02  0.40000023421E+02 0.  0.
         12    1    3    3    0    0 -0.26538423681E+02 -0.15445071623E+02 -0.20320947726E+02  0.36820905548E+02  0.00000000000E+00 0. -1.
         11    1    4    4    0    0  0.31336610599E+00  0.12407616786E+02 -0.68650216467E+01  0.14183641108E+02  0.51100000000E-03 0. -1.
        -11    1    4    4    0    0  0.64744434773E+01 -0.50857604866E+01  0.77826820312E+01  0.11329321159E+02  0.51100000000E-03 0.  1.
         12    1    4    4    0    0  0.19750614098E+02  0.81232153236E+01  0.19403287342E+02  0.28854132184E+02  0.00000000000E+00 0. -1.
</event>
<event>
 8    1  0.2504019E-006  0.9118800E+02  0.7816164E-02  0.1184000E+00
        -11   -1    0    0    0    0  0.00000000000E+00  0.00000000000E+00  0.45593999997E+02  0.45594000000E+02  0.51100000000E-03 0.  1.
         11   -1    0    0    0    0 -0.00000000000E+00 -0.00000000000E+00 -0.45593999997E+02  0.45594000000E+02  0.51100000000E-03 0. -1.
         23    2    1    2    0    0 -0.13322676296E-14  0.88817841970E-15  0.00000000000E+00  0.91188000000E+02  0.91188000000E+02 0.  0.
    9900012    2    3    3    0    0 -0.36348511413E+01  0.73191593743E+01 -0.35902616555E+02  0.54367080507E+02  0.39999991633E+02 0.  0.
        -12    1    3    3    0    0  0.36348511413E+01 -0.73191593743E+01  0.35902616555E+02  0.36820919493E+02  0.00000000000E+00 0.  1.
         11    1    4    4    0    0 -0.13228239983E+02  0.13133879310E+02 -0.28128895480E+02  0.33744923766E+02  0.51100000000E-03 0. -1.
        -11    1    4    4    0    0 -0.87975679992E+00  0.37031074491E+01 -0.48606514339E+01  0.61735653742E+01  0.51100000000E-03 0.  1.
        -12    1    4    4    0    0  0.10473145641E+02 -0.95178273851E+01 -0.29130696412E+01  0.14448591367E+02  0.00000000000E+00 0.  1.
</event>
<event>
 8    1  0.2504019E-006  0.9118800E+02  0.7816164E-02  0.1184000E+00
        -11   -1    0    0    0    0  0.00000000000E+00  0.00000000000E+00  0.45593999997E+02  0.45594000000E+02  0.51100000000E-03 0.  1.
         11   -1    0    0    0    0 -0.00000000000E+00 -0.00000000000E+00 -0.45593999997E+02  0.45594000000E+02  0.51100000000E-03 0. -1.
         23    2    1    2    0    0 -0.35527136788E-14  0.35527136788E-14  0.00000000000E+00  0.91188000000E+02  0.91188000000E+02 0.  0.
    9900012    2    3    3    0    0  0.22199314066E+02  0.27034653308E+02 -0.11493310278E+02  0.54367106398E+02  0.40000050657E+02 0.  0.
         12    1    3    3    0    0 -0.22199314066E+02 -0.27034653308E+02  0.11493310278E+02  0.36820893602E+02  0.00000000000E+00 0. -1.
         11    1    4    4    0    0  0.17569525983E+02  0.65888348543E+01  0.80032431006E+01  0.20399825696E+02  0.51100000000E-03 0. -1.
        -11    1    4    4    0    0  0.51461404654E+01 -0.14997800440E+01 -0.66188274334E+01  0.85170991966E+01  0.51100000000E-03 0.  1.
        -12    1    4    4    0    0 -0.51635238273E+00  0.21945598497E+02 -0.12877725945E+02  0.25450181506E+02  0.00000000000E+00 0.  1.
</event>
<event>
 8    1  0.2504019E-006  0.9118800E+02  0.7816164E-02  0.1184000E+00
        -11   -1    0    0    0    0  0.00000000000E+00  0.00000000000E+00  0.45593999997E+02  0.45594000000E+02  0.51100000000E-03 0.  1.
         11   -1    0    0    0    0 -0.00000000000E+00 -0.00000000000E+00 -0.45593999997E+02  0.45594000000E+02  0.51100000000E-03 0. -1.
         23    2    1    2    0    0  0.00000000000E+00  0.00000000000E+00 -0.88817841970E-15  0.91188000000E+02  0.91188000000E+02 0.  0.
    9900012    2    3    3    0    0 -0.35418318539E+02  0.80596543784E+01 -0.60302792281E+01  0.54367087676E+02  0.40000007974E+02 0.  0.
        -12    1    3    3    0    0  0.35418318539E+02 -0.80596543784E+01  0.60302792281E+01  0.36820912324E+02  0.00000000000E+00 0.  1.
         11    1    4    4    0    0  0.31961984662E+01  0.75782182111E+01  0.56928857934E+01  0.10002700876E+02  0.51100000000E-03 0. -1.
        -11    1    4    4    0    0 -0.21871593250E+02 -0.21032924298E+01  0.26704445678E+01  0.22134175042E+02  0.51100000000E-03 0.  1.
         12    1    4    4    0    0 -0.16742923755E+02  0.25847285971E+01 -0.14393609589E+02  0.22230211758E+02  0.00000000000E+00 0. -1.
</event>
<event>
 8    1  0.2504019E-006  0.9118800E+02  0.7816164E-02  0.1184000E+00
        -11   -1    0    0    0    0  0.00000000000E+00  0.00000000000E+00  0.45593999997E+02  0.45594000000E+02  0.51100000000E-03 0. -1.
         11   -1    0    0    0    0 -0.00000000000E+00 -0.00000000000E+00 -0.45593999997E+02  0.45594000000E+02  0.51100000000E-03 0.  1.
         23    2    1    2    0    0  0.00000000000E+00 -0.17763568394E-14  0.00000000000E+00  0.91188000000E+02  0.91188000000E+02 0.  0.
    9900012    2    3    3    0    0 -0.59919956331E+01  0.14731192841E+02  0.33209458664E+02  0.54367079330E+02  0.39999988949E+02 0.  0.
        -12    1    3    3    0    0  0.59919956331E+01 -0.14731192841E+02 -0.33209458664E+02  0.36820920670E+02  0.00000000000E+00 0.  1.
         11    1    4    4    0    0  0.55451095792E+00  0.11716384190E+01  0.13271923757E+02  0.13335073283E+02  0.51100000000E-03 0. -1.
        -11    1    4    4    0    0  0.86046743693E+01 -0.46653311247E+01 -0.40820323441E+00  0.97965486600E+01  0.51100000000E-03 0.  1.
         12    1    4    4    0    0 -0.15151180960E+02  0.18224885547E+02  0.20345738142E+02  0.31235457388E+02  0.00000000000E+00 0. -1.
</event>
<event>
 8    1  0.2504019E-006  0.9118800E+02  0.7816164E-02  0.1184000E+00
        -11   -1    0    0    0    0  0.00000000000E+00  0.00000000000E+00  0.45593999997E+02  0.45594000000E+02  0.51100000000E-03 0.  1.
         11   -1    0    0    0    0 -0.00000000000E+00 -0.00000000000E+00 -0.45593999997E+02  0.45594000000E+02  0.51100000000E-03 0. -1.
         23    2    1    2    0    0  0.71054273576E-14  0.00000000000E+00 -0.17763568394E-14  0.91188000000E+02  0.91188000000E+02 0.  0.
    9900012    2    3    3    0    0 -0.32431337725E+02 -0.88952226343E+01  0.14995448872E+02  0.54367080142E+02  0.39999990800E+02 0.  0.
         12    1    3    3    0    0  0.32431337725E+02  0.88952226343E+01 -0.14995448872E+02  0.36820919858E+02  0.00000000000E+00 0. -1.
         11    1    4    4    0    0 -0.14230720561E+02 -0.10713887878E+02 -0.53535823417E+00  0.17820982292E+02  0.51100000000E-03 0. -1.
        -11    1    4    4    0    0 -0.77198470974E+01  0.13927950018E+01 -0.77401951569E+01  0.11020278511E+02  0.51100000000E-03 0.  1.
        -12    1    4    4    0    0 -0.10480770066E+02  0.42587024159E+00  0.23271002263E+02  0.25525819339E+02  0.00000000000E+00 0.  1.
</event>
<event>
 8    1  0.2504019E-006  0.9118800E+02  0.7816164E-02  0.1184000E+00
        -11   -1    0    0    0    0  0.00000000000E+00  0.00000000000E+00  0.45593999997E+02  0.45594000000E+02  0.51100000000E-03 0. -1.
         11   -1    0    0    0    0 -0.00000000000E+00 -0.00000000000E+00 -0.45593999997E+02  0.45594000000E+02  0.51100000000E-03 0.  1.
         23    2    1    2    0    0  0.00000000000E+00 -0.71054273576E-14  0.00000000000E+00  0.91188000000E+02  0.91188000000E+02 0.  0.
    9900012    2    3    3    0    0 -0.16181166512E+02  0.32716002856E+02 -0.48584896765E+01  0.54367191827E+02  0.40000245407E+02 0.  0.
         12    1    3    3    0    0  0.16181166512E+02 -0.32716002856E+02  0.48584896765E+01  0.36820808173E+02  0.00000000000E+00 0. -1.
         11    1    4    4    0    0  0.16518905717E+01  0.15660603432E+02 -0.10695072191E+02  0.19035961014E+02  0.51100000000E-03 0.  1.
        -11    1    4    4    0    0 -0.22098841332E+02  0.96795273752E+01  0.96654861865E+01  0.25989876143E+02  0.51100000000E-03 0. -1.
         12    1    4    4    0    0  0.42657842486E+01  0.73758720495E+01 -0.38289036724E+01  0.93413546704E+01  0.00000000000E+00 0. -1.
</event>
<event>
 8    1  0.2504019E-006  0.9118800E+02  0.7816164E-02  0.1184000E+00
        -11   -1    0    0    0    0  0.00000000000E+00  0.00000000000E+00  0.45593999997E+02  0.45594000000E+02  0.51100000000E-03 0. -1.
         11   -1    0    0    0    0 -0.00000000000E+00 -0.00000000000E+00 -0.45593999997E+02  0.45594000000E+02  0.51100000000E-03 0.  1.
         23    2    1    2    0    0  0.31086244690E-14  0.00000000000E+00  0.00000000000E+00  0.91188000000E+02  0.91188000000E+02 0.  0.
    9900012    2    3    3    0    0  0.36724036388E+01 -0.19090462026E+02  0.31270519951E+02  0.54367113171E+02  0.40000066096E+02 0.  0.
        -12    1    3    3    0    0 -0.36724036388E+01  0.19090462026E+02 -0.31270519951E+02  0.36820886829E+02  0.00000000000E+00 0.  1.
         11    1    4    4    0    0 -0.15034198092E+02 -0.15002347456E+02  0.17081215278E+02  0.27255558279E+02  0.51100000000E-03 0. -1.
        -11    1    4    4    0    0  0.59803135251E+01  0.44218569767E+01  0.24886935347E+01  0.78428671257E+01  0.51100000000E-03 0.  1.
         12    1    4    4    0    0  0.12726288206E+02 -0.85099715463E+01  0.11700611138E+02  0.19268687766E+02  0.00000000000E+00 0. -1.
</event>
<event>
 8    1  0.2504019E-006  0.9118800E+02  0.7816164E-02  0.1184000E+00
        -11   -1    0    0    0    0  0.00000000000E+00  0.00000000000E+00  0.45593999997E+02  0.45594000000E+02  0.51100000000E-03 0.  1.
         11   -1    0    0    0    0 -0.00000000000E+00 -0.00000000000E+00 -0.45593999997E+02  0.45594000000E+02  0.51100000000E-03 0. -1.
         23    2    1    2    0    0  0.35527136788E-14  0.00000000000E+00  0.00000000000E+00  0.91188000000E+02  0.91188000000E+02 0.  0.
    9900012    2    3    3    0    0 -0.24775948136E+02  0.17305018238E+02 -0.21034867752E+02  0.54367123807E+02  0.40000090343E+02 0.  0.
        -12    1    3    3    0    0  0.24775948136E+02 -0.17305018238E+02  0.21034867752E+02  0.36820876193E+02  0.00000000000E+00 0.  1.
         11    1    4    4    0    0  0.71613210896E+01  0.80397528762E+01 -0.48420962923E+01  0.11805424297E+02  0.51100000000E-03 0. -1.
        -11    1    4    4    0    0 -0.10046847655E+01  0.82407716573E+01 -0.47494936956E+01  0.95643818207E+01  0.51100000000E-03 0.  1.
        -12    1    4    4    0    0 -0.30932584460E+02  0.10244937043E+01 -0.11443277764E+02  0.32997317690E+02  0.00000000000E+00 0.  1.
</event>
<event>
 8    1  0.2504019E-006  0.9118800E+02  0.7816164E-02  0.1184000E+00
        -11   -1    0    0    0    0  0.00000000000E+00  0.00000000000E+00  0.45593999997E+02  0.45594000000E+02  0.51100000000E-03 0.  1.
         11   -1    0    0    0    0 -0.00000000000E+00 -0.00000000000E+00 -0.45593999997E+02  0.45594000000E+02  0.51100000000E-03 0. -1.
         23    2    1    2    0    0 -0.35527136788E-14  0.00000000000E+00 -0.35527136788E-14  0.91188000000E+02  0.91188000000E+02 0.  0.
    9900012    2    3    3    0    0 -0.26299717477E+02  0.34044483931E+01 -0.25544357816E+02  0.54367087131E+02  0.40000006733E+02 0.  0.
        -12    1    3    3    0    0  0.26299717477E+02 -0.34044483931E+01  0.25544357816E+02  0.36820912869E+02  0.00000000000E+00 0.  1.
         11    1    4    4    0    0 -0.87529957040E+01 -0.53553966492E+01 -0.17962029693E+02  0.20686462192E+02  0.51100000000E-03 0. -1.
        -11    1    4    4    0    0  0.13689275485E+01  0.95220479503E+01 -0.10816338035E+02  0.14475376629E+02  0.51100000000E-03 0.  1.
         12    1    4    4    0    0 -0.18915649322E+02 -0.76220290806E+00  0.32340099119E+01  0.19205248310E+02  0.00000000000E+00 0. -1.
</event>
<event>
 8    1  0.2504019E-006  0.9118800E+02  0.7816164E-02  0.1184000E+00
        -11   -1    0    0    0    0  0.00000000000E+00  0.00000000000E+00  0.45593999997E+02  0.45594000000E+02  0.51100000000E-03 0.  1.
         11   -1    0    0    0    0 -0.00000000000E+00 -0.00000000000E+00 -0.45593999997E+02  0.45594000000E+02  0.51100000000E-03 0. -1.
         23    2    1    2    0    0 -0.17763568394E-14  0.00000000000E+00  0.17763568394E-14  0.91188000000E+02  0.91188000000E+02 0.  0.
    9900012    2    3    3    0    0 -0.83949501413E+01 -0.34350383059E+02  0.10264389755E+02  0.54367058931E+02  0.39999942445E+02 0.  0.
         12    1    3    3    0    0  0.83949501413E+01  0.34350383059E+02 -0.10264389755E+02  0.36820941069E+02  0.00000000000E+00 0. -1.
         11    1    4    4    0    0 -0.20903680831E+02 -0.14945354469E+02  0.41241035491E+01  0.26025674301E+02  0.51100000000E-03 0. -1.
        -11    1    4    4    0    0  0.19200994329E+00 -0.40757891370E+01  0.75967081287E+01  0.86231606480E+01  0.51100000000E-03 0.  1.
         12    1    4    4    0    0  0.12316720747E+02 -0.15329239453E+02 -0.14564219226E+01  0.19718223982E+02  0.00000000000E+00 0. -1.
</event>
<event>
 8    1  0.2504019E-006  0.9118800E+02  0.7816164E-02  0.1184000E+00
        -11   -1    0    0    0    0  0.00000000000E+00  0.00000000000E+00  0.45593999997E+02  0.45594000000E+02  0.51100000000E-03 0. -1.
         11   -1    0    0    0    0 -0.00000000000E+00 -0.00000000000E+00 -0.45593999997E+02  0.45594000000E+02  0.51100000000E-03 0.  1.
         23    2    1    2    0    0  0.00000000000E+00 -0.17763568394E-14  0.35527136788E-14  0.91188000000E+02  0.91188000000E+02 0.  0.
    9900012    2    3    3    0    0 -0.19730874202E+02  0.14771726893E+02 -0.27354438421E+02  0.54367128018E+02  0.40000099942E+02 0.  0.
         12    1    3    3    0    0  0.19730874202E+02 -0.14771726893E+02  0.27354438421E+02  0.36820871982E+02  0.00000000000E+00 0. -1.
         11    1    4    4    0    0  0.80082223720E+01  0.49524978632E+01 -0.62641805391E+01  0.11309235992E+02  0.51100000000E-03 0. -1.
        -11    1    4    4    0    0 -0.12512314715E+02  0.16668220824E+02 -0.11858321483E+02  0.23979311784E+02  0.51100000000E-03 0.  1.
         12    1    4    4    0    0 -0.15226781859E+02 -0.68489917937E+01 -0.92319363992E+01  0.19078580242E+02  0.00000000000E+00 0. -1.
</event>
<event>
 8    1  0.2504019E-006  0.9118800E+02  0.7816164E-02  0.1184000E+00
        -11   -1    0    0    0    0  0.00000000000E+00  0.00000000000E+00  0.45593999997E+02  0.45594000000E+02  0.51100000000E-03 0. -1.
         11   -1    0    0    0    0 -0.00000000000E+00 -0.00000000000E+00 -0.45593999997E+02  0.45594000000E+02  0.51100000000E-03 0.  1.
         23    2    1    2    0    0  0.00000000000E+00  0.00000000000E+00  0.35527136788E-14  0.91188000000E+02  0.91188000000E+02 0.  0.
    9900012    2    3    3    0    0 -0.18393339994E+02 -0.45912199995E+01 -0.31565583755E+02  0.54367077483E+02  0.39999984737E+02 0.  0.
         12    1    3    3    0    0  0.18393339994E+02  0.45912199995E+01  0.31565583755E+02  0.36820922517E+02  0.00000000000E+00 0. -1.
         11    1    4    4    0    0 -0.48405012125E+01 -0.62419981110E+01  0.51706887801E+01  0.94408164439E+01  0.51100000000E-03 0. -1.
        -11    1    4    4    0    0  0.29054476913E+01 -0.67512346474E+01 -0.94544294182E+01  0.11975267489E+02  0.51100000000E-03 0.  1.
         12    1    4    4    0    0 -0.16458286473E+02  0.84020127589E+01 -0.27281843117E+02  0.32950993549E+02  0.00000000000E+00 0. -1.
</event>
<event>
 8    1  0.2504019E-006  0.9118800E+02  0.7816164E-02  0.1184000E+00
        -11   -1    0    0    0    0  0.00000000000E+00  0.00000000000E+00  0.45593999997E+02  0.45594000000E+02  0.51100000000E-03 0.  1.
         11   -1    0    0    0    0 -0.00000000000E+00 -0.00000000000E+00 -0.45593999997E+02  0.45594000000E+02  0.51100000000E-03 0. -1.
         23    2    1    2    0    0  0.35527136788E-14  0.00000000000E+00 -0.35527136788E-14  0.91188000000E+02  0.91188000000E+02 0.  0.
    9900012    2    3    3    0    0  0.25046498206E+02  0.86973532704E+01 -0.25550155092E+02  0.54367062322E+02  0.39999950175E+02 0.  0.
        -12    1    3    3    0    0 -0.25046498206E+02 -0.86973532704E+01  0.25550155092E+02  0.36820937678E+02  0.00000000000E+00 0.  1.
         11    1    4    4    0    0 -0.15785005447E+01  0.17114216382E+01 -0.63448141665E+01  0.67584979886E+01  0.51100000000E-03 0. -1.
        -11    1    4    4    0    0 -0.54030989822E+01  0.60093954196E+01 -0.12479114544E+02  0.14867232829E+02  0.51100000000E-03 0.  1.
        -12    1    4    4    0    0  0.32028097733E+02  0.97653621255E+00 -0.67262263820E+01  0.32741331504E+02  0.00000000000E+00 0.  1.
</event>
<event>
 8    1  0.2504019E-006  0.9118800E+02  0.7816164E-02  0.1184000E+00
        -11   -1    0    0    0    0  0.00000000000E+00  0.00000000000E+00  0.45593999997E+02  0.45594000000E+02  0.51100000000E-03 0. -1.
         11   -1    0    0    0    0 -0.00000000000E+00 -0.00000000000E+00 -0.45593999997E+02  0.45594000000E+02  0.51100000000E-03 0.  1.
         23    2    1    2    0    0  0.35527136788E-14  0.00000000000E+00 -0.17763568394E-14  0.91188000000E+02  0.91188000000E+02 0.  0.
    9900012    2    3    3    0    0  0.31339956578E+02 -0.11776354206E+02  0.15326552444E+02  0.54367100955E+02  0.40000038246E+02 0.  0.
        -12    1    3    3    0    0 -0.31339956578E+02  0.11776354206E+02 -0.15326552444E+02  0.36820899045E+02  0.00000000000E+00 0.  1.
         11    1    4    4    0    0  0.21710025289E+02 -0.35185519326E+00  0.11022060769E+02  0.24350253058E+02  0.51100000000E-03 0. -1.
        -11    1    4    4    0    0  0.15607509324E+02 -0.65772277459E+01 -0.52653965883E+01  0.17736365851E+02  0.51100000000E-03 0.  1.
        -12    1    4    4    0    0 -0.59775780349E+01 -0.48472712670E+01  0.95698882636E+01  0.12280482046E+02  0.00000000000E+00 0.  1.
</event>
<event>
 8    1  0.2504019E-006  0.9118800E+02  0.7816164E-02  0.1184000E+00
        -11   -1    0    0    0    0  0.00000000000E+00  0.00000000000E+00  0.45593999997E+02  0.45594000000E+02  0.51100000000E-03 0.  1.
         11   -1    0    0    0    0 -0.00000000000E+00 -0.00000000000E+00 -0.45593999997E+02  0.45594000000E+02  0.51100000000E-03 0. -1.
         23    2    1    2    0    0  0.00000000000E+00  0.00000000000E+00 -0.35527136788E-14  0.91188000000E+02  0.91188000000E+02 0.  0.
    9900012    2    3    3    0    0 -0.18648807742E+02  0.18186846535E+02 -0.26023839581E+02  0.54367086871E+02  0.40000006140E+02 0.  0.
        -12    1    3    3    0    0  0.18648807742E+02 -0.18186846535E+02  0.26023839581E+02  0.36820913129E+02  0.00000000000E+00 0.  1.
         11    1    4    4    0    0 -0.45471753270E+01  0.16415687764E+02 -0.20046252043E+02  0.26305965663E+02  0.51100000000E-03 0. -1.
        -11    1    4    4    0    0  0.54036470015E-01  0.10687214481E+02 -0.23706434959E+01  0.10947119446E+02  0.51100000000E-03 0.  1.
         12    1    4    4    0    0 -0.14155668885E+02 -0.89160557101E+01 -0.36069440422E+01  0.17114001763E+02  0.00000000000E+00 0. -1.
</event>
<event>
 8    1  0.2504019E-006  0.9118800E+02  0.7816164E-02  0.1184000E+00
        -11   -1    0    0    0    0  0.00000000000E+00  0.00000000000E+00  0.45593999997E+02  0.45594000000E+02  0.51100000000E-03 0.  1.
         11   -1    0    0    0    0 -0.00000000000E+00 -0.00000000000E+00 -0.45593999997E+02  0.45594000000E+02  0.51100000000E-03 0. -1.
         23    2    1    2    0    0  0.00000000000E+00  0.00000000000E+00  0.00000000000E+00  0.91188000000E+02  0.91188000000E+02 0.  0.
    9900012    2    3    3    0    0  0.12122926547E+02  0.13521597132E+02 -0.32030963232E+02  0.54367061084E+02  0.39999947353E+02 0.  0.
        -12    1    3    3    0    0 -0.12122926547E+02 -0.13521597132E+02  0.32030963232E+02  0.36820938916E+02  0.00000000000E+00 0.  1.
         11    1    4    4    0    0 -0.58221535760E+01  0.36883228279E+01 -0.10907259421E+02  0.12902306223E+02  0.51100000000E-03 0. -1.
        -11    1    4    4    0    0 -0.35510427378E+00  0.12173435254E+02  0.15017411567E+01  0.12270853747E+02  0.51100000000E-03 0.  1.
         12    1    4    4    0    0  0.18300184397E+02 -0.23401609491E+01 -0.22625444968E+02  0.29193901114E+02  0.00000000000E+00 0. -1.
</event>
<event>
 8    1  0.2504019E-006  0.9118800E+02  0.7816164E-02  0.1184000E+00
        -11   -1    0    0    0    0  0.00000000000E+00  0.00000000000E+00  0.45593999997E+02  0.45594000000E+02  0.51100000000E-03 0. -1.
         11   -1    0    0    0    0 -0.00000000000E+00 -0.00000000000E+00 -0.45593999997E+02  0.45594000000E+02  0.51100000000E-03 0.  1.
         23    2    1    2    0    0  0.00000000000E+00  0.35527136788E-14  0.00000000000E+00  0.91188000000E+02  0.91188000000E+02 0.  0.
    9900012    2    3    3    0    0 -0.18208654618E+02  0.17991710968E+02 -0.26467393259E+02  0.54367086479E+02  0.40000005246E+02 0.  0.
         12    1    3    3    0    0  0.18208654618E+02 -0.17991710968E+02  0.26467393259E+02  0.36820913521E+02  0.00000000000E+00 0. -1.
         11    1    4    4    0    0 -0.10291873923E+02  0.24529238411E+02 -0.82320680358E+01  0.27845522985E+02  0.51100000000E-03 0. -1.
        -11    1    4    4    0    0 -0.33388108735E+01 -0.26429617424E+01  0.24964485976E+01  0.49361078475E+01  0.51100000000E-03 0.  1.
        -12    1    4    4    0    0 -0.45779698215E+01 -0.38945657009E+01 -0.20731773821E+02  0.21585455646E+02  0.00000000000E+00 0.  1.
</event>
<event>
 8    1  0.2504019E-006  0.9118800E+02  0.7816164E-02  0.1184000E+00
        -11   -1    0    0    0    0  0.00000000000E+00  0.00000000000E+00  0.45593999997E+02  0.45594000000E+02  0.51100000000E-03 0.  1.
         11   -1    0    0    0    0 -0.00000000000E+00 -0.00000000000E+00 -0.45593999997E+02  0.45594000000E+02  0.51100000000E-03 0. -1.
         23    2    1    2    0    0  0.35527136788E-14  0.35527136788E-14 -0.88817841970E-15  0.91188000000E+02  0.91188000000E+02 0.  0.
    9900012    2    3    3    0    0 -0.20439886959E+02  0.30447511522E+02  0.33079094618E+01  0.54367052134E+02  0.39999926949E+02 0.  0.
        -12    1    3    3    0    0  0.20439886959E+02 -0.30447511522E+02 -0.33079094618E+01  0.36820947866E+02  0.00000000000E+00 0.  1.
         11    1    4    4    0    0 -0.13917104448E+02  0.16142341255E+02  0.74005016953E+01  0.22561657807E+02  0.51100000000E-03 0. -1.
        -11    1    4    4    0    0 -0.92490645746E+00  0.18252682548E+02  0.63232698184E+01  0.19339069616E+02  0.51100000000E-03 0.  1.
        -12    1    4    4    0    0 -0.55978760541E+01 -0.39475122804E+01 -0.10415862052E+02  0.12466324711E+02  0.00000000000E+00 0.  1.
</event>
<event>
 8    1  0.2504019E-006  0.9118800E+02  0.7816164E-02  0.1184000E+00
        -11   -1    0    0    0    0  0.00000000000E+00  0.00000000000E+00  0.45593999997E+02  0.45594000000E+02  0.51100000000E-03 0. -1.
         11   -1    0    0    0    0 -0.00000000000E+00 -0.00000000000E+00 -0.45593999997E+02  0.45594000000E+02  0.51100000000E-03 0.  1.
         23    2    1    2    0    0 -0.88817841970E-15  0.00000000000E+00  0.00000000000E+00  0.91188000000E+02  0.91188000000E+02 0.  0.
    9900012    2    3    3    0    0  0.32382925973E+01 -0.31649642415E+02 -0.18536248001E+02  0.54367097052E+02  0.40000029349E+02 0.  0.
         12    1    3    3    0    0 -0.32382925973E+01  0.31649642415E+02  0.18536248001E+02  0.36820902948E+02  0.00000000000E+00 0. -1.
         11    1    4    4    0    0 -0.16952894912E+01 -0.11119101517E+02 -0.64347680814E+01  0.12958189130E+02  0.51100000000E-03 0. -1.
        -11    1    4    4    0    0 -0.89555783422E+00 -0.18940536671E+02 -0.22474225880E+02  0.29404706806E+02  0.51100000000E-03 0.  1.
         12    1    4    4    0    0  0.58291399227E+01 -0.15900042274E+01  0.10372745960E+02  0.12004201116E+02  0.00000000000E+00 0. -1.
</event>
<event>
 8    1  0.2504019E-006  0.9118800E+02  0.7816164E-02  0.1184000E+00
        -11   -1    0    0    0    0  0.00000000000E+00  0.00000000000E+00  0.45593999997E+02  0.45594000000E+02  0.51100000000E-03 0. -1.
         11   -1    0    0    0    0 -0.00000000000E+00 -0.00000000000E+00 -0.45593999997E+02  0.45594000000E+02  0.51100000000E-03 0.  1.
         23    2    1    2    0    0  0.71054273576E-14  0.35527136788E-14  0.00000000000E+00  0.91188000000E+02  0.91188000000E+02 0.  0.
    9900012    2    3    3    0    0 -0.29959584010E+02 -0.20114643287E+02 -0.73222020512E+01  0.54366943640E+02  0.39999679614E+02 0.  0.
         12    1    3    3    0    0  0.29959584010E+02  0.20114643287E+02  0.73222020512E+01  0.36821056360E+02  0.00000000000E+00 0. -1.
         11    1    4    4    0    0 -0.19270843128E+02  0.21991678246E+01  0.30269380614E+01  0.19630692507E+02  0.51100000000E-03 0. -1.
        -11    1    4    4    0    0  0.27057949874E+01  0.14713816409E+01  0.30438786293E+01  0.43302988140E+01  0.51100000000E-03 0.  1.
        -12    1    4    4    0    0 -0.13394535869E+02 -0.23785192753E+02 -0.13393018742E+02  0.30405952319E+02  0.00000000000E+00 0.  1.
</event>
<event>
 8    1  0.2504019E-006  0.9118800E+02  0.7816164E-02  0.1184000E+00
        -11   -1    0    0    0    0  0.00000000000E+00  0.00000000000E+00  0.45593999997E+02  0.45594000000E+02  0.51100000000E-03 0.  1.
         11   -1    0    0    0    0 -0.00000000000E+00 -0.00000000000E+00 -0.45593999997E+02  0.45594000000E+02  0.51100000000E-03 0. -1.
         23    2    1    2    0    0 -0.88817841970E-15  0.00000000000E+00  0.00000000000E+00  0.91188000000E+02  0.91188000000E+02 0.  0.
    9900012    2    3    3    0    0  0.42695442359E+01 -0.36338869116E+02 -0.41280766319E+01  0.54367035410E+02  0.39999888825E+02 0.  0.
        -12    1    3    3    0    0 -0.42695442359E+01  0.36338869116E+02  0.41280766319E+01  0.36820964590E+02  0.00000000000E+00 0.  1.
         11    1    4    4    0    0  0.15291485448E+01  0.54122133902E+00  0.50199631506E+01  0.52755327792E+01  0.51100000000E-03 0. -1.
        -11    1    4    4    0    0  0.62282439232E+01  0.26721079299E+01 -0.63501053203E+01  0.92873581279E+01  0.51100000000E-03 0.  1.
         12    1    4    4    0    0 -0.34878482321E+01 -0.39552198385E+02 -0.27979344622E+01  0.39804144503E+02  0.00000000000E+00 0. -1.
</event>
<event>
 8    1  0.2504019E-006  0.9118800E+02  0.7816164E-02  0.1184000E+00
        -11   -1    0    0    0    0  0.00000000000E+00  0.00000000000E+00  0.45593999997E+02  0.45594000000E+02  0.51100000000E-03 0. -1.
         11   -1    0    0    0    0 -0.00000000000E+00 -0.00000000000E+00 -0.45593999997E+02  0.45594000000E+02  0.51100000000E-03 0.  1.
         23    2    1    2    0    0  0.71054273576E-14 -0.88817841970E-15 -0.35527136788E-14  0.91188000000E+02  0.91188000000E+02 0.  0.
    9900012    2    3    3    0    0  0.34757927022E+02 -0.51985376380E+01 -0.10983673059E+02  0.54367090746E+02  0.40000014973E+02 0.  0.
         12    1    3    3    0    0 -0.34757927022E+02  0.51985376380E+01  0.10983673059E+02  0.36820909254E+02  0.00000000000E+00 0. -1.
         11    1    4    4    0    0 -0.36964754741E+01 -0.24041762723E+01  0.43515973677E+01  0.61951912312E+01  0.51100000000E-03 0. -1.
        -11    1    4    4    0    0  0.72270638288E+01 -0.57100758023E+01  0.53023405171E+01  0.10627804687E+02  0.51100000000E-03 0.  1.
        -12    1    4    4    0    0  0.31227338668E+02  0.29157144366E+01 -0.20637610943E+02  0.37544094827E+02  0.00000000000E+00 0.  1.
</event>
<event>
 8    1  0.2504019E-006  0.9118800E+02  0.7816164E-02  0.1184000E+00
        -11   -1    0    0    0    0  0.00000000000E+00  0.00000000000E+00  0.45593999997E+02  0.45594000000E+02  0.51100000000E-03 0.  1.
         11   -1    0    0    0    0 -0.00000000000E+00 -0.00000000000E+00 -0.45593999997E+02  0.45594000000E+02  0.51100000000E-03 0. -1.
         23    2    1    2    0    0 -0.88817841970E-15  0.35527136788E-14  0.35527136788E-14  0.91188000000E+02  0.91188000000E+02 0.  0.
    9900012    2    3    3    0    0 -0.42773298606E+01  0.31116053055E+02  0.19216557261E+02  0.54367076852E+02  0.39999983300E+02 0.  0.
         12    1    3    3    0    0  0.42773298606E+01 -0.31116053055E+02 -0.19216557261E+02  0.36820923148E+02  0.00000000000E+00 0. -1.
         11    1    4    4    0    0 -0.17241606785E+01 -0.53914950453E+01 -0.65388312983E+00  0.56981148002E+01  0.51100000000E-03 0.  1.
        -11    1    4    4    0    0  0.10976639864E+02  0.20759555074E+02  0.12744070959E+02  0.26718104245E+02  0.51100000000E-03 0. -1.
        -12    1    4    4    0    0 -0.13529809046E+02  0.15747993026E+02  0.71263694313E+01  0.21950857807E+02  0.00000000000E+00 0.  1.
</event>
<event>
 8    1  0.2504019E-006  0.9118800E+02  0.7816164E-02  0.1184000E+00
        -11   -1    0    0    0    0  0.00000000000E+00  0.00000000000E+00  0.45593999997E+02  0.45594000000E+02  0.51100000000E-03 0.  1.
         11   -1    0    0    0    0 -0.00000000000E+00 -0.00000000000E+00 -0.45593999997E+02  0.45594000000E+02  0.51100000000E-03 0. -1.
         23    2    1    2    0    0  0.00000000000E+00  0.35527136788E-14  0.17763568394E-14  0.91188000000E+02  0.91188000000E+02 0.  0.
    9900012    2    3    3    0    0 -0.32665666841E+02  0.11197222316E+02  0.12781123959E+02  0.54367072426E+02  0.39999973208E+02 0.  0.
         12    1    3    3    0    0  0.32665666841E+02 -0.11197222316E+02 -0.12781123959E+02  0.36820927574E+02  0.00000000000E+00 0. -1.
         11    1    4    4    0    0 -0.45655319737E+01  0.18521933208E+02  0.62207858593E+01  0.20065001095E+02  0.51100000000E-03 0. -1.
        -11    1    4    4    0    0 -0.20468969710E+02 -0.33018928645E+01  0.12141952846E+02  0.24027239472E+02  0.51100000000E-03 0.  1.
        -12    1    4    4    0    0 -0.76311651580E+01 -0.40228180271E+01 -0.55816147467E+01  0.10274831859E+02  0.00000000000E+00 0.  1.
</event>
<event>
 8    1  0.2504019E-006  0.9118800E+02  0.7816164E-02  0.1184000E+00
        -11   -1    0    0    0    0  0.00000000000E+00  0.00000000000E+00  0.45593999997E+02  0.45594000000E+02  0.51100000000E-03 0. -1.
         11   -1    0    0    0    0 -0.00000000000E+00 -0.00000000000E+00 -0.45593999997E+02  0.45594000000E+02  0.51100000000E-03 0.  1.
         23    2    1    2    0    0  0.35527136788E-14 -0.35527136788E-14  0.17763568394E-14  0.91188000000E+02  0.91188000000E+02 0.  0.
    9900012    2    3    3    0    0 -0.22864148970E+02  0.28175507908E+02  0.62571280807E+01  0.54367079238E+02  0.39999988738E+02 0.  0.
         12    1    3    3    0    0  0.22864148970E+02 -0.28175507908E+02 -0.62571280807E+01  0.36820920762E+02  0.00000000000E+00 0. -1.
         11    1    4    4    0    0 -0.38287311674E+01  0.11219069805E+02 -0.87965385013E+01  0.14761632684E+02  0.51100000000E-03 0. -1.
        -11    1    4    4    0    0 -0.10522130101E+02  0.22351938382E+02  0.46845896777E+01  0.25144974687E+02  0.51100000000E-03 0.  1.
         12    1    4    4    0    0 -0.85132877011E+01 -0.53955002794E+01  0.10369076904E+02  0.14460471866E+02  0.00000000000E+00 0. -1.
</event>
<event>
 8    1  0.2504019E-006  0.9118800E+02  0.7816164E-02  0.1184000E+00
        -11   -1    0    0    0    0  0.00000000000E+00  0.00000000000E+00  0.45593999997E+02  0.45594000000E+02  0.51100000000E-03 0. -1.
         11   -1    0    0    0    0 -0.00000000000E+00 -0.00000000000E+00 -0.45593999997E+02  0.45594000000E+02  0.51100000000E-03 0.  1.
         23    2    1    2    0    0 -0.35527136788E-14 -0.17763568394E-14 -0.35527136788E-14  0.91188000000E+02  0.91188000000E+02 0.  0.
    9900012    2    3    3    0    0  0.26754871679E+02  0.11261790527E+02  0.22652456893E+02  0.54367015661E+02  0.39999843801E+02 0.  0.
        -12    1    3    3    0    0 -0.26754871679E+02 -0.11261790527E+02 -0.22652456893E+02  0.36820984339E+02  0.00000000000E+00 0.  1.
         11    1    4    4    0    0  0.23940329242E+02 -0.20935438395E+01  0.20925963495E+02  0.31865627853E+02  0.51100000000E-03 0. -1.
        -11    1    4    4    0    0  0.10092355040E+02  0.50146709984E+01 -0.16895206695E+00  0.11270807448E+02  0.51100000000E-03 0.  1.
         12    1    4    4    0    0 -0.72778126027E+01  0.83406633676E+01  0.18954454649E+01  0.11230580359E+02  0.00000000000E+00 0. -1.
</event>
<event>
 8    1  0.2504019E-006  0.9118800E+02  0.7816164E-02  0.1184000E+00
        -11   -1    0    0    0    0  0.00000000000E+00  0.00000000000E+00  0.45593999997E+02  0.45594000000E+02  0.51100000000E-03 0.  1.
         11   -1    0    0    0    0 -0.00000000000E+00 -0.00000000000E+00 -0.45593999997E+02  0.45594000000E+02  0.51100000000E-03 0. -1.
         23    2    1    2    0    0  0.17763568394E-14  0.35527136788E-14  0.00000000000E+00  0.91188000000E+02  0.91188000000E+02 0.  0.
    9900012    2    3    3    0    0  0.12019540257E+02  0.25329556277E+02  0.23868885584E+02  0.54367089253E+02  0.40000011571E+02 0.  0.
         12    1    3    3    0    0 -0.12019540257E+02 -0.25329556277E+02 -0.23868885584E+02  0.36820910747E+02  0.00000000000E+00 0. -1.
         11    1    4    4    0    0  0.18307143497E+02  0.88324552124E+01 -0.39399177564E+01  0.20704751153E+02  0.51100000000E-03 0. -1.
        -11    1    4    4    0    0  0.85937096553E-01  0.33506742215E+01  0.17347289711E+01  0.37740810521E+01  0.51100000000E-03 0.  1.
        -12    1    4    4    0    0 -0.63735403373E+01  0.13146426843E+02  0.26074074370E+02  0.29888257049E+02  0.00000000000E+00 0.  1.
</event>
<event>
 8    1  0.2504019E-006  0.9118800E+02  0.7816164E-02  0.1184000E+00
        -11   -1    0    0    0    0  0.00000000000E+00  0.00000000000E+00  0.45593999997E+02  0.45594000000E+02  0.51100000000E-03 0.  1.
         11   -1    0    0    0    0 -0.00000000000E+00 -0.00000000000E+00 -0.45593999997E+02  0.45594000000E+02  0.51100000000E-03 0. -1.
         23    2    1    2    0    0  0.35527136788E-14  0.00000000000E+00  0.71054273576E-14  0.91188000000E+02  0.91188000000E+02 0.  0.
    9900012    2    3    3    0    0 -0.18719174976E+02  0.17215134979E+02 -0.26627262489E+02  0.54367088933E+02  0.40000010841E+02 0.  0.
        -12    1    3    3    0    0  0.18719174976E+02 -0.17215134979E+02  0.26627262489E+02  0.36820911067E+02  0.00000000000E+00 0.  1.
         11    1    4    4    0    0 -0.24594929237E+01  0.11998456510E+02 -0.20405708805E+02  0.23799265035E+02  0.51100000000E-03 0. -1.
        -11    1    4    4    0    0  0.43122357982E+01  0.70731139706E+01  0.16799068125E+01  0.84525975877E+01  0.51100000000E-03 0.  1.
        -12    1    4    4    0    0 -0.20571917851E+02 -0.18564355019E+01 -0.79014604958E+01  0.22115226311E+02  0.00000000000E+00 0.  1.
</event>
<event>
 8    1  0.2504019E-006  0.9118800E+02  0.7816164E-02  0.1184000E+00
        -11   -1    0    0    0    0  0.00000000000E+00  0.00000000000E+00  0.45593999997E+02  0.45594000000E+02  0.51100000000E-03 0.  1.
         11   -1    0    0    0    0 -0.00000000000E+00 -0.00000000000E+00 -0.45593999997E+02  0.45594000000E+02  0.51100000000E-03 0. -1.
         23    2    1    2    0    0  0.17763568394E-14  0.17763568394E-14 -0.71054273576E-14  0.91188000000E+02  0.91188000000E+02 0.  0.
    9900012    2    3    3    0    0 -0.92916447571E+01 -0.11178206777E+02  0.33830484090E+02  0.54366964941E+02  0.39999728174E+02 0.  0.
         12    1    3    3    0    0  0.92916447571E+01  0.11178206777E+02 -0.33830484090E+02  0.36821035059E+02  0.00000000000E+00 0. -1.
         11    1    4    4    0    0 -0.13553262720E+02  0.96353708683E+01  0.47099188177E+01  0.17283363031E+02  0.51100000000E-03 0. -1.
        -11    1    4    4    0    0 -0.17903814779E+01 -0.11255705768E+02  0.11881693747E+02  0.16464234715E+02  0.51100000000E-03 0.  1.
         12    1    4    4    0    0  0.60519994407E+01 -0.95578718774E+01  0.17238871525E+02  0.20619367195E+02  0.00000000000E+00 0. -1.
</event>
<event>
 8    1  0.2504019E-006  0.9118800E+02  0.7816164E-02  0.1184000E+00
        -11   -1    0    0    0    0  0.00000000000E+00  0.00000000000E+00  0.45593999997E+02  0.45594000000E+02  0.51100000000E-03 0.  1.
         11   -1    0    0    0    0 -0.00000000000E+00 -0.00000000000E+00 -0.45593999997E+02  0.45594000000E+02  0.51100000000E-03 0. -1.
         23    2    1    2    0    0  0.35527136788E-14 -0.35527136788E-14  0.00000000000E+00  0.91188000000E+02  0.91188000000E+02 0.  0.
    9900012    2    3    3    0    0  0.24066704509E+02  0.21354456099E+02 -0.17904198256E+02  0.54367090500E+02  0.40000014413E+02 0.  0.
        -12    1    3    3    0    0 -0.24066704509E+02 -0.21354456099E+02  0.17904198256E+02  0.36820909500E+02  0.00000000000E+00 0.  1.
         11    1    4    4    0    0  0.37103247774E+01  0.24669624166E+02 -0.99689851019E+01  0.26865173192E+02  0.51100000000E-03 0. -1.
        -11    1    4    4    0    0  0.17457101215E+01  0.35287872320E+01 -0.65274436943E+01  0.76228186782E+01  0.51100000000E-03 0.  1.
        -12    1    4    4    0    0  0.18610669610E+02 -0.68439552986E+01 -0.14077694594E+01  0.19879098630E+02  0.00000000000E+00 0.  1.
</event>
<event>
 8    1  0.2504019E-006  0.9118800E+02  0.7816164E-02  0.1184000E+00
        -11   -1    0    0    0    0  0.00000000000E+00  0.00000000000E+00  0.45593999997E+02  0.45594000000E+02  0.51100000000E-03 0. -1.
         11   -1    0    0    0    0 -0.00000000000E+00 -0.00000000000E+00 -0.45593999997E+02  0.45594000000E+02  0.51100000000E-03 0.  1.
         23    2    1    2    0    0  0.00000000000E+00  0.00000000000E+00  0.00000000000E+00  0.91188000000E+02  0.91188000000E+02 0.  0.
    9900012    2    3    3    0    0  0.28468654128E+02 -0.11043912513E+02 -0.20575408642E+02  0.54367085940E+02  0.40000004018E+02 0.  0.
         12    1    3    3    0    0 -0.28468654128E+02  0.11043912513E+02  0.20575408642E+02  0.36820914060E+02  0.00000000000E+00 0. -1.
         11    1    4    4    0    0  0.32126225050E+01  0.41918933429E+01  0.93919226521E+01  0.10775023180E+02  0.51100000000E-03 0. -1.
        -11    1    4    4    0    0  0.13974926098E+02 -0.10018081592E+02 -0.94954400786E+01  0.19642400586E+02  0.51100000000E-03 0.  1.
         12    1    4    4    0    0  0.11281105525E+02 -0.52177242640E+01 -0.20471891215E+02  0.23949662175E+02  0.00000000000E+00 0. -1.
</event>
<event>
 8    1  0.2504019E-006  0.9118800E+02  0.7816164E-02  0.1184000E+00
        -11   -1    0    0    0    0  0.00000000000E+00  0.00000000000E+00  0.45593999997E+02  0.45594000000E+02  0.51100000000E-03 0. -1.
         11   -1    0    0    0    0 -0.00000000000E+00 -0.00000000000E+00 -0.45593999997E+02  0.45594000000E+02  0.51100000000E-03 0.  1.
         23    2    1    2    0    0  0.00000000000E+00  0.88817841970E-15 -0.71054273576E-14  0.91188000000E+02  0.91188000000E+02 0.  0.
    9900012    2    3    3    0    0 -0.18177155467E+02  0.24349207314E+01 -0.31928698657E+02  0.54367087223E+02  0.40000006942E+02 0.  0.
         12    1    3    3    0    0  0.18177155467E+02 -0.24349207314E+01  0.31928698657E+02  0.36820912777E+02  0.00000000000E+00 0. -1.
         11    1    4    4    0    0  0.83152824391E+00 -0.89824833339E+01 -0.18495526798E+01  0.92085444801E+01  0.51100000000E-03 0. -1.
        -11    1    4    4    0    0 -0.80346424481E+01  0.41031422547E+01  0.30320271442E+01  0.95175860646E+01  0.51100000000E-03 0.  1.
        -12    1    4    4    0    0 -0.10974041263E+02  0.73142618106E+01 -0.33111173121E+02  0.35640956678E+02  0.00000000000E+00 0.  1.
</event>
<event>
 8    1  0.2504019E-006  0.9118800E+02  0.7816164E-02  0.1184000E+00
        -11   -1    0    0    0    0  0.00000000000E+00  0.00000000000E+00  0.45593999997E+02  0.45594000000E+02  0.51100000000E-03 0. -1.
         11   -1    0    0    0    0 -0.00000000000E+00 -0.00000000000E+00 -0.45593999997E+02  0.45594000000E+02  0.51100000000E-03 0.  1.
         23    2    1    2    0    0  0.00000000000E+00  0.88817841970E-15 -0.88817841970E-15  0.91188000000E+02  0.91188000000E+02 0.  0.
    9900012    2    3    3    0    0 -0.35583410355E+02  0.79204304189E+01  0.51834412577E+01  0.54367076956E+02  0.39999983538E+02 0.  0.
        -12    1    3    3    0    0  0.35583410355E+02 -0.79204304189E+01 -0.51834412577E+01  0.36820923044E+02  0.00000000000E+00 0.  1.
         11    1    4    4    0    0  0.45211241342E+01  0.17960280257E+01 -0.32005847502E+01  0.58232313289E+01  0.51100000000E-03 0.  1.
        -11    1    4    4    0    0 -0.14115450125E+02 -0.29995523495E+01 -0.79953908560E+01  0.16497561084E+02  0.51100000000E-03 0. -1.
         12    1    4    4    0    0 -0.25989084365E+02  0.91239547426E+01  0.16379416864E+02  0.32046284544E+02  0.00000000000E+00 0. -1.
</event>
<event>
 8    1  0.2504019E-006  0.9118800E+02  0.7816164E-02  0.1184000E+00
        -11   -1    0    0    0    0  0.00000000000E+00  0.00000000000E+00  0.45593999997E+02  0.45594000000E+02  0.51100000000E-03 0.  1.
         11   -1    0    0    0    0 -0.00000000000E+00 -0.00000000000E+00 -0.45593999997E+02  0.45594000000E+02  0.51100000000E-03 0. -1.
         23    2    1    2    0    0 -0.35527136788E-14 -0.35527136788E-14 -0.35527136788E-14  0.91188000000E+02  0.91188000000E+02 0.  0.
    9900012    2    3    3    0    0  0.58504920670E+01 -0.29635619682E+02 -0.21054267615E+02  0.54367076652E+02  0.39999982844E+02 0.  0.
        -12    1    3    3    0    0 -0.58504920670E+01  0.29635619682E+02  0.21054267615E+02  0.36820923348E+02  0.00000000000E+00 0.  1.
         11    1    4    4    0    0 -0.64442190662E+01 -0.77246176396E+01 -0.54619541270E+01  0.11446860714E+02  0.51100000000E-03 0. -1.
        -11    1    4    4    0    0 -0.72709917562E+01 -0.69269732273E+00  0.37160836716E+01  0.81949026117E+01  0.51100000000E-03 0.  1.
        -12    1    4    4    0    0  0.19565702889E+02 -0.21218304720E+02 -0.19308397160E+02  0.34725313327E+02  0.00000000000E+00 0.  1.
</event>
<event>
 8    1  0.2504019E-006  0.9118800E+02  0.7816164E-02  0.1184000E+00
        -11   -1    0    0    0    0  0.00000000000E+00  0.00000000000E+00  0.45593999997E+02  0.45594000000E+02  0.51100000000E-03 0. -1.
         11   -1    0    0    0    0 -0.00000000000E+00 -0.00000000000E+00 -0.45593999997E+02  0.45594000000E+02  0.51100000000E-03 0.  1.
         23    2    1    2    0    0 -0.17763568394E-14  0.00000000000E+00  0.00000000000E+00  0.91188000000E+02  0.91188000000E+02 0.  0.
    9900012    2    3    3    0    0  0.13224604244E+02  0.24670570201E+02  0.23921815359E+02  0.54367076037E+02  0.39999981441E+02 0.  0.
        -12    1    3    3    0    0 -0.13224604244E+02 -0.24670570201E+02 -0.23921815359E+02  0.36820923963E+02  0.00000000000E+00 0.  1.
         11    1    4    4    0    0 -0.86746962261E+01 -0.10947253655E+01  0.13837002536E+02  0.16367999807E+02  0.51100000000E-03 0. -1.
        -11    1    4    4    0    0  0.15808905153E+01  0.38135078205E+01 -0.32455890844E+01  0.52512765576E+01  0.51100000000E-03 0.  1.
         12    1    4    4    0    0  0.20318409955E+02  0.21951787746E+02  0.13330401907E+02  0.32747799672E+02  0.00000000000E+00 0. -1.
</event>
<event>
 8    1  0.2504019E-006  0.9118800E+02  0.7816164E-02  0.1184000E+00
        -11   -1    0    0    0    0  0.00000000000E+00  0.00000000000E+00  0.45593999997E+02  0.45594000000E+02  0.51100000000E-03 0.  1.
         11   -1    0    0    0    0 -0.00000000000E+00 -0.00000000000E+00 -0.45593999997E+02  0.45594000000E+02  0.51100000000E-03 0. -1.
         23    2    1    2    0    0 -0.17763568394E-14  0.00000000000E+00 -0.71054273576E-14  0.91188000000E+02  0.91188000000E+02 0.  0.
    9900012    2    3    3    0    0 -0.98627328989E+01 -0.14109737860E+02 -0.32548740284E+02  0.54367099728E+02  0.40000035450E+02 0.  0.
        -12    1    3    3    0    0  0.98627328989E+01  0.14109737860E+02  0.32548740284E+02  0.36820900272E+02  0.00000000000E+00 0.  1.
         11    1    4    4    0    0  0.73947310081E+01 -0.46134641267E+01  0.58335124557E+01  0.10487896155E+02  0.51100000000E-03 0. -1.
        -11    1    4    4    0    0 -0.29266539693E+00 -0.83079572050E+00  0.15152610988E+00  0.89377569158E+00  0.51100000000E-03 0.  1.
        -12    1    4    4    0    0 -0.16964798510E+02 -0.86654780133E+01 -0.38533778850E+02  0.42985427881E+02  0.00000000000E+00 0.  1.
</event>
<event>
 8    1  0.2504019E-006  0.9118800E+02  0.7816164E-02  0.1184000E+00
        -11   -1    0    0    0    0  0.00000000000E+00  0.00000000000E+00  0.45593999997E+02  0.45594000000E+02  0.51100000000E-03 0. -1.
         11   -1    0    0    0    0 -0.00000000000E+00 -0.00000000000E+00 -0.45593999997E+02  0.45594000000E+02  0.51100000000E-03 0.  1.
         23    2    1    2    0    0 -0.35527136788E-14  0.00000000000E+00  0.00000000000E+00  0.91188000000E+02  0.91188000000E+02 0.  0.
    9900012    2    3    3    0    0 -0.19541800675E+02 -0.16697420642E+02  0.26364627467E+02  0.54367090027E+02  0.40000013335E+02 0.  0.
        -12    1    3    3    0    0  0.19541800675E+02  0.16697420642E+02 -0.26364627467E+02  0.36820909973E+02  0.00000000000E+00 0.  1.
         11    1    4    4    0    0  0.87161499696E+01 -0.67651515860E+01  0.11407826063E+02  0.15870634581E+02  0.51100000000E-03 0. -1.
        -11    1    4    4    0    0 -0.16882541786E+02 -0.36074340232E+01 -0.17117487594E+01  0.17348310623E+02  0.51100000000E-03 0.  1.
         12    1    4    4    0    0 -0.11375408858E+02 -0.63248350332E+01  0.16668550164E+02  0.21148144823E+02  0.00000000000E+00 0. -1.
</event>
<event>
 8    1  0.2504019E-006  0.9118800E+02  0.7816164E-02  0.1184000E+00
        -11   -1    0    0    0    0  0.00000000000E+00  0.00000000000E+00  0.45593999997E+02  0.45594000000E+02  0.51100000000E-03 0.  1.
         11   -1    0    0    0    0 -0.00000000000E+00 -0.00000000000E+00 -0.45593999997E+02  0.45594000000E+02  0.51100000000E-03 0. -1.
         23    2    1    2    0    0  0.00000000000E+00  0.88817841970E-15 -0.35527136788E-14  0.91188000000E+02  0.91188000000E+02 0.  0.
    9900012    2    3    3    0    0  0.29595463388E+02 -0.41506283160E+01 -0.21509545375E+02  0.54367085959E+02  0.40000004062E+02 0.  0.
        -12    1    3    3    0    0 -0.29595463388E+02  0.41506283160E+01  0.21509545375E+02  0.36820914041E+02  0.00000000000E+00 0.  1.
         11    1    4    4    0    0  0.19103289016E+02  0.70097141165E+01 -0.87650365955E+01  0.22156209287E+02  0.51100000000E-03 0. -1.
        -11    1    4    4    0    0  0.11558963562E+02  0.54336285043E+01 -0.37793128733E+01  0.13319803429E+02  0.51100000000E-03 0.  1.
        -12    1    4    4    0    0 -0.10667891892E+01 -0.16593970937E+02 -0.89651959059E+01  0.18891073243E+02  0.00000000000E+00 0.  1.
</event>
<event>
 8    1  0.2504019E-006  0.9118800E+02  0.7816164E-02  0.1184000E+00
        -11   -1    0    0    0    0  0.00000000000E+00  0.00000000000E+00  0.45593999997E+02  0.45594000000E+02  0.51100000000E-03 0. -1.
         11   -1    0    0    0    0 -0.00000000000E+00 -0.00000000000E+00 -0.45593999997E+02  0.45594000000E+02  0.51100000000E-03 0.  1.
         23    2    1    2    0    0  0.00000000000E+00  0.00000000000E+00  0.71054273576E-14  0.91188000000E+02  0.91188000000E+02 0.  0.
    9900012    2    3    3    0    0 -0.66593070849E+01 -0.23758129351E+02 -0.27331023565E+02  0.54367082980E+02  0.39999997269E+02 0.  0.
         12    1    3    3    0    0  0.66593070849E+01  0.23758129351E+02  0.27331023565E+02  0.36820917020E+02  0.00000000000E+00 0. -1.
         11    1    4    4    0    0 -0.35926276589E+01 -0.23189444107E+01  0.27327515015E+01  0.50746830153E+01  0.51100000000E-03 0. -1.
        -11    1    4    4    0    0 -0.33587962440E+01  0.81963227933E+01 -0.10698529892E+02  0.13889555848E+02  0.51100000000E-03 0.  1.
         12    1    4    4    0    0  0.29211681798E+00 -0.29635507733E+02 -0.19365245174E+02  0.35402844116E+02  0.00000000000E+00 0. -1.
</event>
<event>
 8    1  0.2504019E-006  0.9118800E+02  0.7816164E-02  0.1184000E+00
        -11   -1    0    0    0    0  0.00000000000E+00  0.00000000000E+00  0.45593999997E+02  0.45594000000E+02  0.51100000000E-03 0. -1.
         11   -1    0    0    0    0 -0.00000000000E+00 -0.00000000000E+00 -0.45593999997E+02  0.45594000000E+02  0.51100000000E-03 0.  1.
         23    2    1    2    0    0  0.71054273576E-14  0.00000000000E+00  0.00000000000E+00  0.91188000000E+02  0.91188000000E+02 0.  0.
    9900012    2    3    3    0    0 -0.25650880637E+02  0.46016227528E+01  0.26012253811E+02  0.54367082606E+02  0.39999996416E+02 0.  0.
        -12    1    3    3    0    0  0.25650880637E+02 -0.46016227528E+01 -0.26012253811E+02  0.36820917394E+02  0.00000000000E+00 0.  1.
         11    1    4    4    0    0 -0.46420262967E+01 -0.10305424271E+02  0.15270002088E+02  0.18997977302E+02  0.51100000000E-03 0. -1.
        -11    1    4    4    0    0 -0.21558189548E+02  0.62783798971E+01  0.11905241303E+01  0.22485349424E+02  0.51100000000E-03 0.  1.
         12    1    4    4    0    0  0.54933520826E+00  0.86286671269E+01  0.95517275930E+01  0.12883755880E+02  0.00000000000E+00 0. -1.
</event>
<event>
 8    1  0.2504019E-006  0.9118800E+02  0.7816164E-02  0.1184000E+00
        -11   -1    0    0    0    0  0.00000000000E+00  0.00000000000E+00  0.45593999997E+02  0.45594000000E+02  0.51100000000E-03 0.  1.
         11   -1    0    0    0    0 -0.00000000000E+00 -0.00000000000E+00 -0.45593999997E+02  0.45594000000E+02  0.51100000000E-03 0. -1.
         23    2    1    2    0    0  0.88817841970E-15 -0.35527136788E-14  0.00000000000E+00  0.91188000000E+02  0.91188000000E+02 0.  0.
    9900012    2    3    3    0    0 -0.55711110693E+01 -0.31502977152E+02 -0.18229233949E+02  0.54367084499E+02  0.40000000732E+02 0.  0.
        -12    1    3    3    0    0  0.55711110693E+01  0.31502977152E+02  0.18229233949E+02  0.36820915501E+02  0.00000000000E+00 0.  1.
         11    1    4    4    0    0  0.42511487168E+01 -0.93564539949E+01 -0.70689848287E+01  0.12473413468E+02  0.51100000000E-03 0. -1.
        -11    1    4    4    0    0  0.10309516225E+02  0.12969991183E+00 -0.20038397209E+01  0.10503252865E+02  0.51100000000E-03 0.  1.
         12    1    4    4    0    0 -0.20131776011E+02 -0.22276223069E+02 -0.91564093993E+01  0.31390418166E+02  0.00000000000E+00 0. -1.
</event>
<event>
 8    1  0.2504019E-006  0.9118800E+02  0.7816164E-02  0.1184000E+00
        -11   -1    0    0    0    0  0.00000000000E+00  0.00000000000E+00  0.45593999997E+02  0.45594000000E+02  0.51100000000E-03 0. -1.
         11   -1    0    0    0    0 -0.00000000000E+00 -0.00000000000E+00 -0.45593999997E+02  0.45594000000E+02  0.51100000000E-03 0.  1.
         23    2    1    2    0    0  0.00000000000E+00  0.35527136788E-14  0.00000000000E+00  0.91188000000E+02  0.91188000000E+02 0.  0.
    9900012    2    3    3    0    0 -0.60799449585E+01  0.23586625782E+02 -0.27613134490E+02  0.54367084166E+02  0.39999999973E+02 0.  0.
         12    1    3    3    0    0  0.60799449585E+01 -0.23586625782E+02  0.27613134490E+02  0.36820915834E+02  0.00000000000E+00 0. -1.
         11    1    4    4    0    0 -0.95846644327E+01 -0.89206139123E+01 -0.12244747579E+02  0.17926990500E+02  0.51100000000E-03 0. -1.
        -11    1    4    4    0    0  0.31901558671E+01  0.21303789896E+02 -0.12360323031E+02  0.24835582217E+02  0.51100000000E-03 0.  1.
         12    1    4    4    0    0  0.31456360701E+00  0.11203449799E+02 -0.30080638798E+01  0.11604511448E+02  0.00000000000E+00 0. -1.
</event>
<event>
 8    1  0.2504019E-006  0.9118800E+02  0.7816164E-02  0.1184000E+00
        -11   -1    0    0    0    0  0.00000000000E+00  0.00000000000E+00  0.45593999997E+02  0.45594000000E+02  0.51100000000E-03 0. -1.
         11   -1    0    0    0    0 -0.00000000000E+00 -0.00000000000E+00 -0.45593999997E+02  0.45594000000E+02  0.51100000000E-03 0.  1.
         23    2    1    2    0    0  0.17763568394E-14  0.00000000000E+00  0.44408920985E-15  0.91188000000E+02  0.91188000000E+02 0.  0.
    9900012    2    3    3    0    0 -0.11698694700E+02 -0.34730879856E+02 -0.35620650594E+01  0.54367057851E+02  0.39999939983E+02 0.  0.
        -12    1    3    3    0    0  0.11698694700E+02  0.34730879856E+02  0.35620650594E+01  0.36820942149E+02  0.00000000000E+00 0.  1.
         11    1    4    4    0    0  0.61008577324E+01 -0.55751767235E+01 -0.10825139205E+01  0.83351602995E+01  0.51100000000E-03 0. -1.
        -11    1    4    4    0    0 -0.24663419756E+02 -0.26256584508E+02 -0.78227202070E+01  0.36863090697E+02  0.51100000000E-03 0.  1.
        -12    1    4    4    0    0  0.68638673236E+01 -0.28991186248E+01  0.53431690682E+01  0.91688068541E+01  0.00000000000E+00 0.  1.
</event>
<event>
 8    1  0.2504019E-006  0.9118800E+02  0.7816164E-02  0.1184000E+00
        -11   -1    0    0    0    0  0.00000000000E+00  0.00000000000E+00  0.45593999997E+02  0.45594000000E+02  0.51100000000E-03 0. -1.
         11   -1    0    0    0    0 -0.00000000000E+00 -0.00000000000E+00 -0.45593999997E+02  0.45594000000E+02  0.51100000000E-03 0.  1.
         23    2    1    2    0    0  0.88817841970E-15  0.00000000000E+00 -0.35527136788E-14  0.91188000000E+02  0.91188000000E+02 0.  0.
    9900012    2    3    3    0    0 -0.30537560633E+01 -0.25118093825E+02 -0.26749493654E+02  0.54367089171E+02  0.40000011384E+02 0.  0.
         12    1    3    3    0    0  0.30537560633E+01  0.25118093825E+02  0.26749493654E+02  0.36820910829E+02  0.00000000000E+00 0. -1.
         11    1    4    4    0    0  0.64439245751E+01 -0.17919916616E+02 -0.20589822775E+02  0.28046182942E+02  0.51100000000E-03 0. -1.
        -11    1    4    4    0    0 -0.85253170316E+01 -0.13077813718E+02 -0.10616591299E+02  0.18879148635E+02  0.51100000000E-03 0.  1.
         12    1    4    4    0    0 -0.97236360683E+00  0.58796365083E+01  0.44569204204E+01  0.74417575939E+01  0.00000000000E+00 0. -1.
</event>
<event>
 8    1  0.2504019E-006  0.9118800E+02  0.7816164E-02  0.1184000E+00
        -11   -1    0    0    0    0  0.00000000000E+00  0.00000000000E+00  0.45593999997E+02  0.45594000000E+02  0.51100000000E-03 0. -1.
         11   -1    0    0    0    0 -0.00000000000E+00 -0.00000000000E+00 -0.45593999997E+02  0.45594000000E+02  0.51100000000E-03 0.  1.
         23    2    1    2    0    0  0.00000000000E+00 -0.35527136788E-14  0.00000000000E+00  0.91188000000E+02  0.91188000000E+02 0.  0.
    9900012    2    3    3    0    0 -0.13286705247E+02 -0.28801070406E+02 -0.18701453916E+02  0.54367047114E+02  0.39999915506E+02 0.  0.
         12    1    3    3    0    0  0.13286705247E+02  0.28801070406E+02  0.18701453916E+02  0.36820952886E+02  0.00000000000E+00 0. -1.
         11    1    4    4    0    0 -0.32871339304E+01  0.60453702448E+01  0.56066578655E+01  0.88761682924E+01  0.51100000000E-03 0. -1.
        -11    1    4    4    0    0 -0.12978191384E+02 -0.26924237487E+02 -0.17553351288E+02  0.34662200703E+02  0.51100000000E-03 0.  1.
        -12    1    4    4    0    0  0.29786200672E+01 -0.79222031635E+01 -0.67547604937E+01  0.10828678119E+02  0.00000000000E+00 0.  1.
</event>
<event>
 8    1  0.2504019E-006  0.9118800E+02  0.7816164E-02  0.1184000E+00
        -11   -1    0    0    0    0  0.00000000000E+00  0.00000000000E+00  0.45593999997E+02  0.45594000000E+02  0.51100000000E-03 0.  1.
         11   -1    0    0    0    0 -0.00000000000E+00 -0.00000000000E+00 -0.45593999997E+02  0.45594000000E+02  0.51100000000E-03 0. -1.
         23    2    1    2    0    0  0.00000000000E+00 -0.26090241079E-14  0.00000000000E+00  0.91188000000E+02  0.91188000000E+02 0.  0.
    9900012    2    3    3    0    0  0.12721758038E+02  0.36675195339E+00  0.34551422692E+02  0.54367103154E+02  0.40000043259E+02 0.  0.
         12    1    3    3    0    0 -0.12721758038E+02 -0.36675195339E+00 -0.34551422692E+02  0.36820896846E+02  0.00000000000E+00 0. -1.
         11    1    4    4    0    0  0.50657853621E+01 -0.16624995460E+02  0.15249588403E+02  0.23121474912E+02  0.51100000000E-03 0. -1.
        -11    1    4    4    0    0  0.39524179682E+01 -0.20273527193E+01  0.70114320331E+01  0.83001172438E+01  0.51100000000E-03 0.  1.
        -12    1    4    4    0    0  0.37035547074E+01  0.19019100133E+02  0.12290402255E+02  0.22945510997E+02  0.00000000000E+00 0.  1.
</event>
<event>
 8    1  0.2504019E-006  0.9118800E+02  0.7816164E-02  0.1184000E+00
        -11   -1    0    0    0    0  0.00000000000E+00  0.00000000000E+00  0.45593999997E+02  0.45594000000E+02  0.51100000000E-03 0.  1.
         11   -1    0    0    0    0 -0.00000000000E+00 -0.00000000000E+00 -0.45593999997E+02  0.45594000000E+02  0.51100000000E-03 0. -1.
         23    2    1    2    0    0  0.17763568394E-14  0.00000000000E+00 -0.22204460493E-15  0.91188000000E+02  0.91188000000E+02 0.  0.
    9900012    2    3    3    0    0  0.62833949067E+01 -0.36272553725E+02  0.77536348652E+00  0.54367076685E+02  0.39999982918E+02 0.  0.
         12    1    3    3    0    0 -0.62833949067E+01  0.36272553725E+02 -0.77536348652E+00  0.36820923315E+02  0.00000000000E+00 0. -1.
         11    1    4    4    0    0 -0.15279063699E+02 -0.11102284198E+02  0.23036835328E+01  0.19026756424E+02  0.51100000000E-03 0. -1.
        -11    1    4    4    0    0  0.15896311329E+01 -0.10035007773E+02 -0.15689437118E+01  0.10280558972E+02  0.51100000000E-03 0.  1.
         12    1    4    4    0    0  0.19972827472E+02 -0.15135261754E+02  0.40623665569E-01  0.25059761289E+02  0.00000000000E+00 0. -1.
</event>
<event>
 8    1  0.2504019E-006  0.9118800E+02  0.7816164E-02  0.1184000E+00
        -11   -1    0    0    0    0  0.00000000000E+00  0.00000000000E+00  0.45593999997E+02  0.45594000000E+02  0.51100000000E-03 0.  1.
         11   -1    0    0    0    0 -0.00000000000E+00 -0.00000000000E+00 -0.45593999997E+02  0.45594000000E+02  0.51100000000E-03 0. -1.
         23    2    1    2    0    0  0.00000000000E+00  0.17763568394E-14  0.35527136788E-14  0.91188000000E+02  0.91188000000E+02 0.  0.
    9900012    2    3    3    0    0  0.16419840816E+02 -0.11815219841E+02  0.30766362589E+02  0.54367086659E+02  0.40000005656E+02 0.  0.
         12    1    3    3    0    0 -0.16419840816E+02  0.11815219841E+02 -0.30766362589E+02  0.36820913341E+02  0.00000000000E+00 0. -1.
         11    1    4    4    0    0 -0.31768173641E+01 -0.90383712573E+00  0.80993609037E+01  0.87469273133E+01  0.51100000000E-03 0. -1.
        -11    1    4    4    0    0  0.74044837977E+01 -0.14379791968E+02  0.27622932305E+02  0.32009860773E+02  0.51100000000E-03 0.  1.
         12    1    4    4    0    0  0.12192174382E+02  0.34684092533E+01 -0.49559306191E+01  0.13610298572E+02  0.00000000000E+00 0. -1.
</event>
<event>
 8    1  0.2504019E-006  0.9118800E+02  0.7816164E-02  0.1184000E+00
        -11   -1    0    0    0    0  0.00000000000E+00  0.00000000000E+00  0.45593999997E+02  0.45594000000E+02  0.51100000000E-03 0. -1.
         11   -1    0    0    0    0 -0.00000000000E+00 -0.00000000000E+00 -0.45593999997E+02  0.45594000000E+02  0.51100000000E-03 0.  1.
         23    2    1    2    0    0 -0.44408920985E-15  0.71054273576E-14 -0.57332610881E-15  0.91188000000E+02  0.91188000000E+02 0.  0.
    9900012    2    3    3    0    0  0.89871425367E+00 -0.36809926796E+02 -0.11384239615E-02  0.54367103768E+02  0.40000044661E+02 0.  0.
         12    1    3    3    0    0 -0.89871425367E+00  0.36809926796E+02  0.11384239615E-02  0.36820896232E+02  0.00000000000E+00 0. -1.
         11    1    4    4    0    0  0.77396243469E+01  0.49136035061E+01 -0.58514448410E+01  0.10875876582E+02  0.51100000000E-03 0. -1.
        -11    1    4    4    0    0 -0.36798765217E+01 -0.94410372821E+01 -0.14690594955E+01  0.10238789589E+02  0.51100000000E-03 0.  1.
         12    1    4    4    0    0 -0.31610335715E+01 -0.32282493020E+02  0.73193659126E+01  0.33252437597E+02  0.00000000000E+00 0. -1.
</event>
<event>
 8    1  0.2504019E-006  0.9118800E+02  0.7816164E-02  0.1184000E+00
        -11   -1    0    0    0    0  0.00000000000E+00  0.00000000000E+00  0.45593999997E+02  0.45594000000E+02  0.51100000000E-03 0.  1.
         11   -1    0    0    0    0 -0.00000000000E+00 -0.00000000000E+00 -0.45593999997E+02  0.45594000000E+02  0.51100000000E-03 0. -1.
         23    2    1    2    0    0  0.17763568394E-14  0.00000000000E+00  0.00000000000E+00  0.91188000000E+02  0.91188000000E+02 0.  0.
    9900012    2    3    3    0    0  0.10145354394E+02  0.83514222170E+01 -0.34396129868E+02  0.54367242013E+02  0.40000359816E+02 0.  0.
        -12    1    3    3    0    0 -0.10145354394E+02 -0.83514222170E+01  0.34396129868E+02  0.36820757987E+02  0.00000000000E+00 0.  1.
         11    1    4    4    0    0  0.82512935095E+01  0.23861926079E+01 -0.24288666621E+02  0.25762707277E+02  0.51100000000E-03 0. -1.
        -11    1    4    4    0    0  0.10594434765E+02 -0.57252116166E+01 -0.60544127271E+01  0.13478724338E+02  0.51100000000E-03 0.  1.
         12    1    4    4    0    0 -0.87003738799E+01  0.11690441226E+02 -0.40530505194E+01  0.15125810399E+02  0.00000000000E+00 0. -1.
</event>
<event>
 8    1  0.2504019E-006  0.9118800E+02  0.7816164E-02  0.1184000E+00
        -11   -1    0    0    0    0  0.00000000000E+00  0.00000000000E+00  0.45593999997E+02  0.45594000000E+02  0.51100000000E-03 0. -1.
         11   -1    0    0    0    0 -0.00000000000E+00 -0.00000000000E+00 -0.45593999997E+02  0.45594000000E+02  0.51100000000E-03 0.  1.
         23    2    1    2    0    0  0.00000000000E+00 -0.35527136788E-14  0.00000000000E+00  0.91188000000E+02  0.91188000000E+02 0.  0.
    9900012    2    3    3    0    0  0.75673178328E+01 -0.25531776166E+02  0.25429185286E+02  0.54367090754E+02  0.40000014992E+02 0.  0.
        -12    1    3    3    0    0 -0.75673178328E+01  0.25531776166E+02 -0.25429185286E+02  0.36820909246E+02  0.00000000000E+00 0.  1.
         11    1    4    4    0    0 -0.70560023819E+01 -0.13058888976E+02  0.26268567046E+02  0.30172162101E+02  0.51100000000E-03 0. -1.
        -11    1    4    4    0    0  0.12097642356E+02 -0.12566994649E+02  0.47345080101E+01  0.18074785516E+02  0.51100000000E-03 0.  1.
        -12    1    4    4    0    0  0.25256778584E+01  0.94107458316E-01 -0.55738897702E+01  0.61201431379E+01  0.00000000000E+00 0.  1.
</event>
<event>
 8    1  0.2504019E-006  0.9118800E+02  0.7816164E-02  0.1184000E+00
        -11   -1    0    0    0    0  0.00000000000E+00  0.00000000000E+00  0.45593999997E+02  0.45594000000E+02  0.51100000000E-03 0.  1.
         11   -1    0    0    0    0 -0.00000000000E+00 -0.00000000000E+00 -0.45593999997E+02  0.45594000000E+02  0.51100000000E-03 0. -1.
         23    2    1    2    0    0  0.00000000000E+00  0.00000000000E+00  0.00000000000E+00  0.91188000000E+02  0.91188000000E+02 0.  0.
    9900012    2    3    3    0    0 -0.48581889810E+01 -0.11839870356E+02  0.34525346936E+02  0.54367026204E+02  0.39999867838E+02 0.  0.
         12    1    3    3    0    0  0.48581889810E+01  0.11839870356E+02 -0.34525346936E+02  0.36820973796E+02  0.00000000000E+00 0. -1.
         11    1    4    4    0    0 -0.27651028533E+01 -0.43535791431E+01 -0.37015326087E+00  0.51707309776E+01  0.51100000000E-03 0. -1.
        -11    1    4    4    0    0 -0.12592459485E+02 -0.13345066547E+02  0.85617584773E+01  0.20247581227E+02  0.51100000000E-03 0.  1.
        -12    1    4    4    0    0  0.10499373358E+02  0.58587753342E+01  0.26333741719E+02  0.28948714000E+02  0.00000000000E+00 0.  1.
</event>
<event>
 8    1  0.2504019E-006  0.9118800E+02  0.7816164E-02  0.1184000E+00
        -11   -1    0    0    0    0  0.00000000000E+00  0.00000000000E+00  0.45593999997E+02  0.45594000000E+02  0.51100000000E-03 0.  1.
         11   -1    0    0    0    0 -0.00000000000E+00 -0.00000000000E+00 -0.45593999997E+02  0.45594000000E+02  0.51100000000E-03 0. -1.
         23    2    1    2    0    0  0.00000000000E+00  0.00000000000E+00  0.88817841970E-15  0.91188000000E+02  0.91188000000E+02 0.  0.
    9900012    2    3    3    0    0  0.32931185810E+02 -0.14753954578E+02 -0.73238749494E+01  0.54367064124E+02  0.39999954284E+02 0.  0.
        -12    1    3    3    0    0 -0.32931185810E+02  0.14753954578E+02  0.73238749494E+01  0.36820935876E+02  0.00000000000E+00 0.  1.
         11    1    4    4    0    0  0.45815393132E+01  0.32511235653E+01 -0.36874207200E+01  0.67199240132E+01  0.51100000000E-03 0. -1.
        -11    1    4    4    0    0  0.32055018217E+01 -0.21764639099E+02 -0.31088966377E+01  0.22218010613E+02  0.51100000000E-03 0.  1.
        -12    1    4    4    0    0  0.25144144675E+02  0.37595609563E+01 -0.52755759167E+00  0.25429129498E+02  0.00000000000E+00 0.  1.
</event>
<event>
 8    1  0.2504019E-006  0.9118800E+02  0.7816164E-02  0.1184000E+00
        -11   -1    0    0    0    0  0.00000000000E+00  0.00000000000E+00  0.45593999997E+02  0.45594000000E+02  0.51100000000E-03 0.  1.
         11   -1    0    0    0    0 -0.00000000000E+00 -0.00000000000E+00 -0.45593999997E+02  0.45594000000E+02  0.51100000000E-03 0. -1.
         23    2    1    2    0    0  0.00000000000E+00  0.00000000000E+00  0.00000000000E+00  0.91188000000E+02  0.91188000000E+02 0.  0.
    9900012    2    3    3    0    0 -0.93060035225E+01 -0.34962427035E+02 -0.68410690765E+01  0.54367173938E+02  0.40000204626E+02 0.  0.
        -12    1    3    3    0    0  0.93060035225E+01  0.34962427035E+02  0.68410690765E+01  0.36820826062E+02  0.00000000000E+00 0.  1.
         11    1    4    4    0    0  0.98712578145E+01 -0.24246559508E+02  0.43415178218E+01  0.26536506102E+02  0.51100000000E-03 0. -1.
        -11    1    4    4    0    0 -0.17849976558E+02 -0.12823455140E+02 -0.12202897026E+02  0.25139080352E+02  0.51100000000E-03 0.  1.
         12    1    4    4    0    0 -0.13272847793E+01  0.21075876127E+01  0.10203101280E+01  0.26915874847E+01  0.00000000000E+00 0. -1.
</event>
<event>
 8    1  0.2504019E-006  0.9118800E+02  0.7816164E-02  0.1184000E+00
        -11   -1    0    0    0    0  0.00000000000E+00  0.00000000000E+00  0.45593999997E+02  0.45594000000E+02  0.51100000000E-03 0. -1.
         11   -1    0    0    0    0 -0.00000000000E+00 -0.00000000000E+00 -0.45593999997E+02  0.45594000000E+02  0.51100000000E-03 0.  1.
         23    2    1    2    0    0 -0.44408920985E-15  0.44408920985E-15  0.00000000000E+00  0.91188000000E+02  0.91188000000E+02 0.  0.
    9900012    2    3    3    0    0 -0.48118792772E+00  0.22349258580E+01 -0.36749867575E+02  0.54367092866E+02  0.40000019806E+02 0.  0.
         12    1    3    3    0    0  0.48118792772E+00 -0.22349258580E+01  0.36749867575E+02  0.36820907134E+02  0.00000000000E+00 0. -1.
         11    1    4    4    0    0  0.16775823592E+02  0.56525017270E+01 -0.13972794632E+02  0.22552561341E+02  0.51100000000E-03 0. -1.
        -11    1    4    4    0    0 -0.10211295340E+02 -0.83444967458E+01 -0.16734580988E+02  0.21306040917E+02  0.51100000000E-03 0.  1.
         12    1    4    4    0    0 -0.70457161801E+01  0.49269208768E+01 -0.60424919560E+01  0.10508490608E+02  0.00000000000E+00 0. -1.
</event>
<event>
 8    1  0.2504019E-006  0.9118800E+02  0.7816164E-02  0.1184000E+00
        -11   -1    0    0    0    0  0.00000000000E+00  0.00000000000E+00  0.45593999997E+02  0.45594000000E+02  0.51100000000E-03 0.  1.
         11   -1    0    0    0    0 -0.00000000000E+00 -0.00000000000E+00 -0.45593999997E+02  0.45594000000E+02  0.51100000000E-03 0. -1.
         23    2    1    2    0    0  0.00000000000E+00 -0.17763568394E-14 -0.35527136788E-14  0.91188000000E+02  0.91188000000E+02 0.  0.
    9900012    2    3    3    0    0  0.28242899244E+02 -0.15657729059E+02  0.17690495964E+02  0.54367089033E+02  0.40000011068E+02 0.  0.
        -12    1    3    3    0    0 -0.28242899244E+02  0.15657729059E+02 -0.17690495964E+02  0.36820910967E+02  0.00000000000E+00 0.  1.
         11    1    4    4    0    0  0.30623321514E+02 -0.18327452277E+02  0.28783045575E+01  0.35804580222E+02  0.51100000000E-03 0. -1.
        -11    1    4    4    0    0  0.11683509697E+01 -0.22275113863E+01 -0.51145316378E-01  0.25158432123E+01  0.51100000000E-03 0.  1.
        -12    1    4    4    0    0 -0.35487732397E+01  0.48972346039E+01  0.14863336723E+02  0.16046665598E+02  0.00000000000E+00 0.  1.
</event>
<event>
 8    1  0.2504019E-006  0.9118800E+02  0.7816164E-02  0.1184000E+00
        -11   -1    0    0    0    0  0.00000000000E+00  0.00000000000E+00  0.45593999997E+02  0.45594000000E+02  0.51100000000E-03 0. -1.
         11   -1    0    0    0    0 -0.00000000000E+00 -0.00000000000E+00 -0.45593999997E+02  0.45594000000E+02  0.51100000000E-03 0.  1.
         23    2    1    2    0    0 -0.17763568394E-14  0.00000000000E+00  0.00000000000E+00  0.91188000000E+02  0.91188000000E+02 0.  0.
    9900012    2    3    3    0    0 -0.82368054937E+01 -0.55373345759E+01 -0.35458052859E+02  0.54367074543E+02  0.39999978037E+02 0.  0.
         12    1    3    3    0    0  0.82368054937E+01  0.55373345759E+01  0.35458052859E+02  0.36820925457E+02  0.00000000000E+00 0. -1.
         11    1    4    4    0    0 -0.91140799977E+00  0.14517619903E+02 -0.21322645748E+02  0.25811764259E+02  0.51100000000E-03 0. -1.
        -11    1    4    4    0    0 -0.33088293529E+00 -0.76097196650E+01 -0.11865453086E+02  0.14099868584E+02  0.51100000000E-03 0.  1.
        -12    1    4    4    0    0 -0.69945145586E+01 -0.12445234814E+02 -0.22699540253E+01  0.14455441701E+02  0.00000000000E+00 0.  1.
</event>
<event>
 8    1  0.2504019E-006  0.9118800E+02  0.7816164E-02  0.1184000E+00
        -11   -1    0    0    0    0  0.00000000000E+00  0.00000000000E+00  0.45593999997E+02  0.45594000000E+02  0.51100000000E-03 0. -1.
         11   -1    0    0    0    0 -0.00000000000E+00 -0.00000000000E+00 -0.45593999997E+02  0.45594000000E+02  0.51100000000E-03 0.  1.
         23    2    1    2    0    0  0.00000000000E+00  0.00000000000E+00 -0.17763568394E-14  0.91188000000E+02  0.91188000000E+02 0.  0.
    9900012    2    3    3    0    0  0.30481203240E+02  0.16983074600E+02  0.11758014878E+02  0.54367088988E+02  0.40000010967E+02 0.  0.
        -12    1    3    3    0    0 -0.30481203240E+02 -0.16983074600E+02 -0.11758014878E+02  0.36820911012E+02  0.00000000000E+00 0.  1.
         11    1    4    4    0    0  0.10531668797E+02  0.45326350167E+01  0.55074411258E+01  0.12719777351E+02  0.51100000000E-03 0. -1.
        -11    1    4    4    0    0  0.95895400882E+01  0.19501367636E+01 -0.13699848803E+02  0.16835919042E+02  0.51100000000E-03 0.  1.
        -12    1    4    4    0    0  0.10359994355E+02  0.10500302820E+02  0.19950422556E+02  0.24811392595E+02  0.00000000000E+00 0.  1.
</event>
<event>
 8    1  0.2504019E-006  0.9118800E+02  0.7816164E-02  0.1184000E+00
        -11   -1    0    0    0    0  0.00000000000E+00  0.00000000000E+00  0.45593999997E+02  0.45594000000E+02  0.51100000000E-03 0. -1.
         11   -1    0    0    0    0 -0.00000000000E+00 -0.00000000000E+00 -0.45593999997E+02  0.45594000000E+02  0.51100000000E-03 0.  1.
         23    2    1    2    0    0  0.00000000000E+00  0.22204460493E-14 -0.35527136788E-14  0.91188000000E+02  0.91188000000E+02 0.  0.
    9900012    2    3    3    0    0 -0.31344163286E+02  0.25359615553E+01 -0.19154453559E+02  0.54367071655E+02  0.39999971451E+02 0.  0.
         12    1    3    3    0    0  0.31344163286E+02 -0.25359615553E+01  0.19154453559E+02  0.36820928345E+02  0.00000000000E+00 0. -1.
         11    1    4    4    0    0 -0.37058507002E+02 -0.74460407273E+01 -0.15887593191E+02  0.41002342389E+02  0.51100000000E-03 0. -1.
        -11    1    4    4    0    0  0.16993200400E+01  0.27252231435E+00 -0.22154434918E+01  0.28053782520E+01  0.51100000000E-03 0.  1.
         12    1    4    4    0    0  0.40150236767E+01  0.97094799682E+01 -0.10514168759E+01  0.10559351013E+02  0.00000000000E+00 0. -1.
</event>
<event>
 8    1  0.2504019E-006  0.9118800E+02  0.7816164E-02  0.1184000E+00
        -11   -1    0    0    0    0  0.00000000000E+00  0.00000000000E+00  0.45593999997E+02  0.45594000000E+02  0.51100000000E-03 0.  1.
         11   -1    0    0    0    0 -0.00000000000E+00 -0.00000000000E+00 -0.45593999997E+02  0.45594000000E+02  0.51100000000E-03 0. -1.
         23    2    1    2    0    0  0.00000000000E+00  0.35527136788E-14  0.71054273576E-14  0.91188000000E+02  0.91188000000E+02 0.  0.
    9900012    2    3    3    0    0  0.61418316233E+01  0.20324873716E+02  0.30082517846E+02  0.54367075687E+02  0.39999980645E+02 0.  0.
         12    1    3    3    0    0 -0.61418316233E+01 -0.20324873716E+02 -0.30082517846E+02  0.36820924313E+02  0.00000000000E+00 0. -1.
         11    1    4    4    0    0  0.11007327675E+02  0.69323129279E+01 -0.34725874502E+01  0.13463918038E+02  0.51100000000E-03 0. -1.
        -11    1    4    4    0    0 -0.53041507468E+01  0.34989203396E+01  0.47446621681E+00  0.63719366867E+01  0.51100000000E-03 0.  1.
         12    1    4    4    0    0  0.43865469532E+00  0.98936404485E+01  0.33080639080E+02  0.34531220963E+02  0.00000000000E+00 0. -1.
</event>
<event>
 8    1  0.2504019E-006  0.9118800E+02  0.7816164E-02  0.1184000E+00
        -11   -1    0    0    0    0  0.00000000000E+00  0.00000000000E+00  0.45593999997E+02  0.45594000000E+02  0.51100000000E-03 0.  1.
         11   -1    0    0    0    0 -0.00000000000E+00 -0.00000000000E+00 -0.45593999997E+02  0.45594000000E+02  0.51100000000E-03 0. -1.
         23    2    1    2    0    0  0.00000000000E+00 -0.88817841970E-15  0.00000000000E+00  0.91188000000E+02  0.91188000000E+02 0.  0.
    9900012    2    3    3    0    0 -0.92615490959E+01 -0.48807662585E+01  0.35301312662E+02  0.54367070536E+02  0.39999968901E+02 0.  0.
         12    1    3    3    0    0  0.92615490959E+01  0.48807662585E+01 -0.35301312662E+02  0.36820929464E+02  0.00000000000E+00 0. -1.
         11    1    4    4    0    0 -0.12027826454E+01 -0.42009492785E+01  0.18245947351E+01  0.47353782469E+01  0.51100000000E-03 0. -1.
        -11    1    4    4    0    0 -0.21690937384E+02  0.32096742531E+01  0.24369563005E+02  0.32782226506E+02  0.51100000000E-03 0.  1.
        -12    1    4    4    0    0  0.13632170933E+02 -0.38894912331E+01  0.91071549217E+01  0.16849465783E+02  0.00000000000E+00 0.  1.
</event>
<event>
 8    1  0.2504019E-006  0.9118800E+02  0.7816164E-02  0.1184000E+00
        -11   -1    0    0    0    0  0.00000000000E+00  0.00000000000E+00  0.45593999997E+02  0.45594000000E+02  0.51100000000E-03 0.  1.
         11   -1    0    0    0    0 -0.00000000000E+00 -0.00000000000E+00 -0.45593999997E+02  0.45594000000E+02  0.51100000000E-03 0. -1.
         23    2    1    2    0    0  0.00000000000E+00  0.17763568394E-14  0.00000000000E+00  0.91188000000E+02  0.91188000000E+02 0.  0.
    9900012    2    3    3    0    0  0.28800445368E+02  0.69872519692E+01 -0.21851566262E+02  0.54367105231E+02  0.40000047996E+02 0.  0.
        -12    1    3    3    0    0 -0.28800445368E+02 -0.69872519692E+01  0.21851566262E+02  0.36820894769E+02  0.00000000000E+00 0.  1.
         11    1    4    4    0    0  0.16740685005E+02  0.17787913962E+02 -0.23940646596E+02  0.34202558052E+02  0.51100000000E-03 0. -1.
        -11    1    4    4    0    0  0.11505844425E+02 -0.31758825622E+01 -0.86815236860E+00  0.11967638647E+02  0.51100000000E-03 0.  1.
         12    1    4    4    0    0  0.55391593714E+00 -0.76247794310E+01  0.29572327028E+01  0.81969085328E+01  0.00000000000E+00 0. -1.
</event>
<event>
 8    1  0.2504019E-006  0.9118800E+02  0.7816164E-02  0.1184000E+00
        -11   -1    0    0    0    0  0.00000000000E+00  0.00000000000E+00  0.45593999997E+02  0.45594000000E+02  0.51100000000E-03 0.  1.
         11   -1    0    0    0    0 -0.00000000000E+00 -0.00000000000E+00 -0.45593999997E+02  0.45594000000E+02  0.51100000000E-03 0. -1.
         23    2    1    2    0    0 -0.71054273576E-14  0.00000000000E+00  0.00000000000E+00  0.91188000000E+02  0.91188000000E+02 0.  0.
    9900012    2    3    3    0    0 -0.32306840183E+02  0.13313680121E+02 -0.11610028299E+02  0.54367098897E+02  0.40000033554E+02 0.  0.
        -12    1    3    3    0    0  0.32306840183E+02 -0.13313680121E+02  0.11610028299E+02  0.36820901103E+02  0.00000000000E+00 0.  1.
         11    1    4    4    0    0 -0.31717675460E+01  0.93742653828E+01 -0.53433926918E+00  0.99107254805E+01  0.51100000000E-03 0. -1.
        -11    1    4    4    0    0 -0.12547905222E+01 -0.44795726127E+01 -0.14410127193E+02  0.15142418434E+02  0.51100000000E-03 0.  1.
        -12    1    4    4    0    0 -0.27880282115E+02  0.84189873508E+01  0.33344381636E+01  0.29313954982E+02  0.00000000000E+00 0.  1.
</event>
<event>
 8    1  0.2504019E-006  0.9118800E+02  0.7816164E-02  0.1184000E+00
        -11   -1    0    0    0    0  0.00000000000E+00  0.00000000000E+00  0.45593999997E+02  0.45594000000E+02  0.51100000000E-03 0. -1.
         11   -1    0    0    0    0 -0.00000000000E+00 -0.00000000000E+00 -0.45593999997E+02  0.45594000000E+02  0.51100000000E-03 0.  1.
         23    2    1    2    0    0 -0.88817841970E-15  0.35527136788E-14  0.35527136788E-14  0.91188000000E+02  0.91188000000E+02 0.  0.
    9900012    2    3    3    0    0  0.57125239272E+01 -0.31381468312E+02 -0.18394308724E+02  0.54367080994E+02  0.39999992741E+02 0.  0.
         12    1    3    3    0    0 -0.57125239272E+01  0.31381468312E+02  0.18394308724E+02  0.36820919006E+02  0.00000000000E+00 0. -1.
         11    1    4    4    0    0  0.13860867273E+00  0.45114417646E+01 -0.31061998518E+01  0.54791237384E+01  0.51100000000E-03 0. -1.
        -11    1    4    4    0    0 -0.50041784336E+01  0.23586709508E+01 -0.59348491260E+01  0.81134188145E+01  0.51100000000E-03 0.  1.
        -12    1    4    4    0    0  0.10578093688E+02 -0.38251581028E+02 -0.93532597461E+01  0.40774538441E+02  0.00000000000E+00 0.  1.
</event>
<event>
 8    1  0.2504019E-006  0.9118800E+02  0.7816164E-02  0.1184000E+00
        -11   -1    0    0    0    0  0.00000000000E+00  0.00000000000E+00  0.45593999997E+02  0.45594000000E+02  0.51100000000E-03 0. -1.
         11   -1    0    0    0    0 -0.00000000000E+00 -0.00000000000E+00 -0.45593999997E+02  0.45594000000E+02  0.51100000000E-03 0.  1.
         23    2    1    2    0    0  0.35527136788E-14 -0.88817841970E-15  0.00000000000E+00  0.91188000000E+02  0.91188000000E+02 0.  0.
    9900012    2    3    3    0    0  0.28718597876E+02 -0.30339701289E+01  0.22843319482E+02  0.54367080896E+02  0.39999992519E+02 0.  0.
        -12    1    3    3    0    0 -0.28718597876E+02  0.30339701289E+01 -0.22843319482E+02  0.36820919104E+02  0.00000000000E+00 0.  1.
         11    1    4    4    0    0  0.37325259159E+01 -0.62000381952E+00 -0.46145034508E+00  0.38117044915E+01  0.51100000000E-03 0. -1.
        -11    1    4    4    0    0  0.14799763911E+02 -0.78088237027E+00 -0.85237562922E+01  0.17096701749E+02  0.51100000000E-03 0.  1.
         12    1    4    4    0    0  0.10186308049E+02 -0.16330839391E+01  0.31828526119E+02  0.33458674656E+02  0.00000000000E+00 0. -1.
</event>
<event>
 8    1  0.2504019E-006  0.9118800E+02  0.7816164E-02  0.1184000E+00
        -11   -1    0    0    0    0  0.00000000000E+00  0.00000000000E+00  0.45593999997E+02  0.45594000000E+02  0.51100000000E-03 0. -1.
         11   -1    0    0    0    0 -0.00000000000E+00 -0.00000000000E+00 -0.45593999997E+02  0.45594000000E+02  0.51100000000E-03 0.  1.
         23    2    1    2    0    0 -0.44408920985E-15  0.00000000000E+00  0.00000000000E+00  0.91188000000E+02  0.91188000000E+02 0.  0.
    9900012    2    3    3    0    0  0.29364469850E+01 -0.26482765739E+02  0.25412715963E+02  0.54367275745E+02  0.40000436713E+02 0.  0.
        -12    1    3    3    0    0 -0.29364469850E+01  0.26482765739E+02 -0.25412715963E+02  0.36820724255E+02  0.00000000000E+00 0.  1.
         11    1    4    4    0    0 -0.74970943852E+01 -0.23367067723E+02  0.53325227734E+01  0.25112986234E+02  0.51100000000E-03 0. -1.
        -11    1    4    4    0    0 -0.38165603278E+01 -0.54263205066E+01  0.45129950460E+01  0.80236034001E+01  0.51100000000E-03 0.  1.
         12    1    4    4    0    0  0.14250101698E+02  0.23106224905E+01  0.15567198144E+02  0.21230686111E+02  0.00000000000E+00 0. -1.
</event>
<event>
 8    1  0.2504019E-006  0.9118800E+02  0.7816164E-02  0.1184000E+00
        -11   -1    0    0    0    0  0.00000000000E+00  0.00000000000E+00  0.45593999997E+02  0.45594000000E+02  0.51100000000E-03 0. -1.
         11   -1    0    0    0    0 -0.00000000000E+00 -0.00000000000E+00 -0.45593999997E+02  0.45594000000E+02  0.51100000000E-03 0.  1.
         23    2    1    2    0    0 -0.35527136788E-14  0.00000000000E+00  0.00000000000E+00  0.91188000000E+02  0.91188000000E+02 0.  0.
    9900012    2    3    3    0    0 -0.18282378658E+02 -0.28664761964E+02  0.14137376195E+02  0.54367090810E+02  0.40000015120E+02 0.  0.
        -12    1    3    3    0    0  0.18282378658E+02  0.28664761964E+02 -0.14137376195E+02  0.36820909190E+02  0.00000000000E+00 0.  1.
         11    1    4    4    0    0  0.84025691735E+01 -0.10735709615E+02  0.48668785578E+01  0.14475673968E+02  0.51100000000E-03 0. -1.
        -11    1    4    4    0    0 -0.98741947157E+01  0.27970504465E+01  0.82800993220E+01  0.13186480104E+02  0.51100000000E-03 0.  1.
         12    1    4    4    0    0 -0.16810753116E+02 -0.20726102795E+02  0.99039831566E+00  0.26704936739E+02  0.00000000000E+00 0. -1.
</event>
<event>
 8    1  0.2504019E-006  0.9118800E+02  0.7816164E-02  0.1184000E+00
        -11   -1    0    0    0    0  0.00000000000E+00  0.00000000000E+00  0.45593999997E+02  0.45594000000E+02  0.51100000000E-03 0.  1.
         11   -1    0    0    0    0 -0.00000000000E+00 -0.00000000000E+00 -0.45593999997E+02  0.45594000000E+02  0.51100000000E-03 0. -1.
         23    2    1    2    0    0  0.00000000000E+00  0.00000000000E+00  0.00000000000E+00  0.91188000000E+02  0.91188000000E+02 0.  0.
    9900012    2    3    3    0    0 -0.22339745258E+02  0.23066196269E+02 -0.18018539061E+02  0.54367063315E+02  0.39999952439E+02 0.  0.
        -12    1    3    3    0    0  0.22339745258E+02 -0.23066196269E+02  0.18018539061E+02  0.36820936685E+02  0.00000000000E+00 0.  1.
         11    1    4    4    0    0 -0.21430242693E+02  0.36790286716E+01 -0.13783814422E+00  0.21744184359E+02  0.51100000000E-03 0. -1.
        -11    1    4    4    0    0  0.54877000350E+00  0.32283205187E+01  0.41350260401E+01  0.52746224985E+01  0.51100000000E-03 0.  1.
         12    1    4    4    0    0 -0.14582725685E+01  0.16158847078E+02 -0.22015726957E+02  0.27348256457E+02  0.00000000000E+00 0. -1.
</event>
<event>
 8    1  0.2504019E-006  0.9118800E+02  0.7816164E-02  0.1184000E+00
        -11   -1    0    0    0    0  0.00000000000E+00  0.00000000000E+00  0.45593999997E+02  0.45594000000E+02  0.51100000000E-03 0. -1.
         11   -1    0    0    0    0 -0.00000000000E+00 -0.00000000000E+00 -0.45593999997E+02  0.45594000000E+02  0.51100000000E-03 0.  1.
         23    2    1    2    0    0  0.00000000000E+00  0.00000000000E+00 -0.35527136788E-14  0.91188000000E+02  0.91188000000E+02 0.  0.
    9900012    2    3    3    0    0  0.18974840131E+02 -0.16565357953E+02  0.26857508104E+02  0.54367063243E+02  0.39999952275E+02 0.  0.
        -12    1    3    3    0    0 -0.18974840131E+02  0.16565357953E+02 -0.26857508104E+02  0.36820936757E+02  0.00000000000E+00 0.  1.
         11    1    4    4    0    0 -0.23258729705E+00  0.21658246345E+01 -0.75711577465E+01  0.78782817340E+01  0.51100000000E-03 0. -1.
        -11    1    4    4    0    0  0.10250670044E+02 -0.13070234812E+01  0.18698029693E+02  0.21363540469E+02  0.51100000000E-03 0.  1.
         12    1    4    4    0    0  0.89567573847E+01 -0.17424159106E+02  0.15730636157E+02  0.25125241040E+02  0.00000000000E+00 0. -1.
</event>
<event>
 8    1  0.2504019E-006  0.9118800E+02  0.7816164E-02  0.1184000E+00
        -11   -1    0    0    0    0  0.00000000000E+00  0.00000000000E+00  0.45593999997E+02  0.45594000000E+02  0.51100000000E-03 0.  1.
         11   -1    0    0    0    0 -0.00000000000E+00 -0.00000000000E+00 -0.45593999997E+02  0.45594000000E+02  0.51100000000E-03 0. -1.
         23    2    1    2    0    0  0.71054273576E-14  0.00000000000E+00 -0.17763568394E-14  0.91188000000E+02  0.91188000000E+02 0.  0.
    9900012    2    3    3    0    0  0.33728871960E+02 -0.11338749633E+02 -0.94645086351E+01  0.54367068852E+02  0.39999965062E+02 0.  0.
        -12    1    3    3    0    0 -0.33728871960E+02  0.11338749633E+02  0.94645086351E+01  0.36820931148E+02  0.00000000000E+00 0.  1.
         11    1    4    4    0    0  0.89763223940E+01  0.52704212043E+00 -0.52354886368E+00  0.90070106468E+01  0.51100000000E-03 0. -1.
        -11    1    4    4    0    0  0.27912170032E+02 -0.16117706670E+02 -0.16437325925E+02  0.36180870471E+02  0.51100000000E-03 0.  1.
        -12    1    4    4    0    0 -0.31596204660E+01  0.42519149169E+01  0.74963661538E+01  0.91791877343E+01  0.00000000000E+00 0.  1.
</event>
<event>
 8    1  0.2504019E-006  0.9118800E+02  0.7816164E-02  0.1184000E+00
        -11   -1    0    0    0    0  0.00000000000E+00  0.00000000000E+00  0.45593999997E+02  0.45594000000E+02  0.51100000000E-03 0.  1.
         11   -1    0    0    0    0 -0.00000000000E+00 -0.00000000000E+00 -0.45593999997E+02  0.45594000000E+02  0.51100000000E-03 0. -1.
         23    2    1    2    0    0  0.00000000000E+00 -0.35527136788E-14  0.17763568394E-14  0.91188000000E+02  0.91188000000E+02 0.  0.
    9900012    2    3    3    0    0  0.24376094980E+02 -0.25422450167E+02 -0.10737083225E+02  0.54367082913E+02  0.39999997116E+02 0.  0.
         12    1    3    3    0    0 -0.24376094980E+02  0.25422450167E+02  0.10737083225E+02  0.36820917087E+02  0.00000000000E+00 0. -1.
         11    1    4    4    0    0  0.42696045456E+01 -0.13203419609E+01 -0.14644207696E+02  0.15310964867E+02  0.51100000000E-03 0. -1.
        -11    1    4    4    0    0 -0.27679912811E+01 -0.10614506759E+02 -0.34531388135E+01  0.11500160755E+02  0.51100000000E-03 0.  1.
         12    1    4    4    0    0  0.22874481716E+02 -0.13487601447E+02  0.73602632847E+01  0.27555957290E+02  0.00000000000E+00 0. -1.
</event>
<event>
 8    1  0.2504019E-006  0.9118800E+02  0.7816164E-02  0.1184000E+00
        -11   -1    0    0    0    0  0.00000000000E+00  0.00000000000E+00  0.45593999997E+02  0.45594000000E+02  0.51100000000E-03 0.  1.
         11   -1    0    0    0    0 -0.00000000000E+00 -0.00000000000E+00 -0.45593999997E+02  0.45594000000E+02  0.51100000000E-03 0. -1.
         23    2    1    2    0    0  0.00000000000E+00  0.17763568394E-14  0.00000000000E+00  0.91188000000E+02  0.91188000000E+02 0.  0.
    9900012    2    3    3    0    0 -0.51925859999E+01 -0.10420670082E+02 -0.34931822303E+02  0.54367007024E+02  0.39999824113E+02 0.  0.
        -12    1    3    3    0    0  0.51925859999E+01  0.10420670082E+02  0.34931822303E+02  0.36820992976E+02  0.00000000000E+00 0.  1.
         11    1    4    4    0    0 -0.17006292842E+02 -0.82629421147E+01 -0.61694116404E+01  0.19888485333E+02  0.51100000000E-03 0. -1.
        -11    1    4    4    0    0  0.53232897173E+01 -0.57314713805E+01 -0.43159083898E+01  0.89338817481E+01  0.51100000000E-03 0.  1.
         12    1    4    4    0    0  0.64904171245E+01  0.35737434132E+01 -0.24446502273E+02  0.25544639943E+02  0.00000000000E+00 0. -1.
</event>
<event>
 8    1  0.2504019E-006  0.9118800E+02  0.7816164E-02  0.1184000E+00
        -11   -1    0    0    0    0  0.00000000000E+00  0.00000000000E+00  0.45593999997E+02  0.45594000000E+02  0.51100000000E-03 0. -1.
         11   -1    0    0    0    0 -0.00000000000E+00 -0.00000000000E+00 -0.45593999997E+02  0.45594000000E+02  0.51100000000E-03 0.  1.
         23    2    1    2    0    0  0.35527136788E-14  0.35527136788E-14  0.00000000000E+00  0.91188000000E+02  0.91188000000E+02 0.  0.
    9900012    2    3    3    0    0 -0.19016872883E+02 -0.30719299040E+02 -0.71036997155E+01  0.54367091030E+02  0.40000015620E+02 0.  0.
         12    1    3    3    0    0  0.19016872883E+02  0.30719299040E+02  0.71036997155E+01  0.36820908970E+02  0.00000000000E+00 0. -1.
         11    1    4    4    0    0 -0.11543507034E+02 -0.19125414507E+02  0.14889939518E+02  0.26846681989E+02  0.51100000000E-03 0. -1.
        -11    1    4    4    0    0 -0.12034839171E+01 -0.24239774560E+01  0.18784961146E+00  0.27128081362E+01  0.51100000000E-03 0.  1.
         12    1    4    4    0    0 -0.62698819315E+01 -0.91699070768E+01 -0.22181488845E+02  0.24807600904E+02  0.00000000000E+00 0. -1.
</event>
<event>
 8    1  0.2504019E-006  0.9118800E+02  0.7816164E-02  0.1184000E+00
        -11   -1    0    0    0    0  0.00000000000E+00  0.00000000000E+00  0.45593999997E+02  0.45594000000E+02  0.51100000000E-03 0. -1.
         11   -1    0    0    0    0 -0.00000000000E+00 -0.00000000000E+00 -0.45593999997E+02  0.45594000000E+02  0.51100000000E-03 0.  1.
         23    2    1    2    0    0  0.00000000000E+00  0.00000000000E+00  0.88817841970E-15  0.91188000000E+02  0.91188000000E+02 0.  0.
    9900012    2    3    3    0    0  0.29975625294E+02  0.20562813596E+02 -0.58662263082E+01  0.54367081681E+02  0.39999994309E+02 0.  0.
         12    1    3    3    0    0 -0.29975625294E+02 -0.20562813596E+02  0.58662263082E+01  0.36820918319E+02  0.00000000000E+00 0. -1.
         11    1    4    4    0    0  0.56493049792E+01  0.53735404526E+01 -0.19047681769E+02  0.20581636591E+02  0.51100000000E-03 0. -1.
        -11    1    4    4    0    0  0.75859009104E+01  0.84621746665E+01 -0.12890527369E+00  0.11365338074E+02  0.51100000000E-03 0.  1.
         12    1    4    4    0    0  0.16740419404E+02  0.67270984770E+01  0.13310360734E+02  0.22420107016E+02  0.00000000000E+00 0. -1.
</event>
<event>
 8    1  0.2504019E-006  0.9118800E+02  0.7816164E-02  0.1184000E+00
        -11   -1    0    0    0    0  0.00000000000E+00  0.00000000000E+00  0.45593999997E+02  0.45594000000E+02  0.51100000000E-03 0. -1.
         11   -1    0    0    0    0 -0.00000000000E+00 -0.00000000000E+00 -0.45593999997E+02  0.45594000000E+02  0.51100000000E-03 0.  1.
         23    2    1    2    0    0  0.00000000000E+00  0.00000000000E+00  0.35527136788E-14  0.91188000000E+02  0.91188000000E+02 0.  0.
    9900012    2    3    3    0    0 -0.12022919337E+02  0.15936624397E+02 -0.30939506748E+02  0.54367086590E+02  0.40000005500E+02 0.  0.
         12    1    3    3    0    0  0.12022919337E+02 -0.15936624397E+02  0.30939506748E+02  0.36820913410E+02  0.00000000000E+00 0. -1.
         11    1    4    4    0    0  0.92629899319E+01  0.14924387594E+02 -0.76399634939E+01  0.19154878491E+02  0.51100000000E-03 0. -1.
        -11    1    4    4    0    0 -0.95853962855E+01  0.83756524265E+00 -0.21257269107E+02  0.23333512972E+02  0.51100000000E-03 0.  1.
         12    1    4    4    0    0 -0.11700512984E+02  0.17467155970E+00 -0.20422741468E+01  0.11878695127E+02  0.00000000000E+00 0. -1.
</event>
<event>
 8    1  0.2504019E-006  0.9118800E+02  0.7816164E-02  0.1184000E+00
        -11   -1    0    0    0    0  0.00000000000E+00  0.00000000000E+00  0.45593999997E+02  0.45594000000E+02  0.51100000000E-03 0. -1.
         11   -1    0    0    0    0 -0.00000000000E+00 -0.00000000000E+00 -0.45593999997E+02  0.45594000000E+02  0.51100000000E-03 0.  1.
         23    2    1    2    0    0  0.00000000000E+00 -0.71054273576E-14  0.10547118734E-14  0.91188000000E+02  0.91188000000E+02 0.  0.
    9900012    2    3    3    0    0  0.97186937672E+01  0.35513188564E+02  0.37547197497E+00  0.54367074567E+02  0.39999978090E+02 0.  0.
         12    1    3    3    0    0 -0.97186937672E+01 -0.35513188564E+02 -0.37547197497E+00  0.36820925433E+02  0.00000000000E+00 0. -1.
         11    1    4    4    0    0  0.54076188435E+01  0.26967799236E+02 -0.11191188029E+02  0.29694228849E+02  0.51100000000E-03 0. -1.
        -11    1    4    4    0    0 -0.19092595689E+01  0.10905205625E+02 -0.29258257204E+00  0.11074944092E+02  0.51100000000E-03 0.  1.
         12    1    4    4    0    0  0.62203344925E+01 -0.23598162966E+01  0.11859242576E+02  0.13597901626E+02  0.00000000000E+00 0. -1.
</event>
<event>
 8    1  0.2504019E-006  0.9118800E+02  0.7816164E-02  0.1184000E+00
        -11   -1    0    0    0    0  0.00000000000E+00  0.00000000000E+00  0.45593999997E+02  0.45594000000E+02  0.51100000000E-03 0.  1.
         11   -1    0    0    0    0 -0.00000000000E+00 -0.00000000000E+00 -0.45593999997E+02  0.45594000000E+02  0.51100000000E-03 0. -1.
         23    2    1    2    0    0  0.35527136788E-14  0.00000000000E+00  0.00000000000E+00  0.91188000000E+02  0.91188000000E+02 0.  0.
    9900012    2    3    3    0    0  0.16766341840E+02 -0.20810977757E+02  0.25329297962E+02  0.54367077291E+02  0.39999984301E+02 0.  0.
         12    1    3    3    0    0 -0.16766341840E+02  0.20810977757E+02 -0.25329297962E+02  0.36820922709E+02  0.00000000000E+00 0. -1.
         11    1    4    4    0    0  0.13070512008E+02 -0.60518008044E+01  0.49179437486E+01  0.15220011436E+02  0.51100000000E-03 0. -1.
        -11    1    4    4    0    0 -0.67941309616E+01 -0.39681141599E+01  0.22608124983E+02  0.23938117324E+02  0.51100000000E-03 0.  1.
        -12    1    4    4    0    0  0.10489960793E+02 -0.10791062792E+02 -0.21967707695E+01  0.15208948532E+02  0.00000000000E+00 0.  1.
</event>
<event>
 8    1  0.2504019E-006  0.9118800E+02  0.7816164E-02  0.1184000E+00
        -11   -1    0    0    0    0  0.00000000000E+00  0.00000000000E+00  0.45593999997E+02  0.45594000000E+02  0.51100000000E-03 0.  1.
         11   -1    0    0    0    0 -0.00000000000E+00 -0.00000000000E+00 -0.45593999997E+02  0.45594000000E+02  0.51100000000E-03 0. -1.
         23    2    1    2    0    0  0.88817841970E-15  0.00000000000E+00  0.35527136788E-14  0.91188000000E+02  0.91188000000E+02 0.  0.
    9900012    2    3    3    0    0 -0.54135494406E+01  0.34217689983E+02 -0.12474841582E+02  0.54367102431E+02  0.40000041612E+02 0.  0.
        -12    1    3    3    0    0  0.54135494406E+01 -0.34217689983E+02  0.12474841582E+02  0.36820897569E+02  0.00000000000E+00 0.  1.
         11    1    4    4    0    0  0.18783107015E+01  0.33506662788E+02 -0.36023429119E+01  0.33752057375E+02  0.51100000000E-03 0. -1.
        -11    1    4    4    0    0 -0.37719373282E+01 -0.20128092001E-01  0.50119240855E+01  0.62727425938E+01  0.51100000000E-03 0.  1.
        -12    1    4    4    0    0 -0.35199228139E+01  0.73115528624E+00 -0.13884422756E+02  0.14342302462E+02  0.00000000000E+00 0.  1.
</event>
<event>
 8    1  0.2504019E-006  0.9118800E+02  0.7816164E-02  0.1184000E+00
        -11   -1    0    0    0    0  0.00000000000E+00  0.00000000000E+00  0.45593999997E+02  0.45594000000E+02  0.51100000000E-03 0. -1.
         11   -1    0    0    0    0 -0.00000000000E+00 -0.00000000000E+00 -0.45593999997E+02  0.45594000000E+02  0.51100000000E-03 0.  1.
         23    2    1    2    0    0  0.35527136788E-14  0.35527136788E-14  0.00000000000E+00  0.91188000000E+02  0.91188000000E+02 0.  0.
    9900012    2    3    3    0    0 -0.26242948844E+02 -0.25717502241E+02  0.23870561745E+01  0.54367077650E+02  0.39999985119E+02 0.  0.
         12    1    3    3    0    0  0.26242948844E+02  0.25717502241E+02 -0.23870561745E+01  0.36820922350E+02  0.00000000000E+00 0. -1.
         11    1    4    4    0    0 -0.43987229406E+01 -0.10886546024E+02  0.28162275681E+00  0.11744997211E+02  0.51100000000E-03 0. -1.
        -11    1    4    4    0    0  0.36775343721E+01 -0.16082162806E+02 -0.24143488927E+01  0.16673011138E+02  0.51100000000E-03 0.  1.
         12    1    4    4    0    0 -0.25521760275E+02  0.12512065888E+01  0.45197823104E+01  0.25949069301E+02  0.00000000000E+00 0. -1.
</event>
<event>
 8    1  0.2504019E-006  0.9118800E+02  0.7816164E-02  0.1184000E+00
        -11   -1    0    0    0    0  0.00000000000E+00  0.00000000000E+00  0.45593999997E+02  0.45594000000E+02  0.51100000000E-03 0.  1.
         11   -1    0    0    0    0 -0.00000000000E+00 -0.00000000000E+00 -0.45593999997E+02  0.45594000000E+02  0.51100000000E-03 0. -1.
         23    2    1    2    0    0  0.44408920985E-15  0.00000000000E+00 -0.35527136788E-14  0.91188000000E+02  0.91188000000E+02 0.  0.
    9900012    2    3    3    0    0 -0.22606364881E+01 -0.31304128200E+02  0.19254128392E+02  0.54367076874E+02  0.39999983350E+02 0.  0.
         12    1    3    3    0    0  0.22606364881E+01  0.31304128200E+02 -0.19254128392E+02  0.36820923126E+02  0.00000000000E+00 0. -1.
         11    1    4    4    0    0 -0.23400697357E+01 -0.11909322310E+02  0.74754429778E+01  0.14254477620E+02  0.51100000000E-03 0. -1.
        -11    1    4    4    0    0  0.88306932116E+01 -0.58141174204E+01  0.19518581985E+02  0.22198201435E+02  0.51100000000E-03 0.  1.
         12    1    4    4    0    0 -0.87512599639E+01 -0.13580688470E+02 -0.77398965716E+01  0.17914397819E+02  0.00000000000E+00 0. -1.
</event>
<event>
 8    1  0.2504019E-006  0.9118800E+02  0.7816164E-02  0.1184000E+00
        -11   -1    0    0    0    0  0.00000000000E+00  0.00000000000E+00  0.45593999997E+02  0.45594000000E+02  0.51100000000E-03 0. -1.
         11   -1    0    0    0    0 -0.00000000000E+00 -0.00000000000E+00 -0.45593999997E+02  0.45594000000E+02  0.51100000000E-03 0.  1.
         23    2    1    2    0    0  0.88817841970E-15  0.24424906542E-14  0.14210854715E-13  0.91188000000E+02  0.91188000000E+02 0.  0.
    9900012    2    3    3    0    0  0.64658725996E+01  0.18338786073E+01  0.36202336140E+02  0.54367085275E+02  0.40000002501E+02 0.  0.
        -12    1    3    3    0    0 -0.64658725996E+01 -0.18338786073E+01 -0.36202336140E+02  0.36820914725E+02  0.00000000000E+00 0.  1.
         11    1    4    4    0    0 -0.54587479348E+01 -0.85064733536E+01  0.15068523827E+02  0.18144377325E+02  0.51100000000E-03 0. -1.
        -11    1    4    4    0    0  0.22127884554E+01 -0.78446929441E+01  0.96228134221E+01  0.12610875408E+02  0.51100000000E-03 0.  1.
         12    1    4    4    0    0  0.97118320790E+01  0.18185044905E+02  0.11510998891E+02  0.23611832542E+02  0.00000000000E+00 0. -1.
</event>
<event>
 8    1  0.2504019E-006  0.9118800E+02  0.7816164E-02  0.1184000E+00
        -11   -1    0    0    0    0  0.00000000000E+00  0.00000000000E+00  0.45593999997E+02  0.45594000000E+02  0.51100000000E-03 0. -1.
         11   -1    0    0    0    0 -0.00000000000E+00 -0.00000000000E+00 -0.45593999997E+02  0.45594000000E+02  0.51100000000E-03 0.  1.
         23    2    1    2    0    0  0.35527136788E-14  0.44408920985E-15  0.00000000000E+00  0.91188000000E+02  0.91188000000E+02 0.  0.
    9900012    2    3    3    0    0  0.15542560619E+02 -0.17373659436E+01 -0.33334519047E+02  0.54367084868E+02  0.40000001575E+02 0.  0.
         12    1    3    3    0    0 -0.15542560619E+02  0.17373659436E+01  0.33334519047E+02  0.36820915132E+02  0.00000000000E+00 0. -1.
         11    1    4    4    0    0  0.17895666090E+02 -0.67605847907E+01 -0.13342361718E+02  0.23323357134E+02  0.51100000000E-03 0. -1.
        -11    1    4    4    0    0 -0.58608125435E+01 -0.75691931025E+01 -0.39645543273E+01  0.10361442910E+02  0.51100000000E-03 0.  1.
        -12    1    4    4    0    0  0.35077070726E+01  0.12592411950E+02 -0.16027603002E+02  0.20682284825E+02  0.00000000000E+00 0.  1.
</event>
<event>
 8    1  0.2504019E-006  0.9118800E+02  0.7816164E-02  0.1184000E+00
        -11   -1    0    0    0    0  0.00000000000E+00  0.00000000000E+00  0.45593999997E+02  0.45594000000E+02  0.51100000000E-03 0.  1.
         11   -1    0    0    0    0 -0.00000000000E+00 -0.00000000000E+00 -0.45593999997E+02  0.45594000000E+02  0.51100000000E-03 0. -1.
         23    2    1    2    0    0  0.00000000000E+00  0.17763568394E-14  0.35527136788E-14  0.91188000000E+02  0.91188000000E+02 0.  0.
    9900012    2    3    3    0    0  0.19224556500E+02  0.52353009959E+01 -0.30964299662E+02  0.54367084711E+02  0.40000001216E+02 0.  0.
        -12    1    3    3    0    0 -0.19224556500E+02 -0.52353009959E+01  0.30964299662E+02  0.36820915289E+02  0.00000000000E+00 0.  1.
         11    1    4    4    0    0 -0.49127103495E+00  0.13966984315E+02 -0.97639817534E+01  0.17048558239E+02  0.51100000000E-03 0. -1.
        -11    1    4    4    0    0  0.13844785695E+02 -0.35666871794E+01  0.44530531976E+00  0.14303763333E+02  0.51100000000E-03 0.  1.
        -12    1    4    4    0    0  0.58710418399E+01 -0.51649961402E+01 -0.21645623228E+02  0.23014763139E+02  0.00000000000E+00 0.  1.
</event>
<event>
 8    1  0.2504019E-006  0.9118800E+02  0.7816164E-02  0.1184000E+00
        -11   -1    0    0    0    0  0.00000000000E+00  0.00000000000E+00  0.45593999997E+02  0.45594000000E+02  0.51100000000E-03 0.  1.
         11   -1    0    0    0    0 -0.00000000000E+00 -0.00000000000E+00 -0.45593999997E+02  0.45594000000E+02  0.51100000000E-03 0. -1.
         23    2    1    2    0    0  0.24980018054E-15  0.00000000000E+00 -0.71054273576E-14  0.91188000000E+02  0.91188000000E+02 0.  0.
    9900012    2    3    3    0    0  0.20060402549E+00  0.11643266055E+02 -0.34930998998E+02  0.54367074191E+02  0.39999977234E+02 0.  0.
        -12    1    3    3    0    0 -0.20060402549E+00 -0.11643266055E+02  0.34930998998E+02  0.36820925809E+02  0.00000000000E+00 0.  1.
         11    1    4    4    0    0  0.30769038104E+01  0.10894744504E+02 -0.23242664724E+02  0.25853128604E+02  0.51100000000E-03 0. -1.
        -11    1    4    4    0    0 -0.26676681053E+01 -0.40852073365E+00 -0.19968844194E+02  0.20150386622E+02  0.51100000000E-03 0.  1.
        -12    1    4    4    0    0 -0.20863167964E+00  0.11570422848E+01  0.82805099204E+01  0.83635589655E+01  0.00000000000E+00 0.  1.
</event>
<event>
 8    1  0.2504019E-006  0.9118800E+02  0.7816164E-02  0.1184000E+00
        -11   -1    0    0    0    0  0.00000000000E+00  0.00000000000E+00  0.45593999997E+02  0.45594000000E+02  0.51100000000E-03 0.  1.
         11   -1    0    0    0    0 -0.00000000000E+00 -0.00000000000E+00 -0.45593999997E+02  0.45594000000E+02  0.51100000000E-03 0. -1.
         23    2    1    2    0    0  0.00000000000E+00  0.35527136788E-14  0.35527136788E-14  0.91188000000E+02  0.91188000000E+02 0.  0.
    9900012    2    3    3    0    0 -0.15742993962E+02  0.26487779139E+02 -0.20157822557E+02  0.54367053341E+02  0.39999929702E+02 0.  0.
        -12    1    3    3    0    0  0.15742993962E+02 -0.26487779139E+02  0.20157822557E+02  0.36820946659E+02  0.00000000000E+00 0.  1.
         11    1    4    4    0    0 -0.90821827755E+01  0.19310796953E+02 -0.10147395355E+02  0.23629696479E+02  0.51100000000E-03 0. -1.
        -11    1    4    4    0    0  0.48322674026E+01  0.89714923276E+01  0.53184602481E+01  0.11494542292E+02  0.51100000000E-03 0.  1.
        -12    1    4    4    0    0 -0.11493078589E+02 -0.17945101417E+01 -0.15328887450E+02  0.19242814570E+02  0.00000000000E+00 0.  1.
</event>
<event>
 8    1  0.2504019E-006  0.9118800E+02  0.7816164E-02  0.1184000E+00
        -11   -1    0    0    0    0  0.00000000000E+00  0.00000000000E+00  0.45593999997E+02  0.45594000000E+02  0.51100000000E-03 0.  1.
         11   -1    0    0    0    0 -0.00000000000E+00 -0.00000000000E+00 -0.45593999997E+02  0.45594000000E+02  0.51100000000E-03 0. -1.
         23    2    1    2    0    0  0.88817841970E-15 -0.17763568394E-14  0.71054273576E-14  0.91188000000E+02  0.91188000000E+02 0.  0.
    9900012    2    3    3    0    0 -0.55273390069E+01  0.87822777881E+01 -0.35328443608E+02  0.54367098227E+02  0.40000032028E+02 0.  0.
        -12    1    3    3    0    0  0.55273390069E+01 -0.87822777881E+01  0.35328443608E+02  0.36820901773E+02  0.00000000000E+00 0.  1.
         11    1    4    4    0    0 -0.36222997215E+00  0.86906022274E+01 -0.34519802878E+02  0.35598800101E+02  0.51100000000E-03 0. -1.
        -11    1    4    4    0    0 -0.67916782046E+01 -0.79614436557E+01 -0.12589088675E+01  0.10540224367E+02  0.51100000000E-03 0.  1.
         12    1    4    4    0    0  0.16265691699E+01  0.80531192164E+01  0.45026813780E+00  0.82280737584E+01  0.00000000000E+00 0. -1.
</event>
<event>
 8    1  0.2504019E-006  0.9118800E+02  0.7816164E-02  0.1184000E+00
        -11   -1    0    0    0    0  0.00000000000E+00  0.00000000000E+00  0.45593999997E+02  0.45594000000E+02  0.51100000000E-03 0.  1.
         11   -1    0    0    0    0 -0.00000000000E+00 -0.00000000000E+00 -0.45593999997E+02  0.45594000000E+02  0.51100000000E-03 0. -1.
         23    2    1    2    0    0  0.00000000000E+00 -0.35527136788E-14  0.00000000000E+00  0.91188000000E+02  0.91188000000E+02 0.  0.
    9900012    2    3    3    0    0 -0.13486993091E+02 -0.27266373836E+02  0.20746699817E+02  0.54367086404E+02  0.40000005075E+02 0.  0.
         12    1    3    3    0    0  0.13486993091E+02  0.27266373836E+02 -0.20746699817E+02  0.36820913596E+02  0.00000000000E+00 0. -1.
         11    1    4    4    0    0 -0.87379167033E+01 -0.16849857250E+02  0.75204597113E+01  0.20416321710E+02  0.51100000000E-03 0. -1.
        -11    1    4    4    0    0  0.56159048819E+01 -0.82038869721E+01  0.19318063505E+02  0.21726245118E+02  0.51100000000E-03 0.  1.
        -12    1    4    4    0    0 -0.10364981269E+02 -0.22126296139E+01 -0.60918233993E+01  0.12224519575E+02  0.00000000000E+00 0.  1.
</event>
<event>
 8    1  0.2504019E-006  0.9118800E+02  0.7816164E-02  0.1184000E+00
        -11   -1    0    0    0    0  0.00000000000E+00  0.00000000000E+00  0.45593999997E+02  0.45594000000E+02  0.51100000000E-03 0.  1.
         11   -1    0    0    0    0 -0.00000000000E+00 -0.00000000000E+00 -0.45593999997E+02  0.45594000000E+02  0.51100000000E-03 0. -1.
         23    2    1    2    0    0  0.35527136788E-14  0.00000000000E+00 -0.35527136788E-14  0.91188000000E+02  0.91188000000E+02 0.  0.
    9900012    2    3    3    0    0  0.11922016400E+02  0.17081758724E+02  0.30362114910E+02  0.54367095911E+02  0.40000026748E+02 0.  0.
         12    1    3    3    0    0 -0.11922016400E+02 -0.17081758724E+02 -0.30362114910E+02  0.36820904089E+02  0.00000000000E+00 0. -1.
         11    1    4    4    0    0 -0.47886226008E+01  0.12058822750E+02 -0.36756924044E+01  0.13485430191E+02  0.51100000000E-03 0. -1.
        -11    1    4    4    0    0 -0.70101580877E+00 -0.28088538139E+01  0.86138260431E+01  0.90873033554E+01  0.51100000000E-03 0.  1.
         12    1    4    4    0    0  0.17411654810E+02  0.78317897876E+01  0.25423981271E+02  0.31794362365E+02  0.00000000000E+00 0. -1.
</event>
<event>
 8    1  0.2504019E-006  0.9118800E+02  0.7816164E-02  0.1184000E+00
        -11   -1    0    0    0    0  0.00000000000E+00  0.00000000000E+00  0.45593999997E+02  0.45594000000E+02  0.51100000000E-03 0. -1.
         11   -1    0    0    0    0 -0.00000000000E+00 -0.00000000000E+00 -0.45593999997E+02  0.45594000000E+02  0.51100000000E-03 0.  1.
         23    2    1    2    0    0 -0.17763568394E-14  0.71054273576E-14  0.00000000000E+00  0.91188000000E+02  0.91188000000E+02 0.  0.
    9900012    2    3    3    0    0 -0.97184416914E+01  0.33747010703E+02 -0.11066716419E+02  0.54367067738E+02  0.39999962523E+02 0.  0.
         12    1    3    3    0    0  0.97184416914E+01 -0.33747010703E+02  0.11066716419E+02  0.36820932262E+02  0.00000000000E+00 0. -1.
         11    1    4    4    0    0 -0.11077387129E+01  0.79588602779E+00  0.52919543411E+01  0.54649154280E+01  0.51100000000E-03 0. -1.
        -11    1    4    4    0    0  0.48745153693E+01  0.85250726472E+01  0.73675884134E+01  0.12276771685E+02  0.51100000000E-03 0.  1.
        -12    1    4    4    0    0 -0.13485218348E+02  0.24426052028E+02 -0.23726259173E+02  0.36625380625E+02  0.00000000000E+00 0.  1.
</event>
<event>
 8    1  0.2504019E-006  0.9118800E+02  0.7816164E-02  0.1184000E+00
        -11   -1    0    0    0    0  0.00000000000E+00  0.00000000000E+00  0.45593999997E+02  0.45594000000E+02  0.51100000000E-03 0. -1.
         11   -1    0    0    0    0 -0.00000000000E+00 -0.00000000000E+00 -0.45593999997E+02  0.45594000000E+02  0.51100000000E-03 0.  1.
         23    2    1    2    0    0 -0.35527136788E-14  0.00000000000E+00  0.17763568394E-14  0.91188000000E+02  0.91188000000E+02 0.  0.
    9900012    2    3    3    0    0 -0.22148576744E+02 -0.25306306192E+02 -0.14993700412E+02  0.54367086963E+02  0.40000006349E+02 0.  0.
         12    1    3    3    0    0  0.22148576744E+02  0.25306306192E+02  0.14993700412E+02  0.36820913037E+02  0.00000000000E+00 0. -1.
         11    1    4    4    0    0 -0.17110156632E+02 -0.77801710817E+00 -0.39351902215E+01  0.17574085835E+02  0.51100000000E-03 0. -1.
        -11    1    4    4    0    0 -0.69435607106E+01  0.22119224840E+01 -0.61579899434E+01  0.95407796758E+01  0.51100000000E-03 0.  1.
        -12    1    4    4    0    0  0.19051405985E+01 -0.26740211568E+02 -0.49005202471E+01  0.27252221452E+02  0.00000000000E+00 0.  1.
</event>
<event>
 8    1  0.2504019E-006  0.9118800E+02  0.7816164E-02  0.1184000E+00
        -11   -1    0    0    0    0  0.00000000000E+00  0.00000000000E+00  0.45593999997E+02  0.45594000000E+02  0.51100000000E-03 0. -1.
         11   -1    0    0    0    0 -0.00000000000E+00 -0.00000000000E+00 -0.45593999997E+02  0.45594000000E+02  0.51100000000E-03 0.  1.
         23    2    1    2    0    0  0.00000000000E+00  0.00000000000E+00  0.00000000000E+00  0.91188000000E+02  0.91188000000E+02 0.  0.
    9900012    2    3    3    0    0 -0.35740690460E+02  0.87409573715E+01  0.14067505614E+01  0.54367078807E+02  0.39999987757E+02 0.  0.
         12    1    3    3    0    0  0.35740690460E+02 -0.87409573715E+01 -0.14067505614E+01  0.36820921193E+02  0.00000000000E+00 0. -1.
         11    1    4    4    0    0 -0.24498714221E+02 -0.82029016724E+01 -0.24896211299E+01  0.25955207724E+02  0.51100000000E-03 0. -1.
        -11    1    4    4    0    0 -0.16317763401E+02  0.15400020260E+02  0.12218748241E+01  0.22470491867E+02  0.51100000000E-03 0.  1.
        -12    1    4    4    0    0  0.50757871616E+01  0.15438387844E+01  0.26744968672E+01  0.59413792165E+01  0.00000000000E+00 0.  1.
</event>
<event>
 8    1  0.2504019E-006  0.9118800E+02  0.7816164E-02  0.1184000E+00
        -11   -1    0    0    0    0  0.00000000000E+00  0.00000000000E+00  0.45593999997E+02  0.45594000000E+02  0.51100000000E-03 0.  1.
         11   -1    0    0    0    0 -0.00000000000E+00 -0.00000000000E+00 -0.45593999997E+02  0.45594000000E+02  0.51100000000E-03 0. -1.
         23    2    1    2    0    0  0.00000000000E+00  0.33306690739E-15  0.88817841970E-15  0.91188000000E+02  0.91188000000E+02 0.  0.
    9900012    2    3    3    0    0 -0.36517753191E+02 -0.89252022855E+00 -0.46299161189E+01  0.54367095425E+02  0.40000025639E+02 0.  0.
        -12    1    3    3    0    0  0.36517753191E+02  0.89252022855E+00  0.46299161189E+01  0.36820904575E+02  0.00000000000E+00 0.  1.
         11    1    4    4    0    0 -0.22091096782E+02  0.13140517047E+00 -0.19122174396E+02  0.29217997506E+02  0.51100000000E-03 0. -1.
        -11    1    4    4    0    0 -0.31294003894E+00  0.41742040214E+01  0.74413037778E+01  0.85378517705E+01  0.51100000000E-03 0.  1.
         12    1    4    4    0    0 -0.14113716370E+02 -0.51981294205E+01  0.70509544993E+01  0.16611246148E+02  0.00000000000E+00 0. -1.
</event>
<event>
 8    1  0.2504019E-006  0.9118800E+02  0.7816164E-02  0.1184000E+00
        -11   -1    0    0    0    0  0.00000000000E+00  0.00000000000E+00  0.45593999997E+02  0.45594000000E+02  0.51100000000E-03 0.  1.
         11   -1    0    0    0    0 -0.00000000000E+00 -0.00000000000E+00 -0.45593999997E+02  0.45594000000E+02  0.51100000000E-03 0. -1.
         23    2    1    2    0    0  0.00000000000E+00  0.00000000000E+00  0.00000000000E+00  0.91188000000E+02  0.91188000000E+02 0.  0.
    9900012    2    3    3    0    0  0.16392455986E+02  0.68719884291E+01  0.32246493468E+02  0.54367174653E+02  0.40000206256E+02 0.  0.
         12    1    3    3    0    0 -0.16392455986E+02 -0.68719884291E+01 -0.32246493468E+02  0.36820825347E+02  0.00000000000E+00 0. -1.
         11    1    4    4    0    0  0.11002144823E+02  0.48955233949E+01  0.91343505454E+01  0.15114552595E+02  0.51100000000E-03 0.  1.
        -11    1    4    4    0    0  0.11529445200E+02 -0.38534796330E+01 -0.23836906480E+01  0.12387872831E+02  0.51100000000E-03 0. -1.
        -12    1    4    4    0    0 -0.61391340368E+01  0.58299446672E+01  0.25495833571E+02  0.26864749227E+02  0.00000000000E+00 0.  1.
</event>
<event>
 8    1  0.2504019E-006  0.9118800E+02  0.7816164E-02  0.1184000E+00
        -11   -1    0    0    0    0  0.00000000000E+00  0.00000000000E+00  0.45593999997E+02  0.45594000000E+02  0.51100000000E-03 0.  1.
         11   -1    0    0    0    0 -0.00000000000E+00 -0.00000000000E+00 -0.45593999997E+02  0.45594000000E+02  0.51100000000E-03 0. -1.
         23    2    1    2    0    0  0.35527136788E-14 -0.35527136788E-14 -0.35527136788E-14  0.91188000000E+02  0.91188000000E+02 0.  0.
    9900012    2    3    3    0    0  0.18553724276E+02 -0.28707091308E+02 -0.13690960284E+02  0.54367079731E+02  0.39999989864E+02 0.  0.
        -12    1    3    3    0    0 -0.18553724276E+02  0.28707091308E+02  0.13690960284E+02  0.36820920269E+02  0.00000000000E+00 0.  1.
         11    1    4    4    0    0  0.34853114419E+01 -0.17685510171E+02 -0.23257497466E+02  0.29425088862E+02  0.51100000000E-03 0. -1.
        -11    1    4    4    0    0  0.29000494210E+01 -0.62603963474E+01 -0.23185758190E+01  0.72786429477E+01  0.51100000000E-03 0.  1.
        -12    1    4    4    0    0  0.12168363413E+02 -0.47611847901E+01  0.11885113001E+02  0.17663347922E+02  0.00000000000E+00 0.  1.
</event>
<event>
 8    1  0.2504019E-006  0.9118800E+02  0.7816164E-02  0.1184000E+00
        -11   -1    0    0    0    0  0.00000000000E+00  0.00000000000E+00  0.45593999997E+02  0.45594000000E+02  0.51100000000E-03 0.  1.
         11   -1    0    0    0    0 -0.00000000000E+00 -0.00000000000E+00 -0.45593999997E+02  0.45594000000E+02  0.51100000000E-03 0. -1.
         23    2    1    2    0    0  0.00000000000E+00  0.00000000000E+00  0.00000000000E+00  0.91188000000E+02  0.91188000000E+02 0.  0.
    9900012    2    3    3    0    0  0.10201703322E+02 -0.35017483517E+02  0.50478517401E+01  0.54367085974E+02  0.40000004095E+02 0.  0.
         12    1    3    3    0    0 -0.10201703322E+02  0.35017483517E+02 -0.50478517401E+01  0.36820914026E+02  0.00000000000E+00 0. -1.
         11    1    4    4    0    0  0.17760084155E+02 -0.15149233504E+02 -0.10207433823E+02  0.25477668074E+02  0.51100000000E-03 0. -1.
        -11    1    4    4    0    0 -0.11734278446E+00 -0.15498966914E+02  0.72201220490E+01  0.17098593726E+02  0.51100000000E-03 0.  1.
         12    1    4    4    0    0 -0.74410380478E+01 -0.43692830980E+01  0.80351635139E+01  0.11790824175E+02  0.00000000000E+00 0. -1.
</event>
<event>
 8    1  0.2504019E-006  0.9118800E+02  0.7816164E-02  0.1184000E+00
        -11   -1    0    0    0    0  0.00000000000E+00  0.00000000000E+00  0.45593999997E+02  0.45594000000E+02  0.51100000000E-03 0.  1.
         11   -1    0    0    0    0 -0.00000000000E+00 -0.00000000000E+00 -0.45593999997E+02  0.45594000000E+02  0.51100000000E-03 0. -1.
         23    2    1    2    0    0 -0.35527136788E-14  0.00000000000E+00  0.00000000000E+00  0.91188000000E+02  0.91188000000E+02 0.  0.
    9900012    2    3    3    0    0 -0.29348107640E+02  0.18984148670E+02 -0.11579056005E+02  0.54367029607E+02  0.39999875594E+02 0.  0.
        -12    1    3    3    0    0  0.29348107640E+02 -0.18984148670E+02  0.11579056005E+02  0.36820970393E+02  0.00000000000E+00 0.  1.
         11    1    4    4    0    0 -0.26794127983E+02  0.23555560844E+02 -0.58933990620E+01  0.36159672203E+02  0.51100000000E-03 0. -1.
        -11    1    4    4    0    0 -0.66384723457E+00  0.62580751140E+01 -0.23756144246E+01  0.67266441439E+01  0.51100000000E-03 0.  1.
         12    1    4    4    0    0 -0.18901324221E+01 -0.10829487288E+02 -0.33100425179E+01  0.11480713260E+02  0.00000000000E+00 0. -1.
</event>
<event>
 8    1  0.2504019E-006  0.9118800E+02  0.7816164E-02  0.1184000E+00
        -11   -1    0    0    0    0  0.00000000000E+00  0.00000000000E+00  0.45593999997E+02  0.45594000000E+02  0.51100000000E-03 0.  1.
         11   -1    0    0    0    0 -0.00000000000E+00 -0.00000000000E+00 -0.45593999997E+02  0.45594000000E+02  0.51100000000E-03 0. -1.
         23    2    1    2    0    0  0.53290705182E-14 -0.35527136788E-14  0.35527136788E-14  0.91188000000E+02  0.91188000000E+02 0.  0.
    9900012    2    3    3    0    0  0.15050744399E+02 -0.28123805734E+02  0.18393102309E+02  0.54367087892E+02  0.40000008468E+02 0.  0.
         12    1    3    3    0    0 -0.15050744399E+02  0.28123805734E+02 -0.18393102309E+02  0.36820912108E+02  0.00000000000E+00 0. -1.
         11    1    4    4    0    0 -0.98855553185E+01 -0.11542250462E+01  0.10823881666E+02  0.14704178114E+02  0.51100000000E-03 0. -1.
        -11    1    4    4    0    0  0.14663500756E+02 -0.19182141643E+02  0.10680910795E+02  0.26401792895E+02  0.51100000000E-03 0.  1.
         12    1    4    4    0    0  0.10272798962E+02 -0.77874390447E+01 -0.31116901526E+01  0.13261116883E+02  0.00000000000E+00 0. -1.
</event>
<event>
 8    1  0.2504019E-006  0.9118800E+02  0.7816164E-02  0.1184000E+00
        -11   -1    0    0    0    0  0.00000000000E+00  0.00000000000E+00  0.45593999997E+02  0.45594000000E+02  0.51100000000E-03 0.  1.
         11   -1    0    0    0    0 -0.00000000000E+00 -0.00000000000E+00 -0.45593999997E+02  0.45594000000E+02  0.51100000000E-03 0. -1.
         23    2    1    2    0    0  0.35527136788E-14  0.17763568394E-14  0.00000000000E+00  0.91188000000E+02  0.91188000000E+02 0.  0.
    9900012    2    3    3    0    0  0.24377051671E+02  0.99551696719E+01 -0.25737810702E+02  0.54367069117E+02  0.39999965666E+02 0.  0.
        -12    1    3    3    0    0 -0.24377051671E+02 -0.99551696719E+01  0.25737810702E+02  0.36820930883E+02  0.00000000000E+00 0.  1.
         11    1    4    4    0    0  0.11558622462E+02  0.19086515065E+02 -0.25068956811E+02  0.33561129397E+02  0.51100000000E-03 0. -1.
        -11    1    4    4    0    0 -0.26801198808E+01 -0.11369630091E+01 -0.16373730479E+01  0.33401673938E+01  0.51100000000E-03 0.  1.
         12    1    4    4    0    0  0.15498549089E+02 -0.79943823840E+01  0.96851915759E+00  0.17465772326E+02  0.00000000000E+00 0. -1.
</event>
<event>
 8    1  0.2504019E-006  0.9118800E+02  0.7816164E-02  0.1184000E+00
        -11   -1    0    0    0    0  0.00000000000E+00  0.00000000000E+00  0.45593999997E+02  0.45594000000E+02  0.51100000000E-03 0.  1.
         11   -1    0    0    0    0 -0.00000000000E+00 -0.00000000000E+00 -0.45593999997E+02  0.45594000000E+02  0.51100000000E-03 0. -1.
         23    2    1    2    0    0  0.00000000000E+00  0.00000000000E+00  0.00000000000E+00  0.91188000000E+02  0.91188000000E+02 0.  0.
    9900012    2    3    3    0    0 -0.16799037205E+02 -0.76238672088E+01  0.31866377529E+02  0.54366850927E+02  0.39999468254E+02 0.  0.
         12    1    3    3    0    0  0.16799037205E+02  0.76238672088E+01 -0.31866377529E+02  0.36821149073E+02  0.00000000000E+00 0. -1.
         11    1    4    4    0    0  0.60193144615E+00 -0.12690600162E+02  0.29278528754E+02  0.31916232550E+02  0.51100000000E-03 0.  1.
        -11    1    4    4    0    0 -0.10102725500E+02 -0.78505825055E+00 -0.41209308670E+01  0.10939079050E+02  0.51100000000E-03 0. -1.
         12    1    4    4    0    0 -0.72982431506E+01  0.58517912039E+01  0.67087796426E+01  0.11511539327E+02  0.00000000000E+00 0. -1.
</event>
<event>
 8    1  0.2504019E-006  0.9118800E+02  0.7816164E-02  0.1184000E+00
        -11   -1    0    0    0    0  0.00000000000E+00  0.00000000000E+00  0.45593999997E+02  0.45594000000E+02  0.51100000000E-03 0. -1.
         11   -1    0    0    0    0 -0.00000000000E+00 -0.00000000000E+00 -0.45593999997E+02  0.45594000000E+02  0.51100000000E-03 0.  1.
         23    2    1    2    0    0 -0.35527136788E-14 -0.35527136788E-14  0.00000000000E+00  0.91188000000E+02  0.91188000000E+02 0.  0.
    9900012    2    3    3    0    0 -0.20459909910E+02 -0.29261137064E+02 -0.89976324085E+01  0.54367089572E+02  0.40000012297E+02 0.  0.
         12    1    3    3    0    0  0.20459909910E+02  0.29261137064E+02  0.89976324085E+01  0.36820910428E+02  0.00000000000E+00 0. -1.
         11    1    4    4    0    0 -0.32134940340E+01 -0.59882577557E+00 -0.10486156744E+02  0.10983834474E+02  0.51100000000E-03 0. -1.
        -11    1    4    4    0    0  0.36736694956E+01 -0.17669132452E+02 -0.52745238093E+01  0.18801986354E+02  0.51100000000E-03 0.  1.
        -12    1    4    4    0    0 -0.20920085371E+02 -0.10993178836E+02  0.67630481452E+01  0.24581268744E+02  0.00000000000E+00 0.  1.
</event>
<event>
 8    1  0.2504019E-006  0.9118800E+02  0.7816164E-02  0.1184000E+00
        -11   -1    0    0    0    0  0.00000000000E+00  0.00000000000E+00  0.45593999997E+02  0.45594000000E+02  0.51100000000E-03 0.  1.
         11   -1    0    0    0    0 -0.00000000000E+00 -0.00000000000E+00 -0.45593999997E+02  0.45594000000E+02  0.51100000000E-03 0. -1.
         23    2    1    2    0    0  0.00000000000E+00 -0.17763568394E-14  0.00000000000E+00  0.91188000000E+02  0.91188000000E+02 0.  0.
    9900012    2    3    3    0    0  0.34936667553E+02  0.66602121546E+01  0.95315159783E+01  0.54367096121E+02  0.40000027227E+02 0.  0.
         12    1    3    3    0    0 -0.34936667553E+02 -0.66602121546E+01 -0.95315159783E+01  0.36820903879E+02  0.00000000000E+00 0. -1.
         11    1    4    4    0    0  0.16184338710E+01 -0.10432801537E+02  0.81372017504E+01  0.13329543454E+02  0.51100000000E-03 0. -1.
        -11    1    4    4    0    0  0.26801347914E+02  0.19112150013E+02  0.50409535443E+01  0.33301617694E+02  0.51100000000E-03 0.  1.
        -12    1    4    4    0    0  0.65168857680E+01 -0.20191363216E+01 -0.36466393164E+01  0.77359349728E+01  0.00000000000E+00 0.  1.
</event>
<event>
 8    1  0.2504019E-006  0.9118800E+02  0.7816164E-02  0.1184000E+00
        -11   -1    0    0    0    0  0.00000000000E+00  0.00000000000E+00  0.45593999997E+02  0.45594000000E+02  0.51100000000E-03 0. -1.
         11   -1    0    0    0    0 -0.00000000000E+00 -0.00000000000E+00 -0.45593999997E+02  0.45594000000E+02  0.51100000000E-03 0.  1.
         23    2    1    2    0    0  0.00000000000E+00  0.00000000000E+00  0.00000000000E+00  0.91188000000E+02  0.91188000000E+02 0.  0.
    9900012    2    3    3    0    0 -0.19742977323E+02  0.30361274639E+02  0.66473712959E+01  0.54367086154E+02  0.40000004506E+02 0.  0.
        -12    1    3    3    0    0  0.19742977323E+02 -0.30361274639E+02 -0.66473712959E+01  0.36820913846E+02  0.00000000000E+00 0.  1.
         11    1    4    4    0    0 -0.94927927357E+01 -0.49089252645E+00 -0.12051331783E+02  0.15348898573E+02  0.51100000000E-03 0.  1.
        -11    1    4    4    0    0 -0.70571130537E+01  0.82559763095E+01  0.28339151392E+01  0.11224752325E+02  0.51100000000E-03 0. -1.
         12    1    4    4    0    0 -0.31930715336E+01  0.22596190856E+02  0.15864787939E+02  0.27793435257E+02  0.00000000000E+00 0. -1.
</event>
<event>
 8    1  0.2504019E-006  0.9118800E+02  0.7816164E-02  0.1184000E+00
        -11   -1    0    0    0    0  0.00000000000E+00  0.00000000000E+00  0.45593999997E+02  0.45594000000E+02  0.51100000000E-03 0.  1.
         11   -1    0    0    0    0 -0.00000000000E+00 -0.00000000000E+00 -0.45593999997E+02  0.45594000000E+02  0.51100000000E-03 0. -1.
         23    2    1    2    0    0 -0.17763568394E-14  0.00000000000E+00  0.00000000000E+00  0.91188000000E+02  0.91188000000E+02 0.  0.
    9900012    2    3    3    0    0  0.15197576093E+02  0.12068380383E+02 -0.31291837349E+02  0.54366929825E+02  0.39999648121E+02 0.  0.
        -12    1    3    3    0    0 -0.15197576093E+02 -0.12068380383E+02  0.31291837349E+02  0.36821070175E+02  0.00000000000E+00 0.  1.
         11    1    4    4    0    0  0.16522679989E+02  0.41523150287E+00 -0.24443908305E+02  0.29507219874E+02  0.51100000000E-03 0. -1.
        -11    1    4    4    0    0 -0.58882902115E+01  0.67961187380E+00 -0.10813145120E+02  0.12331177623E+02  0.51100000000E-03 0.  1.
         12    1    4    4    0    0  0.45631863150E+01  0.10973537006E+02  0.39652160763E+01  0.12528532328E+02  0.00000000000E+00 0. -1.
</event>
<event>
 8    1  0.2504019E-006  0.9118800E+02  0.7816164E-02  0.1184000E+00
        -11   -1    0    0    0    0  0.00000000000E+00  0.00000000000E+00  0.45593999997E+02  0.45594000000E+02  0.51100000000E-03 0.  1.
         11   -1    0    0    0    0 -0.00000000000E+00 -0.00000000000E+00 -0.45593999997E+02  0.45594000000E+02  0.51100000000E-03 0. -1.
         23    2    1    2    0    0  0.44408920985E-15  0.71054273576E-14  0.00000000000E+00  0.91188000000E+02  0.91188000000E+02 0.  0.
    9900012    2    3    3    0    0  0.15605983614E+01  0.32238618167E+02 -0.17720481522E+02  0.54367089719E+02  0.40000012632E+02 0.  0.
        -12    1    3    3    0    0 -0.15605983614E+01 -0.32238618167E+02  0.17720481522E+02  0.36820910281E+02  0.00000000000E+00 0.  1.
         11    1    4    4    0    0  0.28715621315E+01  0.13150523668E+02 -0.16221979859E+02  0.21079249812E+02  0.51100000000E-03 0. -1.
        -11    1    4    4    0    0 -0.75972527204E+01 -0.26054528599E+01  0.53925382923E+01  0.96739910584E+01  0.51100000000E-03 0.  1.
         12    1    4    4    0    0  0.62862889503E+01  0.21693547359E+02 -0.68910399555E+01  0.23613848848E+02  0.00000000000E+00 0. -1.
</event>
<event>
 8    1  0.2504019E-006  0.9118800E+02  0.7816164E-02  0.1184000E+00
        -11   -1    0    0    0    0  0.00000000000E+00  0.00000000000E+00  0.45593999997E+02  0.45594000000E+02  0.51100000000E-03 0. -1.
         11   -1    0    0    0    0 -0.00000000000E+00 -0.00000000000E+00 -0.45593999997E+02  0.45594000000E+02  0.51100000000E-03 0.  1.
         23    2    1    2    0    0 -0.35527136788E-14 -0.35527136788E-14  0.00000000000E+00  0.91188000000E+02  0.91188000000E+02 0.  0.
    9900012    2    3    3    0    0 -0.24264170462E+02 -0.27181794331E+02  0.53085038297E+01  0.54367080346E+02  0.39999991264E+02 0.  0.
        -12    1    3    3    0    0  0.24264170462E+02  0.27181794331E+02 -0.53085038297E+01  0.36820919654E+02  0.00000000000E+00 0.  1.
         11    1    4    4    0    0  0.22050099158E+01 -0.10194332659E+02  0.90481242398E+01  0.13807789092E+02  0.51100000000E-03 0. -1.
        -11    1    4    4    0    0 -0.22869428736E+02 -0.15654368074E+00  0.33326230998E+00  0.22872392544E+02  0.51100000000E-03 0.  1.
        -12    1    4    4    0    0 -0.35997516411E+01 -0.16830917992E+02 -0.40728827200E+01  0.17686898710E+02  0.00000000000E+00 0.  1.
</event>
<event>
 8    1  0.2504019E-006  0.9118800E+02  0.7816164E-02  0.1184000E+00
        -11   -1    0    0    0    0  0.00000000000E+00  0.00000000000E+00  0.45593999997E+02  0.45594000000E+02  0.51100000000E-03 0. -1.
         11   -1    0    0    0    0 -0.00000000000E+00 -0.00000000000E+00 -0.45593999997E+02  0.45594000000E+02  0.51100000000E-03 0.  1.
         23    2    1    2    0    0 -0.17763568394E-14  0.71054273576E-14 -0.88817841970E-15  0.91188000000E+02  0.91188000000E+02 0.  0.
    9900012    2    3    3    0    0 -0.10770663859E+02  0.34953077551E+02 -0.42493279310E+01  0.54367060060E+02  0.39999945018E+02 0.  0.
        -12    1    3    3    0    0  0.10770663859E+02 -0.34953077551E+02  0.42493279310E+01  0.36820939940E+02  0.00000000000E+00 0.  1.
         11    1    4    4    0    0 -0.34797806764E+01 -0.21825682279E+01  0.59265335211E+01  0.72108444348E+01  0.51100000000E-03 0. -1.
        -11    1    4    4    0    0  0.89614928407E+00 -0.34304747161E+01 -0.39476522245E+01  0.53061472524E+01  0.51100000000E-03 0.  1.
         12    1    4    4    0    0 -0.81870324671E+01  0.40566120495E+02 -0.62282092275E+01  0.41850068372E+02  0.00000000000E+00 0. -1.
</event>
<event>
 8    1  0.2504019E-006  0.9118800E+02  0.7816164E-02  0.1184000E+00
        -11   -1    0    0    0    0  0.00000000000E+00  0.00000000000E+00  0.45593999997E+02  0.45594000000E+02  0.51100000000E-03 0. -1.
         11   -1    0    0    0    0 -0.00000000000E+00 -0.00000000000E+00 -0.45593999997E+02  0.45594000000E+02  0.51100000000E-03 0.  1.
         23    2    1    2    0    0  0.17763568394E-14  0.35527136788E-14  0.00000000000E+00  0.91188000000E+02  0.91188000000E+02 0.  0.
    9900012    2    3    3    0    0  0.97068323001E+01  0.31733314735E+02 -0.15954743765E+02  0.54367086025E+02  0.40000004211E+02 0.  0.
         12    1    3    3    0    0 -0.97068323001E+01 -0.31733314735E+02  0.15954743765E+02  0.36820913975E+02  0.00000000000E+00 0. -1.
         11    1    4    4    0    0 -0.65546266681E+01  0.94109647279E+01 -0.77061036460E+01  0.13817142307E+02  0.51100000000E-03 0. -1.
        -11    1    4    4    0    0  0.12616834866E+02  0.83797011586E+01  0.93531204219E+01  0.17801257692E+02  0.51100000000E-03 0.  1.
        -12    1    4    4    0    0  0.36446241025E+01  0.13942648849E+02 -0.17601760541E+02  0.22748686026E+02  0.00000000000E+00 0.  1.
</event>
<event>
 8    1  0.2504019E-006  0.9118800E+02  0.7816164E-02  0.1184000E+00
        -11   -1    0    0    0    0  0.00000000000E+00  0.00000000000E+00  0.45593999997E+02  0.45594000000E+02  0.51100000000E-03 0. -1.
         11   -1    0    0    0    0 -0.00000000000E+00 -0.00000000000E+00 -0.45593999997E+02  0.45594000000E+02  0.51100000000E-03 0.  1.
         23    2    1    2    0    0  0.00000000000E+00  0.00000000000E+00  0.00000000000E+00  0.91188000000E+02  0.91188000000E+02 0.  0.
    9900012    2    3    3    0    0  0.19453388270E+02  0.35123734413E+01 -0.31064590838E+02  0.54367083576E+02  0.39999998628E+02 0.  0.
        -12    1    3    3    0    0 -0.19453388270E+02 -0.35123734413E+01  0.31064590838E+02  0.36820916424E+02  0.00000000000E+00 0.  1.
         11    1    4    4    0    0  0.12933415632E+02  0.78658019198E+01 -0.14088142570E+02  0.20678970987E+02  0.51100000000E-03 0. -1.
        -11    1    4    4    0    0 -0.10245912123E+02 -0.62185994639E+01 -0.92178816873E+01  0.15120153358E+02  0.51100000000E-03 0.  1.
         12    1    4    4    0    0  0.16765884760E+02  0.18651709854E+01 -0.77585665814E+01  0.18567959230E+02  0.00000000000E+00 0. -1.
</event>
<event>
 8    1  0.2504019E-006  0.9118800E+02  0.7816164E-02  0.1184000E+00
        -11   -1    0    0    0    0  0.00000000000E+00  0.00000000000E+00  0.45593999997E+02  0.45594000000E+02  0.51100000000E-03 0.  1.
         11   -1    0    0    0    0 -0.00000000000E+00 -0.00000000000E+00 -0.45593999997E+02  0.45594000000E+02  0.51100000000E-03 0. -1.
         23    2    1    2    0    0 -0.35527136788E-14 -0.35527136788E-14  0.00000000000E+00  0.91188000000E+02  0.91188000000E+02 0.  0.
    9900012    2    3    3    0    0 -0.28445664387E+02 -0.23146223255E+02 -0.32978402652E+01  0.54367092573E+02  0.40000019138E+02 0.  0.
        -12    1    3    3    0    0  0.28445664387E+02  0.23146223255E+02  0.32978402652E+01  0.36820907427E+02  0.00000000000E+00 0.  1.
         11    1    4    4    0    0 -0.92488879211E+01 -0.18141143519E+02 -0.24834743956E+00  0.20364299464E+02  0.51100000000E-03 0. -1.
        -11    1    4    4    0    0 -0.37194392213E+01 -0.97844875302E+01 -0.11650707850E+02  0.15662356720E+02  0.51100000000E-03 0.  1.
        -12    1    4    4    0    0 -0.15477337244E+02  0.47794077941E+01  0.86012150245E+01  0.18340436389E+02  0.00000000000E+00 0.  1.
</event>
<event>
 8    1  0.2504019E-006  0.9118800E+02  0.7816164E-02  0.1184000E+00
        -11   -1    0    0    0    0  0.00000000000E+00  0.00000000000E+00  0.45593999997E+02  0.45594000000E+02  0.51100000000E-03 0.  1.
         11   -1    0    0    0    0 -0.00000000000E+00 -0.00000000000E+00 -0.45593999997E+02  0.45594000000E+02  0.51100000000E-03 0. -1.
         23    2    1    2    0    0  0.00000000000E+00 -0.17763568394E-14  0.00000000000E+00  0.91188000000E+02  0.91188000000E+02 0.  0.
    9900012    2    3    3    0    0  0.21789570885E+02  0.78051547273E+01  0.28636979216E+02  0.54367049193E+02  0.39999920246E+02 0.  0.
         12    1    3    3    0    0 -0.21789570885E+02 -0.78051547273E+01 -0.28636979216E+02  0.36820950807E+02  0.00000000000E+00 0. -1.
         11    1    4    4    0    0  0.25486041479E+02  0.13584965249E+02  0.96933368567E+01  0.30463919163E+02  0.51100000000E-03 0. -1.
        -11    1    4    4    0    0  0.22245442525E+01 -0.23111549721E+01  0.16197080425E+02  0.16511676141E+02  0.51100000000E-03 0.  1.
         12    1    4    4    0    0 -0.59210148466E+01 -0.34686555492E+01  0.27465619343E+01  0.73914538889E+01  0.00000000000E+00 0. -1.
</event>
<event>
 8    1  0.2504019E-006  0.9118800E+02  0.7816164E-02  0.1184000E+00
        -11   -1    0    0    0    0  0.00000000000E+00  0.00000000000E+00  0.45593999997E+02  0.45594000000E+02  0.51100000000E-03 0.  1.
         11   -1    0    0    0    0 -0.00000000000E+00 -0.00000000000E+00 -0.45593999997E+02  0.45594000000E+02  0.51100000000E-03 0. -1.
         23    2    1    2    0    0  0.35527136788E-14  0.35527136788E-14  0.13322676296E-14  0.91188000000E+02  0.91188000000E+02 0.  0.
    9900012    2    3    3    0    0  0.23266557385E+02  0.28337365534E+02  0.33824853893E+01  0.54367079515E+02  0.39999989370E+02 0.  0.
        -12    1    3    3    0    0 -0.23266557385E+02 -0.28337365534E+02 -0.33824853893E+01  0.36820920485E+02  0.00000000000E+00 0.  1.
         11    1    4    4    0    0 -0.74670054121E+01  0.54718695143E+01 -0.16319982407E+01  0.94000502299E+01  0.51100000000E-03 0.  1.
        -11    1    4    4    0    0  0.35055353121E+01  0.19274908690E+01 -0.74266379300E+01  0.84355764521E+01  0.51100000000E-03 0. -1.
         12    1    4    4    0    0  0.27228027485E+02  0.20938005151E+02  0.12441121560E+02  0.36531452833E+02  0.00000000000E+00 0. -1.
</event>
<event>
 8    1  0.2504019E-006  0.9118800E+02  0.7816164E-02  0.1184000E+00
        -11   -1    0    0    0    0  0.00000000000E+00  0.00000000000E+00  0.45593999997E+02  0.45594000000E+02  0.51100000000E-03 0.  1.
         11   -1    0    0    0    0 -0.00000000000E+00 -0.00000000000E+00 -0.45593999997E+02  0.45594000000E+02  0.51100000000E-03 0. -1.
         23    2    1    2    0    0 -0.71054273576E-14 -0.69388939039E-15  0.00000000000E+00  0.91188000000E+02  0.91188000000E+02 0.  0.
    9900012    2    3    3    0    0 -0.30157332901E+02  0.22601101180E+00  0.21124926764E+02  0.54367104581E+02  0.40000046514E+02 0.  0.
        -12    1    3    3    0    0  0.30157332901E+02 -0.22601101180E+00 -0.21124926764E+02  0.36820895419E+02  0.00000000000E+00 0.  1.
         11    1    4    4    0    0 -0.40181123906E+01 -0.14671104479E+02  0.74195266198E+01  0.16924417548E+02  0.51100000000E-03 0. -1.
        -11    1    4    4    0    0  0.24734092399E+01  0.25865426149E+01  0.23854122272E+01  0.43009473051E+01  0.51100000000E-03 0.  1.
        -12    1    4    4    0    0 -0.28612629750E+02  0.12310572876E+02  0.11319987917E+02  0.33141739728E+02  0.00000000000E+00 0.  1.
</event>
<event>
 8    1  0.2504019E-006  0.9118800E+02  0.7816164E-02  0.1184000E+00
        -11   -1    0    0    0    0  0.00000000000E+00  0.00000000000E+00  0.45593999997E+02  0.45594000000E+02  0.51100000000E-03 0. -1.
         11   -1    0    0    0    0 -0.00000000000E+00 -0.00000000000E+00 -0.45593999997E+02  0.45594000000E+02  0.51100000000E-03 0.  1.
         23    2    1    2    0    0  0.00000000000E+00  0.88817841970E-15  0.71054273576E-14  0.91188000000E+02  0.91188000000E+02 0.  0.
    9900012    2    3    3    0    0 -0.44208535562E+01  0.75133624343E+01 -0.35774094926E+02  0.54367076206E+02  0.39999981827E+02 0.  0.
         12    1    3    3    0    0  0.44208535562E+01 -0.75133624343E+01  0.35774094926E+02  0.36820923794E+02  0.00000000000E+00 0. -1.
         11    1    4    4    0    0  0.50077328052E+01 -0.14981805675E+01  0.57112766091E+01  0.77421323696E+01  0.51100000000E-03 0. -1.
        -11    1    4    4    0    0 -0.82087900798E+01  0.13777936411E+02 -0.34862151061E+02  0.38374279709E+02  0.51100000000E-03 0.  1.
        -12    1    4    4    0    0 -0.12197962816E+01 -0.47663934090E+01 -0.66232204744E+01  0.82506641279E+01  0.00000000000E+00 0.  1.
</event>
<event>
 8    1  0.2504019E-006  0.9118800E+02  0.7816164E-02  0.1184000E+00
        -11   -1    0    0    0    0  0.00000000000E+00  0.00000000000E+00  0.45593999997E+02  0.45594000000E+02  0.51100000000E-03 0. -1.
         11   -1    0    0    0    0 -0.00000000000E+00 -0.00000000000E+00 -0.45593999997E+02  0.45594000000E+02  0.51100000000E-03 0.  1.
         23    2    1    2    0    0  0.00000000000E+00 -0.44408920985E-15 -0.35527136788E-14  0.91188000000E+02  0.91188000000E+02 0.  0.
    9900012    2    3    3    0    0  0.18919976803E+02  0.87747554695E+00 -0.31575926025E+02  0.54367155497E+02  0.40000162586E+02 0.  0.
         12    1    3    3    0    0 -0.18919976803E+02 -0.87747554695E+00  0.31575926025E+02  0.36820844503E+02  0.00000000000E+00 0. -1.
         11    1    4    4    0    0  0.13145482053E+02 -0.51343182687E+01  0.62850189306E+01  0.15448831208E+02  0.51100000000E-03 0. -1.
        -11    1    4    4    0    0  0.23789732818E+00  0.23726818338E+01 -0.99066369171E+01  0.10189586326E+02  0.51100000000E-03 0.  1.
         12    1    4    4    0    0  0.55365974221E+01  0.36391119819E+01 -0.27954308038E+02  0.28728737963E+02  0.00000000000E+00 0. -1.
</event>
<event>
 8    1  0.2504019E-006  0.9118800E+02  0.7816164E-02  0.1184000E+00
        -11   -1    0    0    0    0  0.00000000000E+00  0.00000000000E+00  0.45593999997E+02  0.45594000000E+02  0.51100000000E-03 0.  1.
         11   -1    0    0    0    0 -0.00000000000E+00 -0.00000000000E+00 -0.45593999997E+02  0.45594000000E+02  0.51100000000E-03 0. -1.
         23    2    1    2    0    0  0.00000000000E+00  0.00000000000E+00  0.00000000000E+00  0.91188000000E+02  0.91188000000E+02 0.  0.
    9900012    2    3    3    0    0  0.21293453853E+02 -0.22018341265E+02 -0.20434335156E+02  0.54367074124E+02  0.39999977081E+02 0.  0.
        -12    1    3    3    0    0 -0.21293453853E+02  0.22018341265E+02  0.20434335156E+02  0.36820925876E+02  0.00000000000E+00 0.  1.
         11    1    4    4    0    0  0.22755587912E+02 -0.78046490617E+01 -0.10476830656E+01  0.24079596514E+02  0.51100000000E-03 0. -1.
        -11    1    4    4    0    0  0.13111505841E+01 -0.13142891378E+02 -0.28841674144E+01  0.13519361359E+02  0.51100000000E-03 0.  1.
        -12    1    4    4    0    0 -0.27732846430E+01 -0.10708008256E+01 -0.16502484676E+02  0.16768116251E+02  0.00000000000E+00 0.  1.
</event>
<event>
 8    1  0.2504019E-006  0.9118800E+02  0.7816164E-02  0.1184000E+00
        -11   -1    0    0    0    0  0.00000000000E+00  0.00000000000E+00  0.45593999997E+02  0.45594000000E+02  0.51100000000E-03 0.  1.
         11   -1    0    0    0    0 -0.00000000000E+00 -0.00000000000E+00 -0.45593999997E+02  0.45594000000E+02  0.51100000000E-03 0. -1.
         23    2    1    2    0    0 -0.35527136788E-14 -0.17763568394E-14 -0.35527136788E-14  0.91188000000E+02  0.91188000000E+02 0.  0.
    9900012    2    3    3    0    0 -0.18388512536E+02 -0.87582015935E+01  0.30674687110E+02  0.54367083149E+02  0.39999997656E+02 0.  0.
         12    1    3    3    0    0  0.18388512536E+02  0.87582015935E+01 -0.30674687110E+02  0.36820916851E+02  0.00000000000E+00 0. -1.
         11    1    4    4    0    0 -0.18221827082E+02 -0.97450253894E+01  0.84329804414E+01  0.22318504910E+02  0.51100000000E-03 0. -1.
        -11    1    4    4    0    0  0.65503196352E+01 -0.76222047110E+01  0.17421647478E+02  0.20112645104E+02  0.51100000000E-03 0.  1.
         12    1    4    4    0    0 -0.67170050899E+01  0.86090285069E+01  0.48200591903E+01  0.11935933135E+02  0.00000000000E+00 0. -1.
</event>
<event>
 8    1  0.2504019E-006  0.9118800E+02  0.7816164E-02  0.1184000E+00
        -11   -1    0    0    0    0  0.00000000000E+00  0.00000000000E+00  0.45593999997E+02  0.45594000000E+02  0.51100000000E-03 0. -1.
         11   -1    0    0    0    0 -0.00000000000E+00 -0.00000000000E+00 -0.45593999997E+02  0.45594000000E+02  0.51100000000E-03 0.  1.
         23    2    1    2    0    0  0.00000000000E+00  0.00000000000E+00 -0.35527136788E-14  0.91188000000E+02  0.91188000000E+02 0.  0.
    9900012    2    3    3    0    0 -0.47750163643E+01 -0.25833057274E+02  0.25799846365E+02  0.54367086081E+02  0.40000004338E+02 0.  0.
        -12    1    3    3    0    0  0.47750163643E+01  0.25833057274E+02 -0.25799846365E+02  0.36820913919E+02  0.00000000000E+00 0.  1.
         11    1    4    4    0    0  0.19834118669E+01 -0.17384710452E+02  0.22136488281E+02  0.28216771499E+02  0.51100000000E-03 0. -1.
        -11    1    4    4    0    0  0.26338266321E+01 -0.61043051619E+01 -0.83811617043E+01  0.10697824826E+02  0.51100000000E-03 0.  1.
        -12    1    4    4    0    0 -0.93922548633E+01 -0.23440416601E+01  0.12044519788E+02  0.15452489755E+02  0.00000000000E+00 0.  1.
</event>
<event>
 8    1  0.2504019E-006  0.9118800E+02  0.7816164E-02  0.1184000E+00
        -11   -1    0    0    0    0  0.00000000000E+00  0.00000000000E+00  0.45593999997E+02  0.45594000000E+02  0.51100000000E-03 0. -1.
         11   -1    0    0    0    0 -0.00000000000E+00 -0.00000000000E+00 -0.45593999997E+02  0.45594000000E+02  0.51100000000E-03 0.  1.
         23    2    1    2    0    0  0.17763568394E-14  0.17763568394E-14  0.00000000000E+00  0.91188000000E+02  0.91188000000E+02 0.  0.
    9900012    2    3    3    0    0  0.92684496565E+01 -0.91189709728E+01  0.34448791775E+02  0.54367094995E+02  0.40000024660E+02 0.  0.
         12    1    3    3    0    0 -0.92684496565E+01  0.91189709728E+01 -0.34448791775E+02  0.36820905005E+02  0.00000000000E+00 0. -1.
         11    1    4    4    0    0  0.59785807103E+01  0.91629571099E+01  0.18042807906E+02  0.21100856089E+02  0.51100000000E-03 0. -1.
        -11    1    4    4    0    0 -0.51216206556E+01 -0.32980598874E+01 -0.34552669737E+01  0.70033611417E+01  0.51100000000E-03 0.  1.
        -12    1    4    4    0    0  0.84114896018E+01 -0.14983868195E+02  0.19861250843E+02  0.26262877764E+02  0.00000000000E+00 0.  1.
</event>
<event>
 8    1  0.2504019E-006  0.9118800E+02  0.7816164E-02  0.1184000E+00
        -11   -1    0    0    0    0  0.00000000000E+00  0.00000000000E+00  0.45593999997E+02  0.45594000000E+02  0.51100000000E-03 0. -1.
         11   -1    0    0    0    0 -0.00000000000E+00 -0.00000000000E+00 -0.45593999997E+02  0.45594000000E+02  0.51100000000E-03 0.  1.
         23    2    1    2    0    0  0.33306690739E-15  0.00000000000E+00  0.35527136788E-14  0.91188000000E+02  0.91188000000E+02 0.  0.
    9900012    2    3    3    0    0 -0.91277279907E+00 -0.30296227717E+02  0.20906443399E+02  0.54367164272E+02  0.40000182591E+02 0.  0.
         12    1    3    3    0    0  0.91277279907E+00  0.30296227717E+02 -0.20906443399E+02  0.36820835728E+02  0.00000000000E+00 0. -1.
         11    1    4    4    0    0 -0.15208871880E+01 -0.19964754447E+01  0.16993021207E+02  0.17177362488E+02  0.51100000000E-03 0. -1.
        -11    1    4    4    0    0 -0.32544124371E+01 -0.26625442969E+02  0.10964166662E+02  0.28977894410E+02  0.51100000000E-03 0.  1.
        -12    1    4    4    0    0  0.38625268261E+01 -0.16743093042E+01 -0.70507444708E+01  0.82119073741E+01  0.00000000000E+00 0.  1.
</event>
<event>
 8    1  0.2504019E-006  0.9118800E+02  0.7816164E-02  0.1184000E+00
        -11   -1    0    0    0    0  0.00000000000E+00  0.00000000000E+00  0.45593999997E+02  0.45594000000E+02  0.51100000000E-03 0. -1.
         11   -1    0    0    0    0 -0.00000000000E+00 -0.00000000000E+00 -0.45593999997E+02  0.45594000000E+02  0.51100000000E-03 0.  1.
         23    2    1    2    0    0  0.00000000000E+00  0.44408920985E-15  0.00000000000E+00  0.91188000000E+02  0.91188000000E+02 0.  0.
    9900012    2    3    3    0    0  0.14490709113E+02  0.20546355387E+01  0.33787278064E+02  0.54367050301E+02  0.39999922770E+02 0.  0.
        -12    1    3    3    0    0 -0.14490709113E+02 -0.20546355387E+01 -0.33787278064E+02  0.36820949699E+02  0.00000000000E+00 0.  1.
         11    1    4    4    0    0  0.14447024269E+02  0.34017946772E+01  0.35804402845E+02  0.38758792301E+02  0.51100000000E-03 0. -1.
        -11    1    4    4    0    0  0.14385766015E+01 -0.51295203264E+01  0.51343014800E+01  0.73988197279E+01  0.51100000000E-03 0.  1.
         12    1    4    4    0    0 -0.13948917575E+01  0.37823611879E+01 -0.71514262613E+01  0.82094382720E+01  0.00000000000E+00 0. -1.
</event>
<event>
 8    1  0.2504019E-006  0.9118800E+02  0.7816164E-02  0.1184000E+00
        -11   -1    0    0    0    0  0.00000000000E+00  0.00000000000E+00  0.45593999997E+02  0.45594000000E+02  0.51100000000E-03 0.  1.
         11   -1    0    0    0    0 -0.00000000000E+00 -0.00000000000E+00 -0.45593999997E+02  0.45594000000E+02  0.51100000000E-03 0. -1.
         23    2    1    2    0    0  0.88817841970E-15  0.00000000000E+00  0.00000000000E+00  0.91188000000E+02  0.91188000000E+02 0.  0.
    9900012    2    3    3    0    0 -0.28071793702E+01  0.24196425983E+01  0.36633940789E+02  0.54367074644E+02  0.39999978266E+02 0.  0.
         12    1    3    3    0    0  0.28071793702E+01 -0.24196425983E+01 -0.36633940789E+02  0.36820925356E+02  0.00000000000E+00 0. -1.
         11    1    4    4    0    0  0.66925658207E+01  0.71353635134E+01  0.13249991465E+02  0.16470158585E+02  0.51100000000E-03 0.  1.
        -11    1    4    4    0    0 -0.91080728098E+01 -0.15634570444E+02  0.10189138646E+02  0.20765724882E+02  0.51100000000E-03 0. -1.
         12    1    4    4    0    0 -0.39167238112E+00  0.10918849529E+02  0.13194810679E+02  0.17131191177E+02  0.00000000000E+00 0. -1.
</event>
<event>
 8    1  0.2504019E-006  0.9118800E+02  0.7816164E-02  0.1184000E+00
        -11   -1    0    0    0    0  0.00000000000E+00  0.00000000000E+00  0.45593999997E+02  0.45594000000E+02  0.51100000000E-03 0.  1.
         11   -1    0    0    0    0 -0.00000000000E+00 -0.00000000000E+00 -0.45593999997E+02  0.45594000000E+02  0.51100000000E-03 0. -1.
         23    2    1    2    0    0  0.00000000000E+00 -0.35527136788E-14  0.00000000000E+00  0.91188000000E+02  0.91188000000E+02 0.  0.
    9900012    2    3    3    0    0  0.17531049870E+02  0.31146187295E+02  0.88516585811E+01  0.54367156009E+02  0.40000163754E+02 0.  0.
         12    1    3    3    0    0 -0.17531049870E+02 -0.31146187295E+02 -0.88516585811E+01  0.36820843991E+02  0.00000000000E+00 0. -1.
         11    1    4    4    0    0  0.10213729245E+02  0.23315499225E+02 -0.64692502860E+00  0.25462743007E+02  0.51100000000E-03 0. -1.
        -11    1    4    4    0    0  0.93903782191E+01  0.13303362948E+01 -0.65093622726E+01  0.11503077641E+02  0.51100000000E-03 0.  1.
        -12    1    4    4    0    0 -0.20730575940E+01  0.65003517749E+01  0.16007945882E+02  0.17401335361E+02  0.00000000000E+00 0.  1.
</event>
<event>
 8    1  0.2504019E-006  0.9118800E+02  0.7816164E-02  0.1184000E+00
        -11   -1    0    0    0    0  0.00000000000E+00  0.00000000000E+00  0.45593999997E+02  0.45594000000E+02  0.51100000000E-03 0. -1.
         11   -1    0    0    0    0 -0.00000000000E+00 -0.00000000000E+00 -0.45593999997E+02  0.45594000000E+02  0.51100000000E-03 0.  1.
         23    2    1    2    0    0  0.00000000000E+00  0.00000000000E+00  0.35527136788E-14  0.91188000000E+02  0.91188000000E+02 0.  0.
    9900012    2    3    3    0    0 -0.14254544445E+02  0.27317949243E+02 -0.20157325269E+02  0.54367079993E+02  0.39999990460E+02 0.  0.
         12    1    3    3    0    0  0.14254544445E+02 -0.27317949243E+02  0.20157325269E+02  0.36820920007E+02  0.00000000000E+00 0. -1.
         11    1    4    4    0    0 -0.73017386214E+01  0.18415745932E+02 -0.16201886255E+02  0.25592112137E+02  0.51100000000E-03 0. -1.
        -11    1    4    4    0    0  0.37838509785E+01  0.54309240941E+01 -0.12818421564E+02  0.14426517126E+02  0.51100000000E-03 0.  1.
         12    1    4    4    0    0 -0.10736656802E+02  0.34712792165E+01  0.88629825501E+01  0.14348450730E+02  0.00000000000E+00 0. -1.
</event>
<event>
 8    1  0.2504019E-006  0.9118800E+02  0.7816164E-02  0.1184000E+00
        -11   -1    0    0    0    0  0.00000000000E+00  0.00000000000E+00  0.45593999997E+02  0.45594000000E+02  0.51100000000E-03 0.  1.
         11   -1    0    0    0    0 -0.00000000000E+00 -0.00000000000E+00 -0.45593999997E+02  0.45594000000E+02  0.51100000000E-03 0. -1.
         23    2    1    2    0    0  0.00000000000E+00 -0.35527136788E-14  0.00000000000E+00  0.91188000000E+02  0.91188000000E+02 0.  0.
    9900012    2    3    3    0    0  0.31110921114E+02  0.17290455839E+02 -0.94304462285E+01  0.54367046838E+02  0.39999914876E+02 0.  0.
        -12    1    3    3    0    0 -0.31110921114E+02 -0.17290455839E+02  0.94304462285E+01  0.36820953162E+02  0.00000000000E+00 0.  1.
         11    1    4    4    0    0  0.89832533442E+01  0.43239249712E+01 -0.99141368462E+01  0.14060059654E+02  0.51100000000E-03 0. -1.
        -11    1    4    4    0    0 -0.31352519861E+00 -0.84485757411E+01 -0.32624537903E+01  0.90620270965E+01  0.51100000000E-03 0.  1.
        -12    1    4    4    0    0  0.22441192969E+02  0.21415106609E+02  0.37461444080E+01  0.31244960087E+02  0.00000000000E+00 0.  1.
</event>
<event>
 8    1  0.2504019E-006  0.9118800E+02  0.7816164E-02  0.1184000E+00
        -11   -1    0    0    0    0  0.00000000000E+00  0.00000000000E+00  0.45593999997E+02  0.45594000000E+02  0.51100000000E-03 0. -1.
         11   -1    0    0    0    0 -0.00000000000E+00 -0.00000000000E+00 -0.45593999997E+02  0.45594000000E+02  0.51100000000E-03 0.  1.
         23    2    1    2    0    0  0.00000000000E+00  0.00000000000E+00 -0.17763568394E-14  0.91188000000E+02  0.91188000000E+02 0.  0.
    9900012    2    3    3    0    0 -0.43732444080E+01  0.34487013043E+02  0.12136753340E+02  0.54367080445E+02  0.39999991490E+02 0.  0.
         12    1    3    3    0    0  0.43732444080E+01 -0.34487013043E+02 -0.12136753340E+02  0.36820919555E+02  0.00000000000E+00 0. -1.
         11    1    4    4    0    0  0.13376358187E+01  0.29488791712E+02  0.11687258909E+02  0.31748545278E+02  0.51100000000E-03 0. -1.
        -11    1    4    4    0    0 -0.11233059450E+02 -0.30020947061E+01 -0.34745173368E+01  0.12135339641E+02  0.51100000000E-03 0.  1.
         12    1    4    4    0    0  0.55221792230E+01  0.80003160369E+01  0.39240117679E+01  0.10483195525E+02  0.00000000000E+00 0. -1.
</event>
<event>
 8    1  0.2504019E-006  0.9118800E+02  0.7816164E-02  0.1184000E+00
        -11   -1    0    0    0    0  0.00000000000E+00  0.00000000000E+00  0.45593999997E+02  0.45594000000E+02  0.51100000000E-03 0. -1.
         11   -1    0    0    0    0 -0.00000000000E+00 -0.00000000000E+00 -0.45593999997E+02  0.45594000000E+02  0.51100000000E-03 0.  1.
         23    2    1    2    0    0 -0.35527136788E-14  0.00000000000E+00 -0.44408920985E-15  0.91188000000E+02  0.91188000000E+02 0.  0.
    9900012    2    3    3    0    0 -0.25797395924E+02 -0.26189491809E+02  0.20939911019E+01  0.54367083167E+02  0.39999997695E+02 0.  0.
        -12    1    3    3    0    0  0.25797395924E+02  0.26189491809E+02 -0.20939911019E+01  0.36820916833E+02  0.00000000000E+00 0.  1.
         11    1    4    4    0    0 -0.24659659784E+02 -0.14973489794E+02  0.67470369237E+00  0.28857571668E+02  0.51100000000E-03 0. -1.
        -11    1    4    4    0    0  0.87505055452E+01 -0.11789848575E+02 -0.24316403905E+01  0.14882363790E+02  0.51100000000E-03 0.  1.
        -12    1    4    4    0    0 -0.98882416858E+01  0.57384655920E+00  0.38509278000E+01  0.10627147709E+02  0.00000000000E+00 0.  1.
</event>
<event>
 8    1  0.2504019E-006  0.9118800E+02  0.7816164E-02  0.1184000E+00
        -11   -1    0    0    0    0  0.00000000000E+00  0.00000000000E+00  0.45593999997E+02  0.45594000000E+02  0.51100000000E-03 0.  1.
         11   -1    0    0    0    0 -0.00000000000E+00 -0.00000000000E+00 -0.45593999997E+02  0.45594000000E+02  0.51100000000E-03 0. -1.
         23    2    1    2    0    0  0.00000000000E+00  0.35527136788E-14  0.00000000000E+00  0.91188000000E+02  0.91188000000E+02 0.  0.
    9900012    2    3    3    0    0  0.14886831735E+02  0.22988672835E+02  0.24610627843E+02  0.54367084196E+02  0.40000000041E+02 0.  0.
         12    1    3    3    0    0 -0.14886831735E+02 -0.22988672835E+02 -0.24610627843E+02  0.36820915804E+02  0.00000000000E+00 0. -1.
         11    1    4    4    0    0  0.50669947570E+01  0.78113881092E+01 -0.55888886136E+01  0.10859461140E+02  0.51100000000E-03 0. -1.
        -11    1    4    4    0    0  0.63425091759E+01 -0.39953013097E+01  0.20324605609E+02  0.21662858736E+02  0.51100000000E-03 0.  1.
        -12    1    4    4    0    0  0.34773278024E+01  0.19172586035E+02  0.98749108483E+01  0.21844764320E+02  0.00000000000E+00 0.  1.
</event>
<event>
 8    1  0.2504019E-006  0.9118800E+02  0.7816164E-02  0.1184000E+00
        -11   -1    0    0    0    0  0.00000000000E+00  0.00000000000E+00  0.45593999997E+02  0.45594000000E+02  0.51100000000E-03 0.  1.
         11   -1    0    0    0    0 -0.00000000000E+00 -0.00000000000E+00 -0.45593999997E+02  0.45594000000E+02  0.51100000000E-03 0. -1.
         23    2    1    2    0    0 -0.35527136788E-14  0.35527136788E-14 -0.17763568394E-14  0.91188000000E+02  0.91188000000E+02 0.  0.
    9900012    2    3    3    0    0 -0.30664911040E+02  0.17436420727E+02  0.10555293374E+02  0.54367085358E+02  0.40000002691E+02 0.  0.
        -12    1    3    3    0    0  0.30664911040E+02 -0.17436420727E+02 -0.10555293374E+02  0.36820914642E+02  0.00000000000E+00 0.  1.
         11    1    4    4    0    0 -0.11533816314E+02  0.85406875823E+01 -0.13764211100E+01  0.14417586430E+02  0.51100000000E-03 0. -1.
        -11    1    4    4    0    0 -0.80381336341E+01 -0.76608101943E+01 -0.64466793935E+01  0.12839753916E+02  0.51100000000E-03 0.  1.
         12    1    4    4    0    0 -0.11092961092E+02  0.16556543339E+02  0.18378393877E+02  0.27109745012E+02  0.00000000000E+00 0. -1.
</event>
<event>
 8    1  0.2504019E-006  0.9118800E+02  0.7816164E-02  0.1184000E+00
        -11   -1    0    0    0    0  0.00000000000E+00  0.00000000000E+00  0.45593999997E+02  0.45594000000E+02  0.51100000000E-03 0.  1.
         11   -1    0    0    0    0 -0.00000000000E+00 -0.00000000000E+00 -0.45593999997E+02  0.45594000000E+02  0.51100000000E-03 0. -1.
         23    2    1    2    0    0 -0.35527136788E-14  0.35527136788E-14  0.00000000000E+00  0.91188000000E+02  0.91188000000E+02 0.  0.
    9900012    2    3    3    0    0  0.30001604506E+02 -0.20674162562E+02  0.53163944557E+01  0.54367064100E+02  0.39999954228E+02 0.  0.
        -12    1    3    3    0    0 -0.30001604506E+02  0.20674162562E+02 -0.53163944557E+01  0.36820935900E+02  0.00000000000E+00 0.  1.
         11    1    4    4    0    0  0.46528034080E+01 -0.21620078441E+02  0.82737960749E+01  0.23612117082E+02  0.51100000000E-03 0. -1.
        -11    1    4    4    0    0 -0.12723886856E+01  0.11887601299E+01  0.30050741165E+01  0.34731245760E+01  0.51100000000E-03 0.  1.
         12    1    4    4    0    0  0.26621189783E+02 -0.24284425117E+00 -0.59624757357E+01  0.27281822441E+02  0.00000000000E+00 0. -1.
</event>
<event>
 8    1  0.2504019E-006  0.9118800E+02  0.7816164E-02  0.1184000E+00
        -11   -1    0    0    0    0  0.00000000000E+00  0.00000000000E+00  0.45593999997E+02  0.45594000000E+02  0.51100000000E-03 0. -1.
         11   -1    0    0    0    0 -0.00000000000E+00 -0.00000000000E+00 -0.45593999997E+02  0.45594000000E+02  0.51100000000E-03 0.  1.
         23    2    1    2    0    0  0.00000000000E+00  0.00000000000E+00  0.00000000000E+00  0.91188000000E+02  0.91188000000E+02 0.  0.
    9900012    2    3    3    0    0 -0.15730318015E+02  0.41705250289E+01  0.33029472053E+02  0.54367052050E+02  0.39999926757E+02 0.  0.
        -12    1    3    3    0    0  0.15730318015E+02 -0.41705250289E+01 -0.33029472053E+02  0.36820947950E+02  0.00000000000E+00 0.  1.
         11    1    4    4    0    0  0.68201824160E+01  0.31539052380E+01  0.29097089021E+00  0.75197520410E+01  0.51100000000E-03 0.  1.
        -11    1    4    4    0    0  0.18956739272E+00  0.77114854754E+01  0.16200941818E+02  0.17943618924E+02  0.51100000000E-03 0. -1.
         12    1    4    4    0    0 -0.22740067824E+02 -0.66948656845E+01  0.16537559345E+02  0.28903681085E+02  0.00000000000E+00 0. -1.
</event>
<event>
 8    1  0.2504019E-006  0.9118800E+02  0.7816164E-02  0.1184000E+00
        -11   -1    0    0    0    0  0.00000000000E+00  0.00000000000E+00  0.45593999997E+02  0.45594000000E+02  0.51100000000E-03 0. -1.
         11   -1    0    0    0    0 -0.00000000000E+00 -0.00000000000E+00 -0.45593999997E+02  0.45594000000E+02  0.51100000000E-03 0.  1.
         23    2    1    2    0    0 -0.35527136788E-14  0.00000000000E+00  0.35527136788E-14  0.91188000000E+02  0.91188000000E+02 0.  0.
    9900012    2    3    3    0    0  0.24811099960E+02  0.29748781384E+01 -0.27043309568E+02  0.54367066096E+02  0.39999958778E+02 0.  0.
         12    1    3    3    0    0 -0.24811099960E+02 -0.29748781384E+01  0.27043309568E+02  0.36820933904E+02  0.00000000000E+00 0. -1.
         11    1    4    4    0    0  0.33707339405E+01  0.52655392139E+01  0.52124786570E+01  0.81398823408E+01  0.51100000000E-03 0. -1.
        -11    1    4    4    0    0  0.18041595725E+02 -0.11324894725E+02 -0.13745468744E+02  0.25351337797E+02  0.51100000000E-03 0.  1.
        -12    1    4    4    0    0  0.33987702950E+01  0.90342336498E+01 -0.18510319481E+02  0.20875845958E+02  0.00000000000E+00 0.  1.
</event>
<event>
 8    1  0.2504019E-006  0.9118800E+02  0.7816164E-02  0.1184000E+00
        -11   -1    0    0    0    0  0.00000000000E+00  0.00000000000E+00  0.45593999997E+02  0.45594000000E+02  0.51100000000E-03 0.  1.
         11   -1    0    0    0    0 -0.00000000000E+00 -0.00000000000E+00 -0.45593999997E+02  0.45594000000E+02  0.51100000000E-03 0. -1.
         23    2    1    2    0    0 -0.88817841970E-15  0.71054273576E-14  0.17763568394E-14  0.91188000000E+02  0.91188000000E+02 0.  0.
    9900012    2    3    3    0    0  0.26814432678E+01 -0.35161594228E+02 -0.10594419713E+02  0.54367223587E+02  0.40000317810E+02 0.  0.
        -12    1    3    3    0    0 -0.26814432678E+01  0.35161594228E+02  0.10594419713E+02  0.36820776413E+02  0.00000000000E+00 0.  1.
         11    1    4    4    0    0 -0.67674108528E+01 -0.17424384253E+02 -0.27170421827E+01  0.18888868011E+02  0.51100000000E-03 0. -1.
        -11    1    4    4    0    0 -0.34538471986E+01 -0.19292220054E+02  0.11847848835E+01  0.19634727667E+02  0.51100000000E-03 0.  1.
         12    1    4    4    0    0  0.12902701319E+02  0.15550100802E+01 -0.90621624136E+01  0.15843627908E+02  0.00000000000E+00 0. -1.
</event>
<event>
 8    1  0.2504019E-006  0.9118800E+02  0.7816164E-02  0.1184000E+00
        -11   -1    0    0    0    0  0.00000000000E+00  0.00000000000E+00  0.45593999997E+02  0.45594000000E+02  0.51100000000E-03 0. -1.
         11   -1    0    0    0    0 -0.00000000000E+00 -0.00000000000E+00 -0.45593999997E+02  0.45594000000E+02  0.51100000000E-03 0.  1.
         23    2    1    2    0    0 -0.55511151231E-15  0.00000000000E+00  0.71054273576E-14  0.91188000000E+02  0.91188000000E+02 0.  0.
    9900012    2    3    3    0    0 -0.76719556580E+00 -0.48378180044E+01  0.36493636943E+02  0.54367100915E+02  0.40000038156E+02 0.  0.
        -12    1    3    3    0    0  0.76719556580E+00  0.48378180044E+01 -0.36493636943E+02  0.36820899085E+02  0.00000000000E+00 0.  1.
         11    1    4    4    0    0  0.99904376051E+01 -0.33088468438E+01  0.95062804235E+01  0.14181913789E+02  0.51100000000E-03 0. -1.
        -11    1    4    4    0    0 -0.10022679550E+02  0.51395368526E+01 -0.10911280467E+01  0.11316337972E+02  0.51100000000E-03 0.  1.
        -12    1    4    4    0    0 -0.73495362121E+00 -0.66685080132E+01  0.28078484566E+02  0.28868849154E+02  0.00000000000E+00 0.  1.
</event>
<event>
 8    1  0.2504019E-006  0.9118800E+02  0.7816164E-02  0.1184000E+00
        -11   -1    0    0    0    0  0.00000000000E+00  0.00000000000E+00  0.45593999997E+02  0.45594000000E+02  0.51100000000E-03 0.  1.
         11   -1    0    0    0    0 -0.00000000000E+00 -0.00000000000E+00 -0.45593999997E+02  0.45594000000E+02  0.51100000000E-03 0. -1.
         23    2    1    2    0    0  0.17763568394E-14  0.71054273576E-14  0.00000000000E+00  0.91188000000E+02  0.91188000000E+02 0.  0.
    9900012    2    3    3    0    0  0.96248382744E+01 -0.35516272935E+02 -0.13183683694E+01  0.54367065056E+02  0.39999956407E+02 0.  0.
         12    1    3    3    0    0 -0.96248382744E+01  0.35516272935E+02  0.13183683694E+01  0.36820934944E+02  0.00000000000E+00 0. -1.
         11    1    4    4    0    0 -0.57814080170E+01 -0.39351152875E+01 -0.19731840752E+01  0.72665856246E+01  0.51100000000E-03 0.  1.
        -11    1    4    4    0    0 -0.42925317617E+01 -0.26353921821E+02  0.94403996710E+00  0.26717901040E+02  0.51100000000E-03 0. -1.
         12    1    4    4    0    0  0.19698778053E+02 -0.52272358266E+01 -0.28922426126E+00  0.20382578391E+02  0.00000000000E+00 0. -1.
</event>
<event>
 8    1  0.2504019E-006  0.9118800E+02  0.7816164E-02  0.1184000E+00
        -11   -1    0    0    0    0  0.00000000000E+00  0.00000000000E+00  0.45593999997E+02  0.45594000000E+02  0.51100000000E-03 0. -1.
         11   -1    0    0    0    0 -0.00000000000E+00 -0.00000000000E+00 -0.45593999997E+02  0.45594000000E+02  0.51100000000E-03 0.  1.
         23    2    1    2    0    0 -0.99920072216E-15  0.88817841970E-15  0.00000000000E+00  0.91188000000E+02  0.91188000000E+02 0.  0.
    9900012    2    3    3    0    0  0.99083472728E+00 -0.65729061005E+01 -0.36215939383E+02  0.54367094071E+02  0.40000022553E+02 0.  0.
         12    1    3    3    0    0 -0.99083472728E+00  0.65729061005E+01  0.36215939383E+02  0.36820905929E+02  0.00000000000E+00 0. -1.
         11    1    4    4    0    0 -0.11499613304E+02  0.53702308756E+01 -0.72874503012E+01  0.14635143250E+02  0.51100000000E-03 0.  1.
        -11    1    4    4    0    0  0.13411191719E+00  0.91484185113E+00  0.30118849437E+01  0.31506146693E+01  0.51100000000E-03 0. -1.
        -12    1    4    4    0    0  0.12356336114E+02 -0.12857978827E+02 -0.31940374026E+02  0.36581336151E+02  0.00000000000E+00 0.  1.
</event>
<event>
 8    1  0.2504019E-006  0.9118800E+02  0.7816164E-02  0.1184000E+00
        -11   -1    0    0    0    0  0.00000000000E+00  0.00000000000E+00  0.45593999997E+02  0.45594000000E+02  0.51100000000E-03 0.  1.
         11   -1    0    0    0    0 -0.00000000000E+00 -0.00000000000E+00 -0.45593999997E+02  0.45594000000E+02  0.51100000000E-03 0. -1.
         23    2    1    2    0    0 -0.17763568394E-14  0.00000000000E+00  0.00000000000E+00  0.91188000000E+02  0.91188000000E+02 0.  0.
    9900012    2    3    3    0    0 -0.12229694852E+02  0.27211102958E+02  0.21581715553E+02  0.54367081943E+02  0.39999994906E+02 0.  0.
         12    1    3    3    0    0  0.12229694852E+02 -0.27211102958E+02 -0.21581715553E+02  0.36820918057E+02  0.00000000000E+00 0. -1.
         11    1    4    4    0    0 -0.13132254818E+02  0.11168066695E+01 -0.14789245488E+01  0.13262375044E+02  0.51100000000E-03 0. -1.
        -11    1    4    4    0    0  0.40516021065E+01 -0.11802204749E+01  0.96844443421E+01  0.10563941616E+02  0.51100000000E-03 0.  1.
        -12    1    4    4    0    0 -0.31490421409E+01  0.27274516763E+02  0.13376195759E+02  0.30540765283E+02  0.00000000000E+00 0.  1.
</event>
<event>
 8    1  0.2504019E-006  0.9118800E+02  0.7816164E-02  0.1184000E+00
        -11   -1    0    0    0    0  0.00000000000E+00  0.00000000000E+00  0.45593999997E+02  0.45594000000E+02  0.51100000000E-03 0. -1.
         11   -1    0    0    0    0 -0.00000000000E+00 -0.00000000000E+00 -0.45593999997E+02  0.45594000000E+02  0.51100000000E-03 0.  1.
         23    2    1    2    0    0 -0.35527136788E-14  0.00000000000E+00  0.35527136788E-14  0.91188000000E+02  0.91188000000E+02 0.  0.
    9900012    2    3    3    0    0  0.28739272876E+02  0.19610778179E+02 -0.12052602750E+02  0.54366896550E+02  0.39999572263E+02 0.  0.
         12    1    3    3    0    0 -0.28739272876E+02 -0.19610778179E+02  0.12052602750E+02  0.36821103450E+02  0.00000000000E+00 0. -1.
         11    1    4    4    0    0  0.63564453920E+01 -0.41090859081E-01  0.68363247234E+01  0.93349570147E+01  0.51100000000E-03 0. -1.
        -11    1    4    4    0    0  0.15024318954E+02  0.15881448440E+02  0.25915108947E+01  0.22015142370E+02  0.51100000000E-03 0.  1.
        -12    1    4    4    0    0  0.73585085301E+01  0.37704205980E+01 -0.21480438368E+02  0.23016797166E+02  0.00000000000E+00 0.  1.
</event>
<event>
 8    1  0.2504019E-006  0.9118800E+02  0.7816164E-02  0.1184000E+00
        -11   -1    0    0    0    0  0.00000000000E+00  0.00000000000E+00  0.45593999997E+02  0.45594000000E+02  0.51100000000E-03 0. -1.
         11   -1    0    0    0    0 -0.00000000000E+00 -0.00000000000E+00 -0.45593999997E+02  0.45594000000E+02  0.51100000000E-03 0.  1.
         23    2    1    2    0    0  0.00000000000E+00  0.88817841970E-15  0.00000000000E+00  0.91188000000E+02  0.91188000000E+02 0.  0.
    9900012    2    3    3    0    0 -0.35289714491E+02 -0.66721043090E+01 -0.81178030315E+01  0.54367086774E+02  0.40000005919E+02 0.  0.
         12    1    3    3    0    0  0.35289714491E+02  0.66721043090E+01  0.81178030315E+01  0.36820913226E+02  0.00000000000E+00 0. -1.
         11    1    4    4    0    0 -0.14201928351E+02 -0.20889245162E+02 -0.49632514251E+01  0.25742750384E+02  0.51100000000E-03 0. -1.
        -11    1    4    4    0    0 -0.94158964297E+01  0.15450866734E+00  0.20181418343E+01  0.96309851639E+01  0.51100000000E-03 0.  1.
         12    1    4    4    0    0 -0.11671889710E+02  0.14062632186E+02 -0.51726934408E+01  0.18993351227E+02  0.00000000000E+00 0. -1.
</event>
<event>
 8    1  0.2504019E-006  0.9118800E+02  0.7816164E-02  0.1184000E+00
        -11   -1    0    0    0    0  0.00000000000E+00  0.00000000000E+00  0.45593999997E+02  0.45594000000E+02  0.51100000000E-03 0.  1.
         11   -1    0    0    0    0 -0.00000000000E+00 -0.00000000000E+00 -0.45593999997E+02  0.45594000000E+02  0.51100000000E-03 0. -1.
         23    2    1    2    0    0  0.00000000000E+00  0.00000000000E+00  0.00000000000E+00  0.91188000000E+02  0.91188000000E+02 0.  0.
    9900012    2    3    3    0    0  0.21026696587E+02 -0.16152836304E+02  0.25548926962E+02  0.54367030989E+02  0.39999878745E+02 0.  0.
         12    1    3    3    0    0 -0.21026696587E+02  0.16152836304E+02 -0.25548926962E+02  0.36820969011E+02  0.00000000000E+00 0. -1.
         11    1    4    4    0    0  0.56664073740E+01 -0.16854648426E+02  0.22707268523E+02  0.28841071238E+02  0.51100000000E-03 0. -1.
        -11    1    4    4    0    0  0.56321567963E+01 -0.64393543465E+01 -0.60995441387E+01  0.10506708026E+02  0.51100000000E-03 0.  1.
        -12    1    4    4    0    0  0.97281324171E+01  0.71411664687E+01  0.89412025770E+01  0.15019251725E+02  0.00000000000E+00 0.  1.
</event>
<event>
 8    1  0.2504019E-006  0.9118800E+02  0.7816164E-02  0.1184000E+00
        -11   -1    0    0    0    0  0.00000000000E+00  0.00000000000E+00  0.45593999997E+02  0.45594000000E+02  0.51100000000E-03 0.  1.
         11   -1    0    0    0    0 -0.00000000000E+00 -0.00000000000E+00 -0.45593999997E+02  0.45594000000E+02  0.51100000000E-03 0. -1.
         23    2    1    2    0    0  0.00000000000E+00  0.00000000000E+00  0.00000000000E+00  0.91188000000E+02  0.91188000000E+02 0.  0.
    9900012    2    3    3    0    0  0.83480310708E+01  0.32493212833E+02 -0.15174623114E+02  0.54367249197E+02  0.40000376194E+02 0.  0.
        -12    1    3    3    0    0 -0.83480310708E+01 -0.32493212833E+02  0.15174623114E+02  0.36820750803E+02  0.00000000000E+00 0.  1.
         11    1    4    4    0    0  0.92513603010E+01  0.13463219433E+02  0.23926924945E+00  0.16337172184E+02  0.51100000000E-03 0.  1.
        -11    1    4    4    0    0 -0.12388318194E+02  0.17465781409E+02 -0.15507413387E+02  0.26438680340E+02  0.51100000000E-03 0. -1.
        -12    1    4    4    0    0  0.11484988964E+02  0.15642119906E+01  0.93521022731E-01  0.11591396673E+02  0.00000000000E+00 0.  1.
</event>
<event>
 8    1  0.2504019E-006  0.9118800E+02  0.7816164E-02  0.1184000E+00
        -11   -1    0    0    0    0  0.00000000000E+00  0.00000000000E+00  0.45593999997E+02  0.45594000000E+02  0.51100000000E-03 0.  1.
         11   -1    0    0    0    0 -0.00000000000E+00 -0.00000000000E+00 -0.45593999997E+02  0.45594000000E+02  0.51100000000E-03 0. -1.
         23    2    1    2    0    0 -0.88817841970E-15  0.00000000000E+00  0.00000000000E+00  0.91188000000E+02  0.91188000000E+02 0.  0.
    9900012    2    3    3    0    0 -0.73176018214E+01  0.28779398230E+02 -0.21771037113E+02  0.54367094038E+02  0.40000022478E+02 0.  0.
        -12    1    3    3    0    0  0.73176018214E+01 -0.28779398230E+02  0.21771037113E+02  0.36820905962E+02  0.00000000000E+00 0.  1.
         11    1    4    4    0    0 -0.73291680766E+01  0.84316173631E+01  0.59746408434E+01  0.12669065061E+02  0.51100000000E-03 0. -1.
        -11    1    4    4    0    0  0.95252563180E+01  0.14215875434E+02 -0.78911882824E+01  0.18843897555E+02  0.51100000000E-03 0.  1.
         12    1    4    4    0    0 -0.95136900628E+01  0.61319054324E+01 -0.19854489674E+02  0.22854131422E+02  0.00000000000E+00 0. -1.
</event>
<event>
 8    1  0.2504019E-006  0.9118800E+02  0.7816164E-02  0.1184000E+00
        -11   -1    0    0    0    0  0.00000000000E+00  0.00000000000E+00  0.45593999997E+02  0.45594000000E+02  0.51100000000E-03 0.  1.
         11   -1    0    0    0    0 -0.00000000000E+00 -0.00000000000E+00 -0.45593999997E+02  0.45594000000E+02  0.51100000000E-03 0. -1.
         23    2    1    2    0    0  0.35527136788E-14 -0.17763568394E-14 -0.35527136788E-14  0.91188000000E+02  0.91188000000E+02 0.  0.
    9900012    2    3    3    0    0 -0.27398194206E+02  0.11526846261E+02  0.21731341520E+02  0.54367076128E+02  0.39999981650E+02 0.  0.
         12    1    3    3    0    0  0.27398194206E+02 -0.11526846261E+02 -0.21731341520E+02  0.36820923872E+02  0.00000000000E+00 0. -1.
         11    1    4    4    0    0 -0.18925541623E+02  0.18405467258E+01  0.38185086252E+01  0.19394451432E+02  0.51100000000E-03 0. -1.
        -11    1    4    4    0    0 -0.17596355462E+02  0.27115019483E+01  0.70013035959E+01  0.19131184507E+02  0.51100000000E-03 0.  1.
         12    1    4    4    0    0  0.91237028787E+01  0.69747975870E+01  0.10911529299E+02  0.15841440188E+02  0.00000000000E+00 0. -1.
</event>
<event>
 8    1  0.2504019E-006  0.9118800E+02  0.7816164E-02  0.1184000E+00
        -11   -1    0    0    0    0  0.00000000000E+00  0.00000000000E+00  0.45593999997E+02  0.45594000000E+02  0.51100000000E-03 0.  1.
         11   -1    0    0    0    0 -0.00000000000E+00 -0.00000000000E+00 -0.45593999997E+02  0.45594000000E+02  0.51100000000E-03 0. -1.
         23    2    1    2    0    0  0.44408920985E-15  0.00000000000E+00  0.35527136788E-14  0.91188000000E+02  0.91188000000E+02 0.  0.
    9900012    2    3    3    0    0 -0.32900851373E+01  0.27562546137E+02 -0.24192158444E+02  0.54367093711E+02  0.40000021733E+02 0.  0.
        -12    1    3    3    0    0  0.32900851373E+01 -0.27562546137E+02  0.24192158444E+02  0.36820906289E+02  0.00000000000E+00 0.  1.
         11    1    4    4    0    0  0.23120672369E+01  0.21753135106E+01  0.25777734117E+01  0.40893226579E+01  0.51100000000E-03 0. -1.
        -11    1    4    4    0    0  0.12931786613E+02  0.11207027321E+02 -0.37913732358E+01  0.17527209637E+02  0.51100000000E-03 0.  1.
         12    1    4    4    0    0 -0.18533938987E+02  0.14180205305E+02 -0.22978558620E+02  0.32750561417E+02  0.00000000000E+00 0. -1.
</event>
<event>
 8    1  0.2504019E-006  0.9118800E+02  0.7816164E-02  0.1184000E+00
        -11   -1    0    0    0    0  0.00000000000E+00  0.00000000000E+00  0.45593999997E+02  0.45594000000E+02  0.51100000000E-03 0. -1.
         11   -1    0    0    0    0 -0.00000000000E+00 -0.00000000000E+00 -0.45593999997E+02  0.45594000000E+02  0.51100000000E-03 0.  1.
         23    2    1    2    0    0  0.00000000000E+00  0.00000000000E+00  0.00000000000E+00  0.91188000000E+02  0.91188000000E+02 0.  0.
    9900012    2    3    3    0    0  0.48824103034E+01 -0.36262843864E+02 -0.41168499399E+01  0.54367078924E+02  0.39999988023E+02 0.  0.
        -12    1    3    3    0    0 -0.48824103034E+01  0.36262843864E+02  0.41168499399E+01  0.36820921076E+02  0.00000000000E+00 0.  1.
         11    1    4    4    0    0 -0.21104498765E+01 -0.17290674583E+01 -0.54643099735E+01  0.61075655300E+01  0.51100000000E-03 0. -1.
        -11    1    4    4    0    0  0.97733279618E+01 -0.11101508320E+02 -0.13792371391E+02  0.20223524304E+02  0.51100000000E-03 0.  1.
         12    1    4    4    0    0 -0.27804677819E+01 -0.23432268085E+02  0.15139831424E+02  0.28035989090E+02  0.00000000000E+00 0. -1.
</event>
<event>
 8    1  0.2504019E-006  0.9118800E+02  0.7816164E-02  0.1184000E+00
        -11   -1    0    0    0    0  0.00000000000E+00  0.00000000000E+00  0.45593999997E+02  0.45594000000E+02  0.51100000000E-03 0. -1.
         11   -1    0    0    0    0 -0.00000000000E+00 -0.00000000000E+00 -0.45593999997E+02  0.45594000000E+02  0.51100000000E-03 0.  1.
         23    2    1    2    0    0  0.88817841970E-15  0.00000000000E+00  0.00000000000E+00  0.91188000000E+02  0.91188000000E+02 0.  0.
    9900012    2    3    3    0    0 -0.76078599584E+01 -0.23429318756E+02  0.27367256270E+02  0.54367092538E+02  0.40000019060E+02 0.  0.
        -12    1    3    3    0    0  0.76078599584E+01  0.23429318756E+02 -0.27367256270E+02  0.36820907462E+02  0.00000000000E+00 0.  1.
         11    1    4    4    0    0 -0.18604927693E+01 -0.62524905882E+01  0.91227572679E+01  0.11215158150E+02  0.51100000000E-03 0. -1.
        -11    1    4    4    0    0 -0.12787228467E+02  0.51666078449E+01  0.56502675816E+00  0.13803126602E+02  0.51100000000E-03 0.  1.
        -12    1    4    4    0    0  0.70398612776E+01 -0.22343436013E+02  0.17679472244E+02  0.29348807787E+02  0.00000000000E+00 0.  1.
</event>
<event>
 8    1  0.2504019E-006  0.9118800E+02  0.7816164E-02  0.1184000E+00
        -11   -1    0    0    0    0  0.00000000000E+00  0.00000000000E+00  0.45593999997E+02  0.45594000000E+02  0.51100000000E-03 0. -1.
         11   -1    0    0    0    0 -0.00000000000E+00 -0.00000000000E+00 -0.45593999997E+02  0.45594000000E+02  0.51100000000E-03 0.  1.
         23    2    1    2    0    0  0.17763568394E-14  0.00000000000E+00  0.00000000000E+00  0.91188000000E+02  0.91188000000E+02 0.  0.
    9900012    2    3    3    0    0  0.12820945110E+02 -0.33962162663E+02  0.61624415007E+01  0.54367071012E+02  0.39999969987E+02 0.  0.
         12    1    3    3    0    0 -0.12820945110E+02  0.33962162663E+02 -0.61624415007E+01  0.36820928988E+02  0.00000000000E+00 0. -1.
         11    1    4    4    0    0  0.43308738139E+01 -0.23428705011E+01  0.82675859761E+01  0.96228108321E+01  0.51100000000E-03 0. -1.
        -11    1    4    4    0    0  0.18983521235E+02 -0.27499829807E+02 -0.18881107542E+01  0.33469085443E+02  0.51100000000E-03 0.  1.
        -12    1    4    4    0    0 -0.10493449939E+02 -0.41194623550E+01 -0.21703372128E+00  0.11275174737E+02  0.00000000000E+00 0.  1.
</event>
<event>
 8    1  0.2504019E-006  0.9118800E+02  0.7816164E-02  0.1184000E+00
        -11   -1    0    0    0    0  0.00000000000E+00  0.00000000000E+00  0.45593999997E+02  0.45594000000E+02  0.51100000000E-03 0. -1.
         11   -1    0    0    0    0 -0.00000000000E+00 -0.00000000000E+00 -0.45593999997E+02  0.45594000000E+02  0.51100000000E-03 0.  1.
         23    2    1    2    0    0  0.00000000000E+00  0.71054273576E-14  0.00000000000E+00  0.91188000000E+02  0.91188000000E+02 0.  0.
    9900012    2    3    3    0    0  0.11356564541E+02  0.34368433009E+02 -0.67541300334E+01  0.54367095365E+02  0.40000025503E+02 0.  0.
         12    1    3    3    0    0 -0.11356564541E+02 -0.34368433009E+02  0.67541300334E+01  0.36820904635E+02  0.00000000000E+00 0. -1.
         11    1    4    4    0    0  0.16652660058E+02  0.14076371110E+01 -0.18837333693E+01  0.16817876826E+02  0.51100000000E-03 0. -1.
        -11    1    4    4    0    0 -0.80229033970E+01  0.31533331167E+02 -0.93263641071E+00  0.32551309718E+02  0.51100000000E-03 0.  1.
         12    1    4    4    0    0  0.27268078792E+01  0.14274647304E+01 -0.39377602534E+01  0.49979088207E+01  0.00000000000E+00 0. -1.
</event>
<event>
 8    1  0.2504019E-006  0.9118800E+02  0.7816164E-02  0.1184000E+00
        -11   -1    0    0    0    0  0.00000000000E+00  0.00000000000E+00  0.45593999997E+02  0.45594000000E+02  0.51100000000E-03 0.  1.
         11   -1    0    0    0    0 -0.00000000000E+00 -0.00000000000E+00 -0.45593999997E+02  0.45594000000E+02  0.51100000000E-03 0. -1.
         23    2    1    2    0    0  0.00000000000E+00 -0.88817841970E-15  0.00000000000E+00  0.91188000000E+02  0.91188000000E+02 0.  0.
    9900012    2    3    3    0    0 -0.92232334754E+01  0.45443173475E+01  0.35356192702E+02  0.54367092647E+02  0.40000019308E+02 0.  0.
         12    1    3    3    0    0  0.92232334754E+01 -0.45443173475E+01 -0.35356192702E+02  0.36820907353E+02  0.00000000000E+00 0. -1.
         11    1    4    4    0    0 -0.18223240628E+02  0.19162327453E+01  0.27383748520E+02  0.32948871455E+02  0.51100000000E-03 0. -1.
        -11    1    4    4    0    0  0.10302552777E+02 -0.54639349750E+01  0.41937899068E+01  0.12392943685E+02  0.51100000000E-03 0.  1.
         12    1    4    4    0    0 -0.13025456248E+01  0.80920195772E+01  0.37786542752E+01  0.90252775067E+01  0.00000000000E+00 0. -1.
</event>
<event>
 8    1  0.2504019E-006  0.9118800E+02  0.7816164E-02  0.1184000E+00
        -11   -1    0    0    0    0  0.00000000000E+00  0.00000000000E+00  0.45593999997E+02  0.45594000000E+02  0.51100000000E-03 0.  1.
         11   -1    0    0    0    0 -0.00000000000E+00 -0.00000000000E+00 -0.45593999997E+02  0.45594000000E+02  0.51100000000E-03 0. -1.
         23    2    1    2    0    0  0.35527136788E-14 -0.88817841970E-15  0.35527136788E-14  0.91188000000E+02  0.91188000000E+02 0.  0.
    9900012    2    3    3    0    0  0.25987203410E+02 -0.75818289980E+01  0.24959206929E+02  0.54367070048E+02  0.39999967788E+02 0.  0.
         12    1    3    3    0    0 -0.25987203410E+02  0.75818289980E+01 -0.24959206929E+02  0.36820929952E+02  0.00000000000E+00 0. -1.
         11    1    4    4    0    0  0.17966413508E+01  0.68748754055E+01 -0.17106018806E+01  0.73087612520E+01  0.51100000000E-03 0. -1.
        -11    1    4    4    0    0 -0.33396138884E+00 -0.13180994286E+02  0.14673460032E+02  0.19727153118E+02  0.51100000000E-03 0.  1.
         12    1    4    4    0    0  0.24524523448E+02 -0.12757101170E+01  0.11996348778E+02  0.27331155678E+02  0.00000000000E+00 0. -1.
</event>
<event>
 8    1  0.2504019E-006  0.9118800E+02  0.7816164E-02  0.1184000E+00
        -11   -1    0    0    0    0  0.00000000000E+00  0.00000000000E+00  0.45593999997E+02  0.45594000000E+02  0.51100000000E-03 0.  1.
         11   -1    0    0    0    0 -0.00000000000E+00 -0.00000000000E+00 -0.45593999997E+02  0.45594000000E+02  0.51100000000E-03 0. -1.
         23    2    1    2    0    0  0.35527136788E-14  0.10658141036E-13  0.88817841970E-15  0.91188000000E+02  0.91188000000E+02 0.  0.
    9900012    2    3    3    0    0 -0.18597168999E+02 -0.31282922425E+02 -0.55945449578E+01  0.54367151782E+02  0.40000154117E+02 0.  0.
        -12    1    3    3    0    0  0.18597168999E+02  0.31282922425E+02  0.55945449578E+01  0.36820848218E+02  0.00000000000E+00 0.  1.
         11    1    4    4    0    0  0.13005961128E+00 -0.23125240416E+02 -0.38926602321E+01  0.23450937375E+02  0.51100000000E-03 0. -1.
        -11    1    4    4    0    0 -0.38787864199E+01 -0.13991586353E+02 -0.32793841775E+01  0.14885020443E+02  0.51100000000E-03 0.  1.
        -12    1    4    4    0    0 -0.14848442191E+02  0.58339043442E+01  0.15774994518E+01  0.16031193964E+02  0.00000000000E+00 0.  1.
</event>
<event>
 8    1  0.2504019E-006  0.9118800E+02  0.7816164E-02  0.1184000E+00
        -11   -1    0    0    0    0  0.00000000000E+00  0.00000000000E+00  0.45593999997E+02  0.45594000000E+02  0.51100000000E-03 0. -1.
         11   -1    0    0    0    0 -0.00000000000E+00 -0.00000000000E+00 -0.45593999997E+02  0.45594000000E+02  0.51100000000E-03 0.  1.
         23    2    1    2    0    0  0.17763568394E-14  0.17763568394E-14  0.35527136788E-14  0.91188000000E+02  0.91188000000E+02 0.  0.
    9900012    2    3    3    0    0 -0.13282090624E+02  0.13740836764E+02  0.31473075796E+02  0.54367095253E+02  0.40000025248E+02 0.  0.
        -12    1    3    3    0    0  0.13282090624E+02 -0.13740836764E+02 -0.31473075796E+02  0.36820904747E+02  0.00000000000E+00 0.  1.
         11    1    4    4    0    0  0.42813745695E+01  0.10840348239E+01  0.17166332280E+01  0.47383678207E+01  0.51100000000E-03 0. -1.
        -11    1    4    4    0    0 -0.14399082300E+02  0.15633512031E+02  0.36128434911E+02  0.41916632485E+02  0.51100000000E-03 0.  1.
        -12    1    4    4    0    0 -0.31643828939E+01 -0.29767100916E+01 -0.63719923425E+01  0.77120949476E+01  0.00000000000E+00 0.  1.
</event>
<event>
 8    1  0.2504019E-006  0.9118800E+02  0.7816164E-02  0.1184000E+00
        -11   -1    0    0    0    0  0.00000000000E+00  0.00000000000E+00  0.45593999997E+02  0.45594000000E+02  0.51100000000E-03 0.  1.
         11   -1    0    0    0    0 -0.00000000000E+00 -0.00000000000E+00 -0.45593999997E+02  0.45594000000E+02  0.51100000000E-03 0. -1.
         23    2    1    2    0    0  0.00000000000E+00  0.00000000000E+00  0.00000000000E+00  0.91188000000E+02  0.91188000000E+02 0.  0.
    9900012    2    3    3    0    0  0.14319904742E+02  0.31482091719E+02  0.12633206137E+02  0.54367086539E+02  0.40000005382E+02 0.  0.
         12    1    3    3    0    0 -0.14319904742E+02 -0.31482091719E+02 -0.12633206137E+02  0.36820913461E+02  0.00000000000E+00 0. -1.
         11    1    4    4    0    0  0.14360993310E+01 -0.38339918569E+01 -0.53112028926E+01  0.67060235069E+01  0.51100000000E-03 0. -1.
        -11    1    4    4    0    0  0.79075539753E+01 -0.37384629940E+00  0.15272542193E+01  0.80623617284E+01  0.51100000000E-03 0.  1.
        -12    1    4    4    0    0  0.49762514359E+01  0.35689929875E+02  0.16417154810E+02  0.39598701303E+02  0.00000000000E+00 0.  1.
</event>
<event>
 8    1  0.2504019E-006  0.9118800E+02  0.7816164E-02  0.1184000E+00
        -11   -1    0    0    0    0  0.00000000000E+00  0.00000000000E+00  0.45593999997E+02  0.45594000000E+02  0.51100000000E-03 0.  1.
         11   -1    0    0    0    0 -0.00000000000E+00 -0.00000000000E+00 -0.45593999997E+02  0.45594000000E+02  0.51100000000E-03 0. -1.
         23    2    1    2    0    0  0.00000000000E+00  0.35527136788E-14 -0.44408920985E-15  0.91188000000E+02  0.91188000000E+02 0.  0.
    9900012    2    3    3    0    0 -0.24050275609E+02  0.27853147886E+02  0.12513446510E+01  0.54367089263E+02  0.40000011593E+02 0.  0.
         12    1    3    3    0    0  0.24050275609E+02 -0.27853147886E+02 -0.12513446510E+01  0.36820910737E+02  0.00000000000E+00 0. -1.
         11    1    4    4    0    0 -0.55662060554E+00 -0.47352959263E+01  0.27022239544E+00  0.47755496450E+01  0.51100000000E-03 0. -1.
        -11    1    4    4    0    0 -0.13756168232E+02 -0.54158007680E+00 -0.47998740068E+01  0.14579583813E+02  0.51100000000E-03 0.  1.
         12    1    4    4    0    0 -0.97374867715E+01  0.33130023889E+02  0.57809962624E+01  0.35011955805E+02  0.00000000000E+00 0. -1.
</event>
<event>
 8    1  0.2504019E-006  0.9118800E+02  0.7816164E-02  0.1184000E+00
        -11   -1    0    0    0    0  0.00000000000E+00  0.00000000000E+00  0.45593999997E+02  0.45594000000E+02  0.51100000000E-03 0.  1.
         11   -1    0    0    0    0 -0.00000000000E+00 -0.00000000000E+00 -0.45593999997E+02  0.45594000000E+02  0.51100000000E-03 0. -1.
         23    2    1    2    0    0  0.88817841970E-15 -0.71054273576E-14  0.00000000000E+00  0.91188000000E+02  0.91188000000E+02 0.  0.
    9900012    2    3    3    0    0  0.50958129921E+01 -0.32615804565E+02 -0.16310200740E+02  0.54367072993E+02  0.39999974502E+02 0.  0.
        -12    1    3    3    0    0 -0.50958129921E+01  0.32615804565E+02  0.16310200740E+02  0.36820927007E+02  0.00000000000E+00 0.  1.
         11    1    4    4    0    0  0.36952290628E+01 -0.22893988337E+02 -0.86187559048E+01  0.24740096471E+02  0.51100000000E-03 0. -1.
        -11    1    4    4    0    0 -0.26919597665E+01 -0.78906615069E+01 -0.17200150448E+02  0.19114245005E+02  0.51100000000E-03 0.  1.
        -12    1    4    4    0    0  0.40925436959E+01 -0.18311547217E+01  0.95087056129E+01  0.10512731517E+02  0.00000000000E+00 0.  1.
</event>
<event>
 8    1  0.2504019E-006  0.9118800E+02  0.7816164E-02  0.1184000E+00
        -11   -1    0    0    0    0  0.00000000000E+00  0.00000000000E+00  0.45593999997E+02  0.45594000000E+02  0.51100000000E-03 0. -1.
         11   -1    0    0    0    0 -0.00000000000E+00 -0.00000000000E+00 -0.45593999997E+02  0.45594000000E+02  0.51100000000E-03 0.  1.
         23    2    1    2    0    0  0.00000000000E+00 -0.35527136788E-14 -0.17763568394E-14  0.91188000000E+02  0.91188000000E+02 0.  0.
    9900012    2    3    3    0    0 -0.19402421861E+02 -0.27514857890E+02 -0.14908351259E+02  0.54367077740E+02  0.39999985324E+02 0.  0.
         12    1    3    3    0    0  0.19402421861E+02  0.27514857890E+02  0.14908351259E+02  0.36820922260E+02  0.00000000000E+00 0. -1.
         11    1    4    4    0    0 -0.14296560957E+02 -0.32126672605E+01  0.17247498841E+01  0.14754241714E+02  0.51100000000E-03 0. -1.
        -11    1    4    4    0    0 -0.11692220214E+02 -0.21391032425E+02 -0.34902603688E+01  0.24626534459E+02  0.51100000000E-03 0.  1.
         12    1    4    4    0    0  0.65863593098E+01 -0.29111582043E+01 -0.13142840774E+02  0.14986301567E+02  0.00000000000E+00 0. -1.
</event>
<event>
 8    1  0.2504019E-006  0.9118800E+02  0.7816164E-02  0.1184000E+00
        -11   -1    0    0    0    0  0.00000000000E+00  0.00000000000E+00  0.45593999997E+02  0.45594000000E+02  0.51100000000E-03 0. -1.
         11   -1    0    0    0    0 -0.00000000000E+00 -0.00000000000E+00 -0.45593999997E+02  0.45594000000E+02  0.51100000000E-03 0.  1.
         23    2    1    2    0    0  0.35527136788E-14  0.35527136788E-14  0.13322676296E-14  0.91188000000E+02  0.91188000000E+02 0.  0.
    9900012    2    3    3    0    0  0.18475195995E+02  0.31848866559E+02  0.30995735744E+00  0.54367092329E+02  0.40000018583E+02 0.  0.
        -12    1    3    3    0    0 -0.18475195995E+02 -0.31848866559E+02 -0.30995735744E+00  0.36820907671E+02  0.00000000000E+00 0.  1.
         11    1    4    4    0    0 -0.11626052653E+01  0.32107317800E+01  0.39305301351E+01  0.52066800334E+01  0.51100000000E-03 0. -1.
        -11    1    4    4    0    0 -0.52932159660E+01  0.19897513893E+02  0.53270624987E+01  0.21267505484E+02  0.51100000000E-03 0.  1.
         12    1    4    4    0    0  0.24931017226E+02  0.87406208861E+01 -0.89476352764E+01  0.27892906812E+02  0.00000000000E+00 0. -1.
</event>
<event>
 8    1  0.2504019E-006  0.9118800E+02  0.7816164E-02  0.1184000E+00
        -11   -1    0    0    0    0  0.00000000000E+00  0.00000000000E+00  0.45593999997E+02  0.45594000000E+02  0.51100000000E-03 0.  1.
         11   -1    0    0    0    0 -0.00000000000E+00 -0.00000000000E+00 -0.45593999997E+02  0.45594000000E+02  0.51100000000E-03 0. -1.
         23    2    1    2    0    0  0.00000000000E+00  0.00000000000E+00 -0.88817841970E-15  0.91188000000E+02  0.91188000000E+02 0.  0.
    9900012    2    3    3    0    0 -0.22790830591E+02 -0.28134787010E+02  0.66926161190E+01  0.54367091407E+02  0.40000016481E+02 0.  0.
         12    1    3    3    0    0  0.22790830591E+02  0.28134787010E+02 -0.66926161190E+01  0.36820908593E+02  0.00000000000E+00 0. -1.
         11    1    4    4    0    0 -0.11940389618E+02  0.38723214908E+00 -0.10047968833E+02  0.15610398166E+02  0.51100000000E-03 0. -1.
        -11    1    4    4    0    0  0.20274530241E+01  0.11755995494E+01  0.65583630243E-01  0.23445471928E+01  0.51100000000E-03 0.  1.
        -12    1    4    4    0    0 -0.12877893997E+02 -0.29697618708E+02  0.16675001322E+02  0.36412146048E+02  0.00000000000E+00 0.  1.
</event>
<event>
 8    1  0.2504019E-006  0.9118800E+02  0.7816164E-02  0.1184000E+00
        -11   -1    0    0    0    0  0.00000000000E+00  0.00000000000E+00  0.45593999997E+02  0.45594000000E+02  0.51100000000E-03 0.  1.
         11   -1    0    0    0    0 -0.00000000000E+00 -0.00000000000E+00 -0.45593999997E+02  0.45594000000E+02  0.51100000000E-03 0. -1.
         23    2    1    2    0    0 -0.35527136788E-14 -0.17763568394E-14 -0.35527136788E-14  0.91188000000E+02  0.91188000000E+02 0.  0.
    9900012    2    3    3    0    0  0.22254953875E+02  0.12233507994E+02 -0.26661585596E+02  0.54367057096E+02  0.39999938262E+02 0.  0.
        -12    1    3    3    0    0 -0.22254953875E+02 -0.12233507994E+02  0.26661585596E+02  0.36820942904E+02  0.00000000000E+00 0.  1.
         11    1    4    4    0    0  0.11374464746E+02  0.53074806870E+01  0.45587992276E+01  0.13354042465E+02  0.51100000000E-03 0. -1.
        -11    1    4    4    0    0  0.13597285710E+01  0.10817936323E+02 -0.35080865763E+01  0.11453526957E+02  0.51100000000E-03 0.  1.
         12    1    4    4    0    0  0.95207605582E+01 -0.38919090161E+01 -0.27712298248E+02  0.29559487674E+02  0.00000000000E+00 0. -1.
</event>
<event>
 8    1  0.2504019E-006  0.9118800E+02  0.7816164E-02  0.1184000E+00
        -11   -1    0    0    0    0  0.00000000000E+00  0.00000000000E+00  0.45593999997E+02  0.45594000000E+02  0.51100000000E-03 0.  1.
         11   -1    0    0    0    0 -0.00000000000E+00 -0.00000000000E+00 -0.45593999997E+02  0.45594000000E+02  0.51100000000E-03 0. -1.
         23    2    1    2    0    0 -0.88817841970E-15  0.00000000000E+00  0.00000000000E+00  0.91188000000E+02  0.91188000000E+02 0.  0.
    9900012    2    3    3    0    0  0.37590000155E+01 -0.33892935604E+02 -0.13889503685E+02  0.54367089126E+02  0.40000011280E+02 0.  0.
        -12    1    3    3    0    0 -0.37590000155E+01  0.33892935604E+02  0.13889503685E+02  0.36820910874E+02  0.00000000000E+00 0.  1.
         11    1    4    4    0    0 -0.95785895348E+01 -0.10255983788E+02 -0.85498653160E+01  0.16432734956E+02  0.51100000000E-03 0. -1.
        -11    1    4    4    0    0  0.13967152060E+02 -0.28946452577E+02 -0.53820191578E+01  0.32587491219E+02  0.51100000000E-03 0.  1.
         12    1    4    4    0    0 -0.62956250991E+00  0.53095007611E+01  0.42380788893E-01  0.53468629510E+01  0.00000000000E+00 0. -1.
</event>
<event>
 8    1  0.2504019E-006  0.9118800E+02  0.7816164E-02  0.1184000E+00
        -11   -1    0    0    0    0  0.00000000000E+00  0.00000000000E+00  0.45593999997E+02  0.45594000000E+02  0.51100000000E-03 0.  1.
         11   -1    0    0    0    0 -0.00000000000E+00 -0.00000000000E+00 -0.45593999997E+02  0.45594000000E+02  0.51100000000E-03 0. -1.
         23    2    1    2    0    0  0.26645352591E-14  0.00000000000E+00  0.00000000000E+00  0.91188000000E+02  0.91188000000E+02 0.  0.
    9900012    2    3    3    0    0 -0.65770755388E+01  0.10768360908E+02 -0.34591380468E+02  0.54367093955E+02  0.40000022289E+02 0.  0.
        -12    1    3    3    0    0  0.65770755388E+01 -0.10768360908E+02  0.34591380468E+02  0.36820906045E+02  0.00000000000E+00 0.  1.
         11    1    4    4    0    0 -0.43338627147E+01  0.10260925275E+01 -0.12470774517E+02  0.13242184458E+02  0.51100000000E-03 0. -1.
        -11    1    4    4    0    0  0.76749137881E+01  0.18478984931E+02 -0.18892214500E+02  0.27518956280E+02  0.51100000000E-03 0.  1.
        -12    1    4    4    0    0 -0.99181266122E+01 -0.87367165505E+01 -0.32283914504E+01  0.13605953217E+02  0.00000000000E+00 0.  1.
</event>
<event>
 8    1  0.2504019E-006  0.9118800E+02  0.7816164E-02  0.1184000E+00
        -11   -1    0    0    0    0  0.00000000000E+00  0.00000000000E+00  0.45593999997E+02  0.45594000000E+02  0.51100000000E-03 0.  1.
         11   -1    0    0    0    0 -0.00000000000E+00 -0.00000000000E+00 -0.45593999997E+02  0.45594000000E+02  0.51100000000E-03 0. -1.
         23    2    1    2    0    0 -0.35527136788E-14  0.00000000000E+00 -0.17763568394E-14  0.91188000000E+02  0.91188000000E+02 0.  0.
    9900012    2    3    3    0    0  0.26162990646E+02  0.21620767775E+02  0.14276592025E+02  0.54367071731E+02  0.39999971625E+02 0.  0.
         12    1    3    3    0    0 -0.26162990646E+02 -0.21620767775E+02 -0.14276592025E+02  0.36820928269E+02  0.00000000000E+00 0. -1.
         11    1    4    4    0    0  0.14360668104E+01  0.20523686698E+02 -0.47935534383E+01  0.21124917950E+02  0.51100000000E-03 0. -1.
        -11    1    4    4    0    0  0.93721696630E+01  0.30331504468E+00  0.14380399010E+02  0.17167569431E+02  0.51100000000E-03 0.  1.
        -12    1    4    4    0    0  0.15354754173E+02  0.79376603233E+00  0.46897464536E+01  0.16074584350E+02  0.00000000000E+00 0.  1.
</event>
<event>
 8    1  0.2504019E-006  0.9118800E+02  0.7816164E-02  0.1184000E+00
        -11   -1    0    0    0    0  0.00000000000E+00  0.00000000000E+00  0.45593999997E+02  0.45594000000E+02  0.51100000000E-03 0.  1.
         11   -1    0    0    0    0 -0.00000000000E+00 -0.00000000000E+00 -0.45593999997E+02  0.45594000000E+02  0.51100000000E-03 0. -1.
         23    2    1    2    0    0  0.00000000000E+00  0.00000000000E+00  0.00000000000E+00  0.91188000000E+02  0.91188000000E+02 0.  0.
    9900012    2    3    3    0    0 -0.18146976844E+02  0.21541431683E+02 -0.23715674486E+02  0.54367092029E+02  0.40000017898E+02 0.  0.
        -12    1    3    3    0    0  0.18146976844E+02 -0.21541431683E+02  0.23715674486E+02  0.36820907971E+02  0.00000000000E+00 0.  1.
         11    1    4    4    0    0  0.10206241907E+01  0.13653801529E+02  0.24370198580E+01  0.13907085819E+02  0.51100000000E-03 0.  1.
        -11    1    4    4    0    0 -0.15640356834E+02  0.56193173122E+01 -0.29470383537E+01  0.16878463327E+02  0.51100000000E-03 0. -1.
        -12    1    4    4    0    0 -0.35272442000E+01  0.22683128421E+01 -0.23205655990E+02  0.23581542883E+02  0.00000000000E+00 0.  1.
</event>
<event>
 8    1  0.2504019E-006  0.9118800E+02  0.7816164E-02  0.1184000E+00
        -11   -1    0    0    0    0  0.00000000000E+00  0.00000000000E+00  0.45593999997E+02  0.45594000000E+02  0.51100000000E-03 0. -1.
         11   -1    0    0    0    0 -0.00000000000E+00 -0.00000000000E+00 -0.45593999997E+02  0.45594000000E+02  0.51100000000E-03 0.  1.
         23    2    1    2    0    0  0.00000000000E+00  0.00000000000E+00  0.35527136788E-14  0.91188000000E+02  0.91188000000E+02 0.  0.
    9900012    2    3    3    0    0 -0.12277204789E+02  0.15832674970E+02  0.30892996412E+02  0.54367074137E+02  0.39999977109E+02 0.  0.
        -12    1    3    3    0    0  0.12277204789E+02 -0.15832674970E+02 -0.30892996412E+02  0.36820925863E+02  0.00000000000E+00 0.  1.
         11    1    4    4    0    0 -0.10616665440E+02  0.53053237796E+01  0.78854967934E+01  0.14249249293E+02  0.51100000000E-03 0. -1.
        -11    1    4    4    0    0  0.11091873889E+02  0.14703434040E+02  0.18118841856E+02  0.25836274294E+02  0.51100000000E-03 0.  1.
        -12    1    4    4    0    0 -0.12752413238E+02 -0.41760828503E+01  0.48886577632E+01  0.14281550549E+02  0.00000000000E+00 0.  1.
</event>
<event>
 8    1  0.2504019E-006  0.9118800E+02  0.7816164E-02  0.1184000E+00
        -11   -1    0    0    0    0  0.00000000000E+00  0.00000000000E+00  0.45593999997E+02  0.45594000000E+02  0.51100000000E-03 0. -1.
         11   -1    0    0    0    0 -0.00000000000E+00 -0.00000000000E+00 -0.45593999997E+02  0.45594000000E+02  0.51100000000E-03 0.  1.
         23    2    1    2    0    0  0.35527136788E-14  0.00000000000E+00  0.17763568394E-14  0.91188000000E+02  0.91188000000E+02 0.  0.
    9900012    2    3    3    0    0  0.11757288261E+02  0.33421331400E+02  0.10028105891E+02  0.54367053142E+02  0.39999929247E+02 0.  0.
         12    1    3    3    0    0 -0.11757288261E+02 -0.33421331400E+02 -0.10028105891E+02  0.36820946858E+02  0.00000000000E+00 0. -1.
         11    1    4    4    0    0  0.73348356277E+01  0.15399096415E+02  0.19618995471E+02  0.25996864574E+02  0.51100000000E-03 0. -1.
        -11    1    4    4    0    0  0.75772941400E+01  0.20242856585E+02 -0.46631378558E+01  0.22111840360E+02  0.51100000000E-03 0.  1.
         12    1    4    4    0    0 -0.31548415070E+01 -0.22206216005E+01 -0.49277517248E+01  0.62583482076E+01  0.00000000000E+00 0. -1.
</event>
<event>
 8    1  0.2504019E-006  0.9118800E+02  0.7816164E-02  0.1184000E+00
        -11   -1    0    0    0    0  0.00000000000E+00  0.00000000000E+00  0.45593999997E+02  0.45594000000E+02  0.51100000000E-03 0.  1.
         11   -1    0    0    0    0 -0.00000000000E+00 -0.00000000000E+00 -0.45593999997E+02  0.45594000000E+02  0.51100000000E-03 0. -1.
         23    2    1    2    0    0 -0.44408920985E-15 -0.35527136788E-14 -0.35527136788E-14  0.91188000000E+02  0.91188000000E+02 0.  0.
    9900012    2    3    3    0    0  0.31566342037E+01 -0.21570898921E+02  0.29673394683E+02  0.54367104143E+02  0.40000045514E+02 0.  0.
         12    1    3    3    0    0 -0.31566342037E+01  0.21570898921E+02 -0.29673394683E+02  0.36820895857E+02  0.00000000000E+00 0. -1.
         11    1    4    4    0    0 -0.17364627808E+01  0.73916043514E+01  0.21208607213E+02  0.22526787122E+02  0.51100000000E-03 0. -1.
        -11    1    4    4    0    0 -0.16422940106E+01 -0.12111634027E+02  0.59452643301E+01  0.13591724565E+02  0.51100000000E-03 0.  1.
         12    1    4    4    0    0  0.65353909951E+01 -0.16850869245E+02  0.25195231402E+01  0.18248592456E+02  0.00000000000E+00 0. -1.
</event>
<event>
 8    1  0.2504019E-006  0.9118800E+02  0.7816164E-02  0.1184000E+00
        -11   -1    0    0    0    0  0.00000000000E+00  0.00000000000E+00  0.45593999997E+02  0.45594000000E+02  0.51100000000E-03 0.  1.
         11   -1    0    0    0    0 -0.00000000000E+00 -0.00000000000E+00 -0.45593999997E+02  0.45594000000E+02  0.51100000000E-03 0. -1.
         23    2    1    2    0    0  0.00000000000E+00  0.00000000000E+00  0.00000000000E+00  0.91188000000E+02  0.91188000000E+02 0.  0.
    9900012    2    3    3    0    0  0.15297440229E+02  0.12638787882E+02  0.31016599199E+02  0.54367081182E+02  0.39999993171E+02 0.  0.
        -12    1    3    3    0    0 -0.15297440229E+02 -0.12638787882E+02 -0.31016599199E+02  0.36820918818E+02  0.00000000000E+00 0.  1.
         11    1    4    4    0    0  0.14490430337E+02  0.19268951072E+01  0.15642965977E+02  0.21409994884E+02  0.51100000000E-03 0. -1.
        -11    1    4    4    0    0 -0.96633676399E+01 -0.44700543683E+01  0.66722358550E+01  0.12565062346E+02  0.51100000000E-03 0.  1.
         12    1    4    4    0    0  0.10470377532E+02  0.15181947144E+02  0.87013973670E+01  0.20392023952E+02  0.00000000000E+00 0. -1.
</event>
<event>
 8    1  0.2504019E-006  0.9118800E+02  0.7816164E-02  0.1184000E+00
        -11   -1    0    0    0    0  0.00000000000E+00  0.00000000000E+00  0.45593999997E+02  0.45594000000E+02  0.51100000000E-03 0. -1.
         11   -1    0    0    0    0 -0.00000000000E+00 -0.00000000000E+00 -0.45593999997E+02  0.45594000000E+02  0.51100000000E-03 0.  1.
         23    2    1    2    0    0  0.88817841970E-15  0.00000000000E+00 -0.17763568394E-14  0.91188000000E+02  0.91188000000E+02 0.  0.
    9900012    2    3    3    0    0  0.47144060772E+01 -0.35774308935E+02  0.73314528211E+01  0.54367122704E+02  0.40000087827E+02 0.  0.
         12    1    3    3    0    0 -0.47144060772E+01  0.35774308935E+02 -0.73314528211E+01  0.36820877296E+02  0.00000000000E+00 0. -1.
         11    1    4    4    0    0 -0.10427417503E+02  0.16787358751E+01 -0.36297017769E+01  0.11167986621E+02  0.51100000000E-03 0. -1.
        -11    1    4    4    0    0  0.83606668286E+00 -0.10852583796E+02 -0.49540749428E+00  0.10896008966E+02  0.51100000000E-03 0.  1.
         12    1    4    4    0    0  0.14305756897E+02 -0.26600461014E+02  0.11456562092E+02  0.32303127117E+02  0.00000000000E+00 0. -1.
</event>
<event>
 8    1  0.2504019E-006  0.9118800E+02  0.7816164E-02  0.1184000E+00
        -11   -1    0    0    0    0  0.00000000000E+00  0.00000000000E+00  0.45593999997E+02  0.45594000000E+02  0.51100000000E-03 0. -1.
         11   -1    0    0    0    0 -0.00000000000E+00 -0.00000000000E+00 -0.45593999997E+02  0.45594000000E+02  0.51100000000E-03 0.  1.
         23    2    1    2    0    0  0.71054273576E-14  0.00000000000E+00 -0.22204460493E-14  0.91188000000E+02  0.91188000000E+02 0.  0.
    9900012    2    3    3    0    0  0.34665233862E+02  0.12363783202E+02  0.11133695128E+01  0.54367066206E+02  0.39999959030E+02 0.  0.
         12    1    3    3    0    0 -0.34665233862E+02 -0.12363783202E+02 -0.11133695128E+01  0.36820933794E+02  0.00000000000E+00 0. -1.
         11    1    4    4    0    0  0.22285247565E+02 -0.22376063612E+01 -0.82605641022E+01  0.23872077010E+02  0.51100000000E-03 0. -1.
        -11    1    4    4    0    0  0.11311160301E+01  0.14666966953E+02  0.11952474010E+02  0.18954181024E+02  0.51100000000E-03 0.  1.
        -12    1    4    4    0    0  0.11248870268E+02 -0.65577390332E-01 -0.25785403946E+01  0.11540808172E+02  0.00000000000E+00 0.  1.
</event>
<event>
 8    1  0.2504019E-006  0.9118800E+02  0.7816164E-02  0.1184000E+00
        -11   -1    0    0    0    0  0.00000000000E+00  0.00000000000E+00  0.45593999997E+02  0.45594000000E+02  0.51100000000E-03 0.  1.
         11   -1    0    0    0    0 -0.00000000000E+00 -0.00000000000E+00 -0.45593999997E+02  0.45594000000E+02  0.51100000000E-03 0. -1.
         23    2    1    2    0    0 -0.13322676296E-14  0.00000000000E+00  0.00000000000E+00  0.91188000000E+02  0.91188000000E+02 0.  0.
    9900012    2    3    3    0    0  0.27633156731E+01  0.88770379236E+01  0.35627870842E+02  0.54367042700E+02  0.39999905442E+02 0.  0.
         12    1    3    3    0    0 -0.27633156731E+01 -0.88770379236E+01 -0.35627870842E+02  0.36820957300E+02  0.00000000000E+00 0. -1.
         11    1    4    4    0    0 -0.12292675932E+02  0.10093692200E+02  0.43510946901E+01  0.16490134295E+02  0.51100000000E-03 0. -1.
        -11    1    4    4    0    0  0.16993697289E+01  0.58271428754E+01  0.11396329686E+02  0.12912001477E+02  0.51100000000E-03 0.  1.
        -12    1    4    4    0    0  0.13356621876E+02 -0.70437971514E+01  0.19880446466E+02  0.24964906928E+02  0.00000000000E+00 0.  1.
</event>
<event>
 8    1  0.2504019E-006  0.9118800E+02  0.7816164E-02  0.1184000E+00
        -11   -1    0    0    0    0  0.00000000000E+00  0.00000000000E+00  0.45593999997E+02  0.45594000000E+02  0.51100000000E-03 0.  1.
         11   -1    0    0    0    0 -0.00000000000E+00 -0.00000000000E+00 -0.45593999997E+02  0.45594000000E+02  0.51100000000E-03 0. -1.
         23    2    1    2    0    0  0.00000000000E+00  0.00000000000E+00  0.35527136788E-14  0.91188000000E+02  0.91188000000E+02 0.  0.
    9900012    2    3    3    0    0  0.19907567384E+02 -0.17265125171E+02 -0.25717389345E+02  0.54367083376E+02  0.39999998171E+02 0.  0.
        -12    1    3    3    0    0 -0.19907567384E+02  0.17265125171E+02  0.25717389345E+02  0.36820916624E+02  0.00000000000E+00 0.  1.
         11    1    4    4    0    0  0.13546826987E+02 -0.11147082394E+02  0.28463071412E+00  0.17545796711E+02  0.51100000000E-03 0. -1.
        -11    1    4    4    0    0 -0.61694281921E+01 -0.46170652709E+01 -0.22413651324E+02  0.23701284815E+02  0.51100000000E-03 0.  1.
         12    1    4    4    0    0  0.12530168590E+02 -0.15009775061E+01 -0.35883687347E+01  0.13120001850E+02  0.00000000000E+00 0. -1.
</event>
<event>
 8    1  0.2504019E-006  0.9118800E+02  0.7816164E-02  0.1184000E+00
        -11   -1    0    0    0    0  0.00000000000E+00  0.00000000000E+00  0.45593999997E+02  0.45594000000E+02  0.51100000000E-03 0.  1.
         11   -1    0    0    0    0 -0.00000000000E+00 -0.00000000000E+00 -0.45593999997E+02  0.45594000000E+02  0.51100000000E-03 0. -1.
         23    2    1    2    0    0 -0.88817841970E-15  0.35527136788E-14  0.00000000000E+00  0.91188000000E+02  0.91188000000E+02 0.  0.
    9900012    2    3    3    0    0  0.56392598075E+01  0.22379368050E+02 -0.28690462746E+02  0.54367081787E+02  0.39999994549E+02 0.  0.
        -12    1    3    3    0    0 -0.56392598075E+01 -0.22379368050E+02  0.28690462746E+02  0.36820918213E+02  0.00000000000E+00 0.  1.
         11    1    4    4    0    0 -0.10796855491E+02  0.15116039812E+01 -0.20989989194E+01  0.11102379557E+02  0.51100000000E-03 0. -1.
        -11    1    4    4    0    0 -0.83583134259E-01  0.14907066022E+02 -0.56700235220E+01  0.15949193413E+02  0.51100000000E-03 0.  1.
         12    1    4    4    0    0  0.16519698433E+02  0.59606980468E+01 -0.20921440305E+02  0.27315508817E+02  0.00000000000E+00 0. -1.
</event>
<event>
 8    1  0.2504019E-006  0.9118800E+02  0.7816164E-02  0.1184000E+00
        -11   -1    0    0    0    0  0.00000000000E+00  0.00000000000E+00  0.45593999997E+02  0.45594000000E+02  0.51100000000E-03 0.  1.
         11   -1    0    0    0    0 -0.00000000000E+00 -0.00000000000E+00 -0.45593999997E+02  0.45594000000E+02  0.51100000000E-03 0. -1.
         23    2    1    2    0    0  0.00000000000E+00  0.00000000000E+00  0.00000000000E+00  0.91188000000E+02  0.91188000000E+02 0.  0.
    9900012    2    3    3    0    0  0.34752720154E+02  0.84639983954E+01  0.87400801141E+01  0.54367084376E+02  0.40000000453E+02 0.  0.
        -12    1    3    3    0    0 -0.34752720154E+02 -0.84639983954E+01 -0.87400801141E+01  0.36820915624E+02  0.00000000000E+00 0.  1.
         11    1    4    4    0    0  0.12724853418E+02  0.96884544988E+01 -0.60163316987E+01  0.17087547877E+02  0.51100000000E-03 0. -1.
        -11    1    4    4    0    0  0.14652980912E+02  0.11509912267E+02  0.12385976449E+02  0.22374099823E+02  0.51100000000E-03 0.  1.
         12    1    4    4    0    0  0.73748858241E+01 -0.12734368370E+02  0.23704353634E+01  0.14905436677E+02  0.00000000000E+00 0. -1.
</event>
<event>
 8    1  0.2504019E-006  0.9118800E+02  0.7816164E-02  0.1184000E+00
        -11   -1    0    0    0    0  0.00000000000E+00  0.00000000000E+00  0.45593999997E+02  0.45594000000E+02  0.51100000000E-03 0. -1.
         11   -1    0    0    0    0 -0.00000000000E+00 -0.00000000000E+00 -0.45593999997E+02  0.45594000000E+02  0.51100000000E-03 0.  1.
         23    2    1    2    0    0  0.71054273576E-14  0.10658141036E-13  0.35527136788E-14  0.91188000000E+02  0.91188000000E+02 0.  0.
    9900012    2    3    3    0    0  0.26569132636E+02  0.18866522383E+02  0.17143967336E+02  0.54367080785E+02  0.39999992265E+02 0.  0.
        -12    1    3    3    0    0 -0.26569132636E+02 -0.18866522383E+02 -0.17143967336E+02  0.36820919215E+02  0.00000000000E+00 0.  1.
         11    1    4    4    0    0  0.75222975812E+01  0.62532627676E+01  0.49602172038E+01  0.10967771474E+02  0.51100000000E-03 0. -1.
        -11    1    4    4    0    0  0.59824894462E+01  0.23732250320E+02  0.64383088917E+01  0.25307344920E+02  0.51100000000E-03 0.  1.
         12    1    4    4    0    0  0.13064345608E+02 -0.11118990705E+02  0.57454412405E+01  0.18091964391E+02  0.00000000000E+00 0. -1.
</event>
<event>
 8    1  0.2504019E-006  0.9118800E+02  0.7816164E-02  0.1184000E+00
        -11   -1    0    0    0    0  0.00000000000E+00  0.00000000000E+00  0.45593999997E+02  0.45594000000E+02  0.51100000000E-03 0.  1.
         11   -1    0    0    0    0 -0.00000000000E+00 -0.00000000000E+00 -0.45593999997E+02  0.45594000000E+02  0.51100000000E-03 0. -1.
         23    2    1    2    0    0  0.66613381478E-15  0.00000000000E+00  0.22204460493E-15  0.91188000000E+02  0.91188000000E+02 0.  0.
    9900012    2    3    3    0    0  0.13831716335E+01  0.36779325284E+02 -0.10712015570E+01  0.54367090113E+02  0.40000013531E+02 0.  0.
         12    1    3    3    0    0 -0.13831716335E+01 -0.36779325284E+02  0.10712015570E+01  0.36820909887E+02  0.00000000000E+00 0. -1.
         11    1    4    4    0    0 -0.68152928195E+01 -0.62701881347E+00  0.36622825357E+01  0.77623245513E+01  0.51100000000E-03 0. -1.
        -11    1    4    4    0    0 -0.62927293399E+01  0.25240209334E+02  0.29571941079E+01  0.26180366824E+02  0.51100000000E-03 0.  1.
         12    1    4    4    0    0  0.14491193793E+02  0.12166134763E+02 -0.76906782006E+01  0.20424398738E+02  0.00000000000E+00 0. -1.
</event>
<event>
 8    1  0.2504019E-006  0.9118800E+02  0.7816164E-02  0.1184000E+00
        -11   -1    0    0    0    0  0.00000000000E+00  0.00000000000E+00  0.45593999997E+02  0.45594000000E+02  0.51100000000E-03 0.  1.
         11   -1    0    0    0    0 -0.00000000000E+00 -0.00000000000E+00 -0.45593999997E+02  0.45594000000E+02  0.51100000000E-03 0. -1.
         23    2    1    2    0    0 -0.31363800446E-14  0.00000000000E+00 -0.17763568394E-14  0.91188000000E+02  0.91188000000E+02 0.  0.
    9900012    2    3    3    0    0  0.21400692236E+00  0.34363241388E+02 -0.13225090614E+02  0.54367066016E+02  0.39999958597E+02 0.  0.
        -12    1    3    3    0    0 -0.21400692236E+00 -0.34363241388E+02  0.13225090614E+02  0.36820933984E+02  0.00000000000E+00 0.  1.
         11    1    4    4    0    0  0.17826687617E+02  0.16342402314E+02 -0.60393679744E+01  0.24926669866E+02  0.51100000000E-03 0. -1.
        -11    1    4    4    0    0 -0.11640331090E+02  0.16317532315E+02 -0.10252649765E+02  0.22513906728E+02  0.51100000000E-03 0.  1.
         12    1    4    4    0    0 -0.59723496051E+01  0.17033067597E+01  0.30669271254E+01  0.69264894222E+01  0.00000000000E+00 0. -1.
</event>
<event>
 8    1  0.2504019E-006  0.9118800E+02  0.7816164E-02  0.1184000E+00
        -11   -1    0    0    0    0  0.00000000000E+00  0.00000000000E+00  0.45593999997E+02  0.45594000000E+02  0.51100000000E-03 0.  1.
         11   -1    0    0    0    0 -0.00000000000E+00 -0.00000000000E+00 -0.45593999997E+02  0.45594000000E+02  0.51100000000E-03 0. -1.
         23    2    1    2    0    0  0.00000000000E+00  0.00000000000E+00  0.00000000000E+00  0.91188000000E+02  0.91188000000E+02 0.  0.
    9900012    2    3    3    0    0  0.11551094739E+02 -0.28875711474E+02 -0.19711555521E+02  0.54367083065E+02  0.39999997464E+02 0.  0.
        -12    1    3    3    0    0 -0.11551094739E+02  0.28875711474E+02  0.19711555521E+02  0.36820916935E+02  0.00000000000E+00 0.  1.
         11    1    4    4    0    0 -0.36598009524E+01 -0.20490881762E+02 -0.15461357220E+02  0.25929210280E+02  0.51100000000E-03 0. -1.
        -11    1    4    4    0    0  0.60785083313E+01 -0.42912701663E+00 -0.12415863715E+02  0.13830621301E+02  0.51100000000E-03 0.  1.
        -12    1    4    4    0    0  0.91323873604E+01 -0.79557026962E+01  0.81656654137E+01  0.14607251485E+02  0.00000000000E+00 0.  1.
</event>
<event>
 8    1  0.2504019E-006  0.9118800E+02  0.7816164E-02  0.1184000E+00
        -11   -1    0    0    0    0  0.00000000000E+00  0.00000000000E+00  0.45593999997E+02  0.45594000000E+02  0.51100000000E-03 0. -1.
         11   -1    0    0    0    0 -0.00000000000E+00 -0.00000000000E+00 -0.45593999997E+02  0.45594000000E+02  0.51100000000E-03 0.  1.
         23    2    1    2    0    0  0.00000000000E+00 -0.66613381478E-15 -0.71054273576E-14  0.91188000000E+02  0.91188000000E+02 0.  0.
    9900012    2    3    3    0    0 -0.14695085861E+02 -0.11320944996E+01 -0.33742455528E+02  0.54367075359E+02  0.39999979895E+02 0.  0.
         12    1    3    3    0    0  0.14695085861E+02  0.11320944996E+01  0.33742455528E+02  0.36820924641E+02  0.00000000000E+00 0. -1.
         11    1    4    4    0    0 -0.63971052642E+01  0.74787702213E+01 -0.14507109023E+01  0.99478400754E+01  0.51100000000E-03 0. -1.
        -11    1    4    4    0    0  0.55214674030E+01  0.70165185495E+01 -0.55882642111E+01  0.10533130209E+02  0.51100000000E-03 0.  1.
        -12    1    4    4    0    0 -0.13819448000E+02 -0.15627383270E+02 -0.26703480414E+02  0.33886105075E+02  0.00000000000E+00 0.  1.
</event>
<event>
 8    1  0.2504019E-006  0.9118800E+02  0.7816164E-02  0.1184000E+00
        -11   -1    0    0    0    0  0.00000000000E+00  0.00000000000E+00  0.45593999997E+02  0.45594000000E+02  0.51100000000E-03 0. -1.
         11   -1    0    0    0    0 -0.00000000000E+00 -0.00000000000E+00 -0.45593999997E+02  0.45594000000E+02  0.51100000000E-03 0.  1.
         23    2    1    2    0    0  0.00000000000E+00  0.00000000000E+00 -0.17763568394E-14  0.91188000000E+02  0.91188000000E+02 0.  0.
    9900012    2    3    3    0    0  0.35383293025E+02 -0.59951087042E+01  0.82376696046E+01  0.54367109812E+02  0.40000058439E+02 0.  0.
         12    1    3    3    0    0 -0.35383293025E+02  0.59951087042E+01 -0.82376696046E+01  0.36820890188E+02  0.00000000000E+00 0. -1.
         11    1    4    4    0    0  0.29194366637E+02 -0.13860712697E+02  0.66458247216E+01  0.32993899228E+02  0.51100000000E-03 0. -1.
        -11    1    4    4    0    0  0.71258986441E+00  0.10757029622E+01 -0.81760420003E+01  0.82772328848E+01  0.51100000000E-03 0.  1.
         12    1    4    4    0    0  0.54763365245E+01  0.67899010307E+01  0.97678868834E+01  0.13095977699E+02  0.00000000000E+00 0. -1.
</event>
<event>
 8    1  0.2504019E-006  0.9118800E+02  0.7816164E-02  0.1184000E+00
        -11   -1    0    0    0    0  0.00000000000E+00  0.00000000000E+00  0.45593999997E+02  0.45594000000E+02  0.51100000000E-03 0.  1.
         11   -1    0    0    0    0 -0.00000000000E+00 -0.00000000000E+00 -0.45593999997E+02  0.45594000000E+02  0.51100000000E-03 0. -1.
         23    2    1    2    0    0  0.00000000000E+00  0.00000000000E+00 -0.35527136788E-14  0.91188000000E+02  0.91188000000E+02 0.  0.
    9900012    2    3    3    0    0  0.13579086405E+02 -0.30268138829E+02  0.15975844953E+02  0.54367089668E+02  0.40000012515E+02 0.  0.
        -12    1    3    3    0    0 -0.13579086405E+02  0.30268138829E+02 -0.15975844953E+02  0.36820910332E+02  0.00000000000E+00 0.  1.
         11    1    4    4    0    0  0.37690269658E+01 -0.56037856620E+01 -0.77810354254E+01  0.10303033076E+02  0.51100000000E-03 0. -1.
        -11    1    4    4    0    0  0.15881752710E+02 -0.15787803641E+02  0.24612609281E+02  0.33275596896E+02  0.51100000000E-03 0.  1.
        -12    1    4    4    0    0 -0.60716932699E+01 -0.88765495253E+01 -0.85572890245E+00  0.10788459695E+02  0.00000000000E+00 0.  1.
</event>
<event>
 8    1  0.2504019E-006  0.9118800E+02  0.7816164E-02  0.1184000E+00
        -11   -1    0    0    0    0  0.00000000000E+00  0.00000000000E+00  0.45593999997E+02  0.45594000000E+02  0.51100000000E-03 0.  1.
         11   -1    0    0    0    0 -0.00000000000E+00 -0.00000000000E+00 -0.45593999997E+02  0.45594000000E+02  0.51100000000E-03 0. -1.
         23    2    1    2    0    0  0.00000000000E+00  0.00000000000E+00  0.00000000000E+00  0.91188000000E+02  0.91188000000E+02 0.  0.
    9900012    2    3    3    0    0 -0.51108999784E+01  0.35007295994E+02 -0.10205263807E+02  0.54367089082E+02  0.40000011181E+02 0.  0.
         12    1    3    3    0    0  0.51108999784E+01 -0.35007295994E+02  0.10205263807E+02  0.36820910918E+02  0.00000000000E+00 0. -1.
         11    1    4    4    0    0  0.80384319061E+01  0.41006587228E+01 -0.17657980180E+01  0.91950982796E+01  0.51100000000E-03 0. -1.
        -11    1    4    4    0    0 -0.37845850853E+00  0.25728673212E+01 -0.13443589552E+02  0.13692807506E+02  0.51100000000E-03 0.  1.
        -12    1    4    4    0    0 -0.12770873376E+02  0.28333769950E+02  0.50041237629E+01  0.31479183297E+02  0.00000000000E+00 0.  1.
</event>
<event>
 8    1  0.2504019E-006  0.9118800E+02  0.7816164E-02  0.1184000E+00
        -11   -1    0    0    0    0  0.00000000000E+00  0.00000000000E+00  0.45593999997E+02  0.45594000000E+02  0.51100000000E-03 0. -1.
         11   -1    0    0    0    0 -0.00000000000E+00 -0.00000000000E+00 -0.45593999997E+02  0.45594000000E+02  0.51100000000E-03 0.  1.
         23    2    1    2    0    0 -0.35527136788E-14 -0.35527136788E-14 -0.17763568394E-14  0.91188000000E+02  0.91188000000E+02 0.  0.
    9900012    2    3    3    0    0 -0.30836688757E+02 -0.14911840565E+02  0.13509940628E+02  0.54367043218E+02  0.39999906624E+02 0.  0.
        -12    1    3    3    0    0  0.30836688757E+02  0.14911840565E+02 -0.13509940628E+02  0.36820956782E+02  0.00000000000E+00 0.  1.
         11    1    4    4    0    0 -0.26866857309E+02 -0.24999183624E+02  0.13127836360E+02  0.38975983519E+02  0.51100000000E-03 0. -1.
        -11    1    4    4    0    0 -0.47503393347E+01  0.10708794851E+02 -0.28093783684E+01  0.12047265998E+02  0.51100000000E-03 0.  1.
        -12    1    4    4    0    0  0.78050788652E+00 -0.62145179171E+00  0.31914826373E+01  0.33437937010E+01  0.00000000000E+00 0.  1.
</event>
<event>
 8    1  0.2504019E-006  0.9118800E+02  0.7816164E-02  0.1184000E+00
        -11   -1    0    0    0    0  0.00000000000E+00  0.00000000000E+00  0.45593999997E+02  0.45594000000E+02  0.51100000000E-03 0.  1.
         11   -1    0    0    0    0 -0.00000000000E+00 -0.00000000000E+00 -0.45593999997E+02  0.45594000000E+02  0.51100000000E-03 0. -1.
         23    2    1    2    0    0  0.44408920985E-15  0.00000000000E+00  0.17763568394E-14  0.91188000000E+02  0.91188000000E+02 0.  0.
    9900012    2    3    3    0    0 -0.40222530701E+00 -0.34870428878E+02  0.11818114468E+02  0.54367130579E+02  0.40000105781E+02 0.  0.
        -12    1    3    3    0    0  0.40222530701E+00  0.34870428878E+02 -0.11818114468E+02  0.36820869421E+02  0.00000000000E+00 0.  1.
         11    1    4    4    0    0  0.16486458497E+01 -0.13741304423E+02 -0.83695497179E+01  0.16173770220E+02  0.51100000000E-03 0. -1.
        -11    1    4    4    0    0 -0.66719203217E+01 -0.13920826174E+02 -0.86987507653E+00  0.15461584817E+02  0.51100000000E-03 0.  1.
        -12    1    4    4    0    0  0.46210491650E+01 -0.72082982813E+01  0.21057539263E+02  0.22731775542E+02  0.00000000000E+00 0.  1.
</event>
<event>
 8    1  0.2504019E-006  0.9118800E+02  0.7816164E-02  0.1184000E+00
        -11   -1    0    0    0    0  0.00000000000E+00  0.00000000000E+00  0.45593999997E+02  0.45594000000E+02  0.51100000000E-03 0.  1.
         11   -1    0    0    0    0 -0.00000000000E+00 -0.00000000000E+00 -0.45593999997E+02  0.45594000000E+02  0.51100000000E-03 0. -1.
         23    2    1    2    0    0  0.00000000000E+00  0.00000000000E+00  0.00000000000E+00  0.91188000000E+02  0.91188000000E+02 0.  0.
    9900012    2    3    3    0    0 -0.58736228786E+01  0.15498297374E+02  0.32879834077E+02  0.54367079912E+02  0.39999990275E+02 0.  0.
         12    1    3    3    0    0  0.58736228786E+01 -0.15498297374E+02 -0.32879834077E+02  0.36820920088E+02  0.00000000000E+00 0. -1.
         11    1    4    4    0    0 -0.15916627512E+01 -0.16323985559E+01  0.21016822603E+02  0.21140126489E+02  0.51100000000E-03 0. -1.
        -11    1    4    4    0    0  0.78137978096E+01  0.10326323507E+01  0.10384467106E+02  0.13036829488E+02  0.51100000000E-03 0.  1.
         12    1    4    4    0    0 -0.12095757937E+02  0.16098063579E+02  0.14785443679E+01  0.20190123935E+02  0.00000000000E+00 0. -1.
</event>
<event>
 8    1  0.2504019E-006  0.9118800E+02  0.7816164E-02  0.1184000E+00
        -11   -1    0    0    0    0  0.00000000000E+00  0.00000000000E+00  0.45593999997E+02  0.45594000000E+02  0.51100000000E-03 0.  1.
         11   -1    0    0    0    0 -0.00000000000E+00 -0.00000000000E+00 -0.45593999997E+02  0.45594000000E+02  0.51100000000E-03 0. -1.
         23    2    1    2    0    0  0.35527136788E-14  0.35527136788E-14  0.00000000000E+00  0.91188000000E+02  0.91188000000E+02 0.  0.
    9900012    2    3    3    0    0 -0.20431958814E+02 -0.20271917732E+02  0.22964299311E+02  0.54367154920E+02  0.40000161272E+02 0.  0.
         12    1    3    3    0    0  0.20431958814E+02  0.20271917732E+02 -0.22964299311E+02  0.36820845080E+02  0.00000000000E+00 0. -1.
         11    1    4    4    0    0  0.32160526277E+01 -0.11742590423E+02 -0.33127153791E+01  0.12617666495E+02  0.51100000000E-03 0. -1.
        -11    1    4    4    0    0 -0.86991408127E+01  0.45134119497E+01  0.13522428292E+01  0.98931541602E+01  0.51100000000E-03 0.  1.
         12    1    4    4    0    0 -0.14948870629E+02 -0.13042739259E+02  0.24924771861E+02  0.31856334265E+02  0.00000000000E+00 0. -1.
</event>
<event>
 8    1  0.2504019E-006  0.9118800E+02  0.7816164E-02  0.1184000E+00
        -11   -1    0    0    0    0  0.00000000000E+00  0.00000000000E+00  0.45593999997E+02  0.45594000000E+02  0.51100000000E-03 0.  1.
         11   -1    0    0    0    0 -0.00000000000E+00 -0.00000000000E+00 -0.45593999997E+02  0.45594000000E+02  0.51100000000E-03 0. -1.
         23    2    1    2    0    0  0.00000000000E+00  0.00000000000E+00  0.00000000000E+00  0.91188000000E+02  0.91188000000E+02 0.  0.
    9900012    2    3    3    0    0  0.73540039457E+01  0.27157612303E+02  0.23752053616E+02  0.54367118275E+02  0.40000077731E+02 0.  0.
         12    1    3    3    0    0 -0.73540039457E+01 -0.27157612303E+02 -0.23752053616E+02  0.36820881725E+02  0.00000000000E+00 0. -1.
         11    1    4    4    0    0  0.70459179165E+01 -0.39272824604E+01  0.89440831647E+01  0.12044298681E+02  0.51100000000E-03 0. -1.
        -11    1    4    4    0    0  0.10670964781E+02  0.86328031593E+01  0.45982204874E+00  0.13733397843E+02  0.51100000000E-03 0.  1.
         12    1    4    4    0    0 -0.10362878752E+02  0.22452091604E+02  0.14348148403E+02  0.28589421750E+02  0.00000000000E+00 0. -1.
</event>
<event>
 8    1  0.2504019E-006  0.9118800E+02  0.7816164E-02  0.1184000E+00
        -11   -1    0    0    0    0  0.00000000000E+00  0.00000000000E+00  0.45593999997E+02  0.45594000000E+02  0.51100000000E-03 0.  1.
         11   -1    0    0    0    0 -0.00000000000E+00 -0.00000000000E+00 -0.45593999997E+02  0.45594000000E+02  0.51100000000E-03 0. -1.
         23    2    1    2    0    0  0.17763568394E-14 -0.35527136788E-14  0.00000000000E+00  0.91188000000E+02  0.91188000000E+02 0.  0.
    9900012    2    3    3    0    0 -0.15562665221E+02 -0.17426244194E+02 -0.28458886755E+02  0.54367098723E+02  0.40000033160E+02 0.  0.
        -12    1    3    3    0    0  0.15562665221E+02  0.17426244194E+02  0.28458886755E+02  0.36820901277E+02  0.00000000000E+00 0.  1.
         11    1    4    4    0    0 -0.73300761351E+01 -0.46931528486E+01 -0.52808269099E+01  0.10180512410E+02  0.51100000000E-03 0. -1.
        -11    1    4    4    0    0 -0.20055393780E+02 -0.95200899270E+00 -0.17262895562E+02  0.26478910556E+02  0.51100000000E-03 0.  1.
        -12    1    4    4    0    0  0.11822804694E+02 -0.11781082353E+02 -0.59151642831E+01  0.17707675758E+02  0.00000000000E+00 0.  1.
</event>
<event>
 8    1  0.2504019E-006  0.9118800E+02  0.7816164E-02  0.1184000E+00
        -11   -1    0    0    0    0  0.00000000000E+00  0.00000000000E+00  0.45593999997E+02  0.45594000000E+02  0.51100000000E-03 0.  1.
         11   -1    0    0    0    0 -0.00000000000E+00 -0.00000000000E+00 -0.45593999997E+02  0.45594000000E+02  0.51100000000E-03 0. -1.
         23    2    1    2    0    0  0.00000000000E+00  0.00000000000E+00  0.88817841970E-15  0.91188000000E+02  0.91188000000E+02 0.  0.
    9900012    2    3    3    0    0 -0.31091470136E+02 -0.19490199173E+02  0.30385268308E+01  0.54367081702E+02  0.39999994356E+02 0.  0.
         12    1    3    3    0    0  0.31091470136E+02  0.19490199173E+02 -0.30385268308E+01  0.36820918298E+02  0.00000000000E+00 0. -1.
         11    1    4    4    0    0 -0.11131921523E+02 -0.22926592006E+02  0.23066028230E+00  0.25487281186E+02  0.51100000000E-03 0. -1.
        -11    1    4    4    0    0  0.24614049726E+00 -0.20493604708E+01 -0.58648810274E+01  0.62174989514E+01  0.51100000000E-03 0.  1.
        -12    1    4    4    0    0 -0.20205689109E+02  0.54857533039E+01  0.86727475760E+01  0.22662301565E+02  0.00000000000E+00 0.  1.
</event>
<event>
 8    1  0.2504019E-006  0.9118800E+02  0.7816164E-02  0.1184000E+00
        -11   -1    0    0    0    0  0.00000000000E+00  0.00000000000E+00  0.45593999997E+02  0.45594000000E+02  0.51100000000E-03 0.  1.
         11   -1    0    0    0    0 -0.00000000000E+00 -0.00000000000E+00 -0.45593999997E+02  0.45594000000E+02  0.51100000000E-03 0. -1.
         23    2    1    2    0    0  0.00000000000E+00  0.00000000000E+00  0.15543122345E-14  0.91188000000E+02  0.91188000000E+02 0.  0.
    9900012    2    3    3    0    0  0.32346776161E+02  0.17556882370E+02 -0.11053247856E+01  0.54367084892E+02  0.40000001627E+02 0.  0.
         12    1    3    3    0    0 -0.32346776161E+02 -0.17556882370E+02  0.11053247856E+01  0.36820915108E+02  0.00000000000E+00 0. -1.
         11    1    4    4    0    0 -0.26865181709E+01  0.45567341809E+00  0.43894166135E+01  0.51664297745E+01  0.51100000000E-03 0. -1.
        -11    1    4    4    0    0  0.16351660229E+02  0.10372912265E+02  0.11962695643E+02  0.22761374924E+02  0.51100000000E-03 0.  1.
        -12    1    4    4    0    0  0.18681634102E+02  0.67282966870E+01 -0.17457437042E+02  0.26439280193E+02  0.00000000000E+00 0.  1.
</event>
<event>
 8    1  0.2504019E-006  0.9118800E+02  0.7816164E-02  0.1184000E+00
        -11   -1    0    0    0    0  0.00000000000E+00  0.00000000000E+00  0.45593999997E+02  0.45594000000E+02  0.51100000000E-03 0.  1.
         11   -1    0    0    0    0 -0.00000000000E+00 -0.00000000000E+00 -0.45593999997E+02  0.45594000000E+02  0.51100000000E-03 0. -1.
         23    2    1    2    0    0 -0.71054273576E-14  0.00000000000E+00  0.00000000000E+00  0.91188000000E+02  0.91188000000E+02 0.  0.
    9900012    2    3    3    0    0 -0.32376946119E+02  0.14872812604E+02 -0.92904736059E+01  0.54367080748E+02  0.39999992182E+02 0.  0.
        -12    1    3    3    0    0  0.32376946119E+02 -0.14872812604E+02  0.92904736059E+01  0.36820919252E+02  0.00000000000E+00 0.  1.
         11    1    4    4    0    0 -0.12643360847E+02  0.25734953624E+01  0.19058545289E+01  0.13042612225E+02  0.51100000000E-03 0. -1.
        -11    1    4    4    0    0 -0.83824517694E+00  0.42870513287E+01 -0.18903146846E+02  0.19401299570E+02  0.51100000000E-03 0.  1.
        -12    1    4    4    0    0 -0.18895340094E+02  0.80122659126E+01  0.77068187110E+01  0.21923168954E+02  0.00000000000E+00 0.  1.
</event>
<event>
 8    1  0.2504019E-006  0.9118800E+02  0.7816164E-02  0.1184000E+00
        -11   -1    0    0    0    0  0.00000000000E+00  0.00000000000E+00  0.45593999997E+02  0.45594000000E+02  0.51100000000E-03 0. -1.
         11   -1    0    0    0    0 -0.00000000000E+00 -0.00000000000E+00 -0.45593999997E+02  0.45594000000E+02  0.51100000000E-03 0.  1.
         23    2    1    2    0    0 -0.35527136788E-14  0.26645352591E-14  0.00000000000E+00  0.91188000000E+02  0.91188000000E+02 0.  0.
    9900012    2    3    3    0    0  0.30423947373E+02  0.76113183159E+01  0.19293273956E+02  0.54367093436E+02  0.40000021107E+02 0.  0.
        -12    1    3    3    0    0 -0.30423947373E+02 -0.76113183159E+01 -0.19293273956E+02  0.36820906564E+02  0.00000000000E+00 0.  1.
         11    1    4    4    0    0  0.16300625366E+02 -0.15101605409E+02  0.76253601120E+01  0.23492871054E+02  0.51100000000E-03 0.  1.
        -11    1    4    4    0    0  0.14463108320E+02  0.14933799372E+02  0.81496397013E+01  0.22329722199E+02  0.51100000000E-03 0. -1.
        -12    1    4    4    0    0 -0.33978631409E+00  0.77791243531E+01  0.35182741424E+01  0.85445001833E+01  0.00000000000E+00 0.  1.
</event>
<event>
 8    1  0.2504019E-006  0.9118800E+02  0.7816164E-02  0.1184000E+00
        -11   -1    0    0    0    0  0.00000000000E+00  0.00000000000E+00  0.45593999997E+02  0.45594000000E+02  0.51100000000E-03 0. -1.
         11   -1    0    0    0    0 -0.00000000000E+00 -0.00000000000E+00 -0.45593999997E+02  0.45594000000E+02  0.51100000000E-03 0.  1.
         23    2    1    2    0    0  0.88817841970E-15 -0.35527136788E-14 -0.35527136788E-14  0.91188000000E+02  0.91188000000E+02 0.  0.
    9900012    2    3    3    0    0  0.11918973481E+01 -0.20119056877E+02 -0.30815300539E+02  0.54367084528E+02  0.40000000799E+02 0.  0.
         12    1    3    3    0    0 -0.11918973481E+01  0.20119056877E+02  0.30815300539E+02  0.36820915472E+02  0.00000000000E+00 0. -1.
         11    1    4    4    0    0  0.33835772850E+01 -0.39886999291E+01  0.46073605226E+01  0.69703725592E+01  0.51100000000E-03 0. -1.
        -11    1    4    4    0    0 -0.11257803806E+02  0.63449747651E+00 -0.73294964416E+01  0.13448503706E+02  0.51100000000E-03 0.  1.
        -12    1    4    4    0    0  0.90661238696E+01 -0.16764854424E+02 -0.28093164620E+02  0.33948208262E+02  0.00000000000E+00 0.  1.
</event>
<event>
 8    1  0.2504019E-006  0.9118800E+02  0.7816164E-02  0.1184000E+00
        -11   -1    0    0    0    0  0.00000000000E+00  0.00000000000E+00  0.45593999997E+02  0.45594000000E+02  0.51100000000E-03 0.  1.
         11   -1    0    0    0    0 -0.00000000000E+00 -0.00000000000E+00 -0.45593999997E+02  0.45594000000E+02  0.51100000000E-03 0. -1.
         23    2    1    2    0    0 -0.35527136788E-14  0.00000000000E+00  0.71054273576E-14  0.91188000000E+02  0.91188000000E+02 0.  0.
    9900012    2    3    3    0    0  0.22834530276E+02 -0.16532970326E+02  0.23685961366E+02  0.54367086832E+02  0.40000006050E+02 0.  0.
         12    1    3    3    0    0 -0.22834530276E+02  0.16532970326E+02 -0.23685961366E+02  0.36820913168E+02  0.00000000000E+00 0. -1.
         11    1    4    4    0    0  0.10048390796E+02  0.35771734175E+01  0.91641263997E+00  0.10705425711E+02  0.51100000000E-03 0. -1.
        -11    1    4    4    0    0  0.11333457168E+02 -0.18469178465E+02  0.90565272397E+00  0.21688199825E+02  0.51100000000E-03 0.  1.
        -12    1    4    4    0    0  0.14526823118E+01 -0.16409652786E+01  0.21863896002E+02  0.21973461296E+02  0.00000000000E+00 0.  1.
</event>
<event>
 8    1  0.2504019E-006  0.9118800E+02  0.7816164E-02  0.1184000E+00
        -11   -1    0    0    0    0  0.00000000000E+00  0.00000000000E+00  0.45593999997E+02  0.45594000000E+02  0.51100000000E-03 0. -1.
         11   -1    0    0    0    0 -0.00000000000E+00 -0.00000000000E+00 -0.45593999997E+02  0.45594000000E+02  0.51100000000E-03 0.  1.
         23    2    1    2    0    0  0.00000000000E+00  0.00000000000E+00 -0.71054273576E-14  0.91188000000E+02  0.91188000000E+02 0.  0.
    9900012    2    3    3    0    0  0.23380322758E+02  0.12366414826E+02  0.25616618023E+02  0.54367097962E+02  0.40000031424E+02 0.  0.
        -12    1    3    3    0    0 -0.23380322758E+02 -0.12366414826E+02 -0.25616618023E+02  0.36820902038E+02  0.00000000000E+00 0.  1.
         11    1    4    4    0    0  0.70980122126E+01  0.68312293787E+01  0.21911906039E+02  0.24024551998E+02  0.51100000000E-03 0. -1.
        -11    1    4    4    0    0 -0.10858422767E+01 -0.79965160830E+01  0.15787918347E+01  0.82228892023E+01  0.51100000000E-03 0.  1.
        -12    1    4    4    0    0  0.17368152823E+02  0.13531701530E+02  0.21259201494E+01  0.22119656761E+02  0.00000000000E+00 0.  1.
</event>
<event>
 8    1  0.2504019E-006  0.9118800E+02  0.7816164E-02  0.1184000E+00
        -11   -1    0    0    0    0  0.00000000000E+00  0.00000000000E+00  0.45593999997E+02  0.45594000000E+02  0.51100000000E-03 0.  1.
         11   -1    0    0    0    0 -0.00000000000E+00 -0.00000000000E+00 -0.45593999997E+02  0.45594000000E+02  0.51100000000E-03 0. -1.
         23    2    1    2    0    0  0.00000000000E+00 -0.17763568394E-14  0.00000000000E+00  0.91188000000E+02  0.91188000000E+02 0.  0.
    9900012    2    3    3    0    0  0.17550343023E+02 -0.12603072145E+02 -0.29814890662E+02  0.54367086474E+02  0.40000005234E+02 0.  0.
        -12    1    3    3    0    0 -0.17550343023E+02  0.12603072145E+02  0.29814890662E+02  0.36820913526E+02  0.00000000000E+00 0.  1.
         11    1    4    4    0    0  0.27543296732E+00 -0.21290473914E+02 -0.18523411250E+02  0.28221922461E+02  0.51100000000E-03 0. -1.
        -11    1    4    4    0    0  0.10227522960E+02  0.82438068390E+01 -0.13410806874E+02  0.18772648145E+02  0.51100000000E-03 0.  1.
         12    1    4    4    0    0  0.70473870955E+01  0.44359492939E+00  0.21193274620E+01  0.73725158681E+01  0.00000000000E+00 0. -1.
</event>
<event>
 8    1  0.2504019E-006  0.9118800E+02  0.7816164E-02  0.1184000E+00
        -11   -1    0    0    0    0  0.00000000000E+00  0.00000000000E+00  0.45593999997E+02  0.45594000000E+02  0.51100000000E-03 0.  1.
         11   -1    0    0    0    0 -0.00000000000E+00 -0.00000000000E+00 -0.45593999997E+02  0.45594000000E+02  0.51100000000E-03 0. -1.
         23    2    1    2    0    0  0.00000000000E+00 -0.44408920985E-15  0.35527136788E-14  0.91188000000E+02  0.91188000000E+02 0.  0.
    9900012    2    3    3    0    0 -0.29413012939E+02  0.39901825494E+01 -0.21788382946E+02  0.54367074994E+02  0.39999979063E+02 0.  0.
        -12    1    3    3    0    0  0.29413012939E+02 -0.39901825494E+01  0.21788382946E+02  0.36820925006E+02  0.00000000000E+00 0.  1.
         11    1    4    4    0    0 -0.41054468835E+01 -0.10580689518E+02  0.21040644587E+01  0.11542650142E+02  0.51100000000E-03 0. -1.
        -11    1    4    4    0    0  0.25827717031E+01  0.42950459142E+01 -0.70847433338E+01  0.86782323915E+01  0.51100000000E-03 0.  1.
        -12    1    4    4    0    0 -0.27890337758E+02  0.10275826153E+02 -0.16807704071E+02  0.34146192460E+02  0.00000000000E+00 0.  1.
</event>
<event>
 8    1  0.2504019E-006  0.9118800E+02  0.7816164E-02  0.1184000E+00
        -11   -1    0    0    0    0  0.00000000000E+00  0.00000000000E+00  0.45593999997E+02  0.45594000000E+02  0.51100000000E-03 0.  1.
         11   -1    0    0    0    0 -0.00000000000E+00 -0.00000000000E+00 -0.45593999997E+02  0.45594000000E+02  0.51100000000E-03 0. -1.
         23    2    1    2    0    0  0.00000000000E+00  0.71054273576E-14 -0.35527136788E-14  0.91188000000E+02  0.91188000000E+02 0.  0.
    9900012    2    3    3    0    0  0.20051705516E+01 -0.34266149624E+02  0.13326312285E+02  0.54367077712E+02  0.39999985260E+02 0.  0.
         12    1    3    3    0    0 -0.20051705516E+01  0.34266149624E+02 -0.13326312285E+02  0.36820922288E+02  0.00000000000E+00 0. -1.
         11    1    4    4    0    0  0.81162768995E+01 -0.63237515089E+01 -0.33573851323E+01  0.10822930243E+02  0.51100000000E-03 0. -1.
        -11    1    4    4    0    0 -0.67254940351E+00  0.48735778845E+00  0.14492253588E+02  0.14516034398E+02  0.51100000000E-03 0.  1.
         12    1    4    4    0    0 -0.54385569445E+01 -0.28429755904E+02  0.21914438289E+01  0.29028113071E+02  0.00000000000E+00 0. -1.
</event>
<event>
 8    1  0.2504019E-006  0.9118800E+02  0.7816164E-02  0.1184000E+00
        -11   -1    0    0    0    0  0.00000000000E+00  0.00000000000E+00  0.45593999997E+02  0.45594000000E+02  0.51100000000E-03 0.  1.
         11   -1    0    0    0    0 -0.00000000000E+00 -0.00000000000E+00 -0.45593999997E+02  0.45594000000E+02  0.51100000000E-03 0. -1.
         23    2    1    2    0    0  0.00000000000E+00 -0.44408920985E-15  0.00000000000E+00  0.91188000000E+02  0.91188000000E+02 0.  0.
    9900012    2    3    3    0    0  0.29380409102E+02  0.36878457792E+01  0.21885442936E+02  0.54367064950E+02  0.39999956166E+02 0.  0.
         12    1    3    3    0    0 -0.29380409102E+02 -0.36878457792E+01 -0.21885442936E+02  0.36820935050E+02  0.00000000000E+00 0. -1.
         11    1    4    4    0    0  0.16923551004E+01  0.13625588983E+02  0.92283557147E+01  0.16543376027E+02  0.51100000000E-03 0. -1.
        -11    1    4    4    0    0  0.29734530377E+02 -0.11033707254E+02  0.14486991233E+02  0.34867720139E+02  0.51100000000E-03 0.  1.
        -12    1    4    4    0    0 -0.20464763752E+01  0.10959640497E+01 -0.18299040119E+01  0.29559687829E+01  0.00000000000E+00 0.  1.
</event>
<event>
 8    1  0.2504019E-006  0.9118800E+02  0.7816164E-02  0.1184000E+00
        -11   -1    0    0    0    0  0.00000000000E+00  0.00000000000E+00  0.45593999997E+02  0.45594000000E+02  0.51100000000E-03 0.  1.
         11   -1    0    0    0    0 -0.00000000000E+00 -0.00000000000E+00 -0.45593999997E+02  0.45594000000E+02  0.51100000000E-03 0. -1.
         23    2    1    2    0    0  0.00000000000E+00 -0.19984014443E-14  0.71054273576E-14  0.91188000000E+02  0.91188000000E+02 0.  0.
    9900012    2    3    3    0    0 -0.90017737980E+01 -0.15141802855E+01 -0.35671474110E+02  0.54367099161E+02  0.40000034157E+02 0.  0.
        -12    1    3    3    0    0  0.90017737980E+01  0.15141802855E+01  0.35671474110E+02  0.36820900839E+02  0.00000000000E+00 0.  1.
         11    1    4    4    0    0 -0.64525729222E+01  0.12255805281E+02 -0.15463977906E+02  0.20759939146E+02  0.51100000000E-03 0. -1.
        -11    1    4    4    0    0  0.17185054650E+01  0.30775699405E+01 -0.15080572862E+02  0.15487038964E+02  0.51100000000E-03 0.  1.
        -12    1    4    4    0    0 -0.42677063408E+01 -0.16847555507E+02 -0.51269233420E+01  0.18120121051E+02  0.00000000000E+00 0.  1.
</event>
<event>
 8    1  0.2504019E-006  0.9118800E+02  0.7816164E-02  0.1184000E+00
        -11   -1    0    0    0    0  0.00000000000E+00  0.00000000000E+00  0.45593999997E+02  0.45594000000E+02  0.51100000000E-03 0. -1.
         11   -1    0    0    0    0 -0.00000000000E+00 -0.00000000000E+00 -0.45593999997E+02  0.45594000000E+02  0.51100000000E-03 0.  1.
         23    2    1    2    0    0  0.00000000000E+00  0.00000000000E+00 -0.35527136788E-14  0.91188000000E+02  0.91188000000E+02 0.  0.
    9900012    2    3    3    0    0  0.11893518151E+02  0.20141307340E+02  0.28436832538E+02  0.54367061932E+02  0.39999949286E+02 0.  0.
        -12    1    3    3    0    0 -0.11893518151E+02 -0.20141307340E+02 -0.28436832538E+02  0.36820938068E+02  0.00000000000E+00 0.  1.
         11    1    4    4    0    0 -0.71509187461E+00  0.18427475063E+02  0.35071984267E+02  0.39624831536E+02  0.51100000000E-03 0. -1.
        -11    1    4    4    0    0  0.14835634992E+01 -0.87577793788E+00 -0.60623697687E+00  0.18263272396E+01  0.51100000000E-03 0.  1.
         12    1    4    4    0    0  0.11125046526E+02  0.25896102151E+01 -0.60289147512E+01  0.12915903157E+02  0.00000000000E+00 0. -1.
</event>
<event>
 8    1  0.2504019E-006  0.9118800E+02  0.7816164E-02  0.1184000E+00
        -11   -1    0    0    0    0  0.00000000000E+00  0.00000000000E+00  0.45593999997E+02  0.45594000000E+02  0.51100000000E-03 0.  1.
         11   -1    0    0    0    0 -0.00000000000E+00 -0.00000000000E+00 -0.45593999997E+02  0.45594000000E+02  0.51100000000E-03 0. -1.
         23    2    1    2    0    0  0.88817841970E-15  0.00000000000E+00  0.00000000000E+00  0.91188000000E+02  0.91188000000E+02 0.  0.
    9900012    2    3    3    0    0  0.35325222198E+01  0.15516747852E+02 -0.33204318438E+02  0.54367150742E+02  0.40000151746E+02 0.  0.
        -12    1    3    3    0    0 -0.35325222198E+01 -0.15516747852E+02  0.33204318438E+02  0.36820849258E+02  0.00000000000E+00 0.  1.
         11    1    4    4    0    0 -0.97417681820E+01  0.50692997856E+01 -0.17173505192E+01  0.11115266110E+02  0.51100000000E-03 0.  1.
        -11    1    4    4    0    0  0.56435965302E+01 -0.79420970770E+01 -0.10328761879E+02  0.14198958060E+02  0.51100000000E-03 0. -1.
        -12    1    4    4    0    0  0.76306938716E+01  0.18389545143E+02 -0.21158206041E+02  0.29052926572E+02  0.00000000000E+00 0.  1.
</event>
<event>
 8    1  0.2504019E-006  0.9118800E+02  0.7816164E-02  0.1184000E+00
        -11   -1    0    0    0    0  0.00000000000E+00  0.00000000000E+00  0.45593999997E+02  0.45594000000E+02  0.51100000000E-03 0. -1.
         11   -1    0    0    0    0 -0.00000000000E+00 -0.00000000000E+00 -0.45593999997E+02  0.45594000000E+02  0.51100000000E-03 0.  1.
         23    2    1    2    0    0  0.00000000000E+00  0.00000000000E+00 -0.88817841970E-15  0.91188000000E+02  0.91188000000E+02 0.  0.
    9900012    2    3    3    0    0  0.23839857088E+02 -0.27983213962E+02  0.20930951022E+01  0.54367080719E+02  0.39999992115E+02 0.  0.
        -12    1    3    3    0    0 -0.23839857088E+02  0.27983213962E+02 -0.20930951022E+01  0.36820919281E+02  0.00000000000E+00 0.  1.
         11    1    4    4    0    0  0.73266850313E+00 -0.18104569175E+01  0.26440691700E+01  0.32871962859E+01  0.51100000000E-03 0. -1.
        -11    1    4    4    0    0  0.24500530061E+02 -0.36212346674E+01 -0.98407548523E+01  0.26650136399E+02  0.51100000000E-03 0.  1.
        -12    1    4    4    0    0 -0.13933414758E+01 -0.22551522377E+02  0.92897807845E+01  0.24429748034E+02  0.00000000000E+00 0.  1.
</event>
<event>
 8    1  0.2504019E-006  0.9118800E+02  0.7816164E-02  0.1184000E+00
        -11   -1    0    0    0    0  0.00000000000E+00  0.00000000000E+00  0.45593999997E+02  0.45594000000E+02  0.51100000000E-03 0. -1.
         11   -1    0    0    0    0 -0.00000000000E+00 -0.00000000000E+00 -0.45593999997E+02  0.45594000000E+02  0.51100000000E-03 0.  1.
         23    2    1    2    0    0  0.17763568394E-14 -0.35527136788E-14  0.00000000000E+00  0.91188000000E+02  0.91188000000E+02 0.  0.
    9900012    2    3    3    0    0 -0.14553698134E+02  0.22715943515E+02  0.25059023770E+02  0.54367097086E+02  0.40000029426E+02 0.  0.
        -12    1    3    3    0    0  0.14553698134E+02 -0.22715943515E+02 -0.25059023770E+02  0.36820902914E+02  0.00000000000E+00 0.  1.
         11    1    4    4    0    0  0.54957701952E+01  0.10995380259E+02  0.23892761497E+02  0.26869423687E+02  0.51100000000E-03 0. -1.
        -11    1    4    4    0    0 -0.12680558285E+02  0.14795908821E+02  0.68659175166E+00  0.19498381593E+02  0.51100000000E-03 0.  1.
         12    1    4    4    0    0 -0.73689100438E+01 -0.30753455652E+01  0.47967052139E+00  0.79992918054E+01  0.00000000000E+00 0. -1.
</event>
<event>
 8    1  0.2504019E-006  0.9118800E+02  0.7816164E-02  0.1184000E+00
        -11   -1    0    0    0    0  0.00000000000E+00  0.00000000000E+00  0.45593999997E+02  0.45594000000E+02  0.51100000000E-03 0. -1.
         11   -1    0    0    0    0 -0.00000000000E+00 -0.00000000000E+00 -0.45593999997E+02  0.45594000000E+02  0.51100000000E-03 0.  1.
         23    2    1    2    0    0 -0.35527136788E-14  0.00000000000E+00  0.71054273576E-14  0.91188000000E+02  0.91188000000E+02 0.  0.
    9900012    2    3    3    0    0  0.14204128864E+02  0.14332689100E+02 -0.30799335054E+02  0.54367050890E+02  0.39999924113E+02 0.  0.
         12    1    3    3    0    0 -0.14204128864E+02 -0.14332689100E+02  0.30799335054E+02  0.36820949110E+02  0.00000000000E+00 0. -1.
         11    1    4    4    0    0  0.15270218984E+02  0.54728336994E+01 -0.21376753668E+02  0.26834624912E+02  0.51100000000E-03 0. -1.
        -11    1    4    4    0    0 -0.10237141720E+02 -0.30832486442E+01 -0.52272915806E+01  0.11900843261E+02  0.51100000000E-03 0.  1.
        -12    1    4    4    0    0  0.91710515993E+01  0.11943104045E+02 -0.41952898049E+01  0.15631582716E+02  0.00000000000E+00 0.  1.
</event>
<event>
 8    1  0.2504019E-006  0.9118800E+02  0.7816164E-02  0.1184000E+00
        -11   -1    0    0    0    0  0.00000000000E+00  0.00000000000E+00  0.45593999997E+02  0.45594000000E+02  0.51100000000E-03 0.  1.
         11   -1    0    0    0    0 -0.00000000000E+00 -0.00000000000E+00 -0.45593999997E+02  0.45594000000E+02  0.51100000000E-03 0. -1.
         23    2    1    2    0    0 -0.35527136788E-14 -0.99920072216E-15 -0.35527136788E-14  0.91188000000E+02  0.91188000000E+02 0.  0.
    9900012    2    3    3    0    0 -0.23226617774E+02 -0.66585138688E+00 -0.28563277807E+02  0.54367082435E+02  0.39999996027E+02 0.  0.
        -12    1    3    3    0    0  0.23226617774E+02  0.66585138688E+00  0.28563277807E+02  0.36820917565E+02  0.00000000000E+00 0.  1.
         11    1    4    4    0    0 -0.12652972499E+02 -0.79946882893E+01 -0.18748076964E+02  0.23989646601E+02  0.51100000000E-03 0. -1.
        -11    1    4    4    0    0 -0.33544889660E+01  0.74410895751E+01 -0.17818296649E+02  0.19598829200E+02  0.51100000000E-03 0.  1.
        -12    1    4    4    0    0 -0.72191563080E+01 -0.11225267272E+00  0.80030958069E+01  0.10778606633E+02  0.00000000000E+00 0.  1.
</event>
<event>
 8    1  0.2504019E-006  0.9118800E+02  0.7816164E-02  0.1184000E+00
        -11   -1    0    0    0    0  0.00000000000E+00  0.00000000000E+00  0.45593999997E+02  0.45594000000E+02  0.51100000000E-03 0.  1.
         11   -1    0    0    0    0 -0.00000000000E+00 -0.00000000000E+00 -0.45593999997E+02  0.45594000000E+02  0.51100000000E-03 0. -1.
         23    2    1    2    0    0  0.00000000000E+00  0.00000000000E+00 -0.17763568394E-14  0.91188000000E+02  0.91188000000E+02 0.  0.
    9900012    2    3    3    0    0  0.16049151229E+02 -0.30033252728E+02 -0.14007406551E+02  0.54367096116E+02  0.40000027215E+02 0.  0.
        -12    1    3    3    0    0 -0.16049151229E+02  0.30033252728E+02  0.14007406551E+02  0.36820903884E+02  0.00000000000E+00 0.  1.
         11    1    4    4    0    0  0.25183099745E+02 -0.25458501658E+02 -0.19960735184E+02  0.40997009266E+02  0.51100000000E-03 0. -1.
        -11    1    4    4    0    0 -0.75816135120E+01 -0.36876575353E+01  0.14894147197E+01  0.85614273349E+01  0.51100000000E-03 0.  1.
        -12    1    4    4    0    0 -0.15523350034E+01 -0.88709353396E+00  0.44639139134E+01  0.48086595146E+01  0.00000000000E+00 0.  1.
</event>
<event>
 8    1  0.2504019E-006  0.9118800E+02  0.7816164E-02  0.1184000E+00
        -11   -1    0    0    0    0  0.00000000000E+00  0.00000000000E+00  0.45593999997E+02  0.45594000000E+02  0.51100000000E-03 0. -1.
         11   -1    0    0    0    0 -0.00000000000E+00 -0.00000000000E+00 -0.45593999997E+02  0.45594000000E+02  0.51100000000E-03 0.  1.
         23    2    1    2    0    0 -0.88817841970E-15  0.00000000000E+00  0.00000000000E+00  0.91188000000E+02  0.91188000000E+02 0.  0.
    9900012    2    3    3    0    0  0.36905103754E+01 -0.34180890046E+02  0.13184322210E+02  0.54367089320E+02  0.40000011723E+02 0.  0.
        -12    1    3    3    0    0 -0.36905103754E+01  0.34180890046E+02 -0.13184322210E+02  0.36820910680E+02  0.00000000000E+00 0.  1.
         11    1    4    4    0    0 -0.72832258694E+01 -0.78132321313E+01  0.15694736535E+01  0.10796074435E+02  0.51100000000E-03 0. -1.
        -11    1    4    4    0    0  0.20367734302E+02 -0.15685853060E+02  0.83219338069E+00  0.25721258385E+02  0.51100000000E-03 0.  1.
        -12    1    4    4    0    0 -0.93939980574E+01 -0.10681804855E+02  0.10782655176E+02  0.17849756500E+02  0.00000000000E+00 0.  1.
</event>
<event>
 8    1  0.2504019E-006  0.9118800E+02  0.7816164E-02  0.1184000E+00
        -11   -1    0    0    0    0  0.00000000000E+00  0.00000000000E+00  0.45593999997E+02  0.45594000000E+02  0.51100000000E-03 0.  1.
         11   -1    0    0    0    0 -0.00000000000E+00 -0.00000000000E+00 -0.45593999997E+02  0.45594000000E+02  0.51100000000E-03 0. -1.
         23    2    1    2    0    0  0.35527136788E-14  0.44408920985E-15  0.00000000000E+00  0.91188000000E+02  0.91188000000E+02 0.  0.
    9900012    2    3    3    0    0 -0.16295824485E+02 -0.35537661868E+01 -0.32826765994E+02  0.54367085897E+02  0.40000003920E+02 0.  0.
        -12    1    3    3    0    0  0.16295824485E+02  0.35537661868E+01  0.32826765994E+02  0.36820914103E+02  0.00000000000E+00 0.  1.
         11    1    4    4    0    0 -0.95020290250E+01  0.57253794502E+01  0.50811661102E+01  0.12201916847E+02  0.51100000000E-03 0.  1.
        -11    1    4    4    0    0 -0.19635280621E+01 -0.59583464407E+01 -0.35117015725E+02  0.35672988780E+02  0.51100000000E-03 0. -1.
        -12    1    4    4    0    0 -0.48302673979E+01 -0.33207991962E+01 -0.27909163783E+01  0.64921802707E+01  0.00000000000E+00 0.  1.
</event>
<event>
 8    1  0.2504019E-006  0.9118800E+02  0.7816164E-02  0.1184000E+00
        -11   -1    0    0    0    0  0.00000000000E+00  0.00000000000E+00  0.45593999997E+02  0.45594000000E+02  0.51100000000E-03 0.  1.
         11   -1    0    0    0    0 -0.00000000000E+00 -0.00000000000E+00 -0.45593999997E+02  0.45594000000E+02  0.51100000000E-03 0. -1.
         23    2    1    2    0    0  0.00000000000E+00 -0.17763568394E-14  0.00000000000E+00  0.91188000000E+02  0.91188000000E+02 0.  0.
    9900012    2    3    3    0    0 -0.27172667631E+02 -0.83204507232E+01 -0.23413614820E+02  0.54367066750E+02  0.39999960270E+02 0.  0.
        -12    1    3    3    0    0  0.27172667631E+02  0.83204507232E+01  0.23413614820E+02  0.36820933250E+02  0.00000000000E+00 0.  1.
         11    1    4    4    0    0  0.36466071523E+01 -0.25887441352E+01 -0.10798447615E+02  0.11687848864E+02  0.51100000000E-03 0. -1.
        -11    1    4    4    0    0 -0.70875159911E+01 -0.97185530040E+01  0.48245817993E+01  0.12959928442E+02  0.51100000000E-03 0.  1.
         12    1    4    4    0    0 -0.23731758793E+02  0.39868464160E+01 -0.17439749005E+02  0.29719289445E+02  0.00000000000E+00 0. -1.
</event>
<event>
 8    1  0.2504019E-006  0.9118800E+02  0.7816164E-02  0.1184000E+00
        -11   -1    0    0    0    0  0.00000000000E+00  0.00000000000E+00  0.45593999997E+02  0.45594000000E+02  0.51100000000E-03 0. -1.
         11   -1    0    0    0    0 -0.00000000000E+00 -0.00000000000E+00 -0.45593999997E+02  0.45594000000E+02  0.51100000000E-03 0.  1.
         23    2    1    2    0    0  0.00000000000E+00  0.00000000000E+00  0.00000000000E+00  0.91188000000E+02  0.91188000000E+02 0.  0.
    9900012    2    3    3    0    0 -0.91094036425E+01 -0.28396768563E+02  0.21596803204E+02  0.54367087353E+02  0.40000007238E+02 0.  0.
        -12    1    3    3    0    0  0.91094036425E+01  0.28396768563E+02 -0.21596803204E+02  0.36820912647E+02  0.00000000000E+00 0.  1.
         11    1    4    4    0    0 -0.83111563251E+01  0.57196898191E+01  0.80863118703E+01  0.12929756804E+02  0.51100000000E-03 0. -1.
        -11    1    4    4    0    0 -0.27219736289E+01 -0.13518487151E+02 -0.39736901099E+01  0.14350918041E+02  0.51100000000E-03 0.  1.
         12    1    4    4    0    0  0.19237263114E+01 -0.20597971232E+02  0.17484181443E+02  0.27086412507E+02  0.00000000000E+00 0. -1.
</event>
<event>
 8    1  0.2504019E-006  0.9118800E+02  0.7816164E-02  0.1184000E+00
        -11   -1    0    0    0    0  0.00000000000E+00  0.00000000000E+00  0.45593999997E+02  0.45594000000E+02  0.51100000000E-03 0.  1.
         11   -1    0    0    0    0 -0.00000000000E+00 -0.00000000000E+00 -0.45593999997E+02  0.45594000000E+02  0.51100000000E-03 0. -1.
         23    2    1    2    0    0  0.00000000000E+00  0.00000000000E+00  0.71054273576E-14  0.91188000000E+02  0.91188000000E+02 0.  0.
    9900012    2    3    3    0    0 -0.93211136823E+01 -0.21613634170E+02  0.28315131684E+02  0.54367095277E+02  0.40000025304E+02 0.  0.
         12    1    3    3    0    0  0.93211136823E+01  0.21613634170E+02 -0.28315131684E+02  0.36820904723E+02  0.00000000000E+00 0. -1.
         11    1    4    4    0    0  0.40033676123E+00  0.57602084744E+01 -0.44144864352E+01  0.72682846627E+01  0.51100000000E-03 0.  1.
        -11    1    4    4    0    0  0.81842750966E+00  0.16991128584E+01 -0.23360261944E+00  0.19003627388E+01  0.51100000000E-03 0. -1.
        -12    1    4    4    0    0 -0.10539877953E+02 -0.29072955503E+02  0.32963220738E+02  0.45198447876E+02  0.00000000000E+00 0.  1.
</event>
<event>
 8    1  0.2504019E-006  0.9118800E+02  0.7816164E-02  0.1184000E+00
        -11   -1    0    0    0    0  0.00000000000E+00  0.00000000000E+00  0.45593999997E+02  0.45594000000E+02  0.51100000000E-03 0. -1.
         11   -1    0    0    0    0 -0.00000000000E+00 -0.00000000000E+00 -0.45593999997E+02  0.45594000000E+02  0.51100000000E-03 0.  1.
         23    2    1    2    0    0 -0.71054273576E-14  0.17763568394E-14 -0.35527136788E-14  0.91188000000E+02  0.91188000000E+02 0.  0.
    9900012    2    3    3    0    0 -0.34781482929E+02  0.10222357611E+02 -0.64444990496E+01  0.54367085863E+02  0.40000003842E+02 0.  0.
         12    1    3    3    0    0  0.34781482929E+02 -0.10222357611E+02  0.64444990496E+01  0.36820914137E+02  0.00000000000E+00 0. -1.
         11    1    4    4    0    0 -0.23406867563E+02  0.14247549151E+02 -0.62466374715E+01  0.28105063350E+02  0.51100000000E-03 0. -1.
        -11    1    4    4    0    0 -0.12131752946E+02 -0.33170541500E+01  0.99650808245E+01  0.16046342695E+02  0.51100000000E-03 0.  1.
        -12    1    4    4    0    0  0.75713757988E+00 -0.70813738997E+00 -0.10162942403E+02  0.10215679819E+02  0.00000000000E+00 0.  1.
</event>
<event>
 8    1  0.2504019E-006  0.9118800E+02  0.7816164E-02  0.1184000E+00
        -11   -1    0    0    0    0  0.00000000000E+00  0.00000000000E+00  0.45593999997E+02  0.45594000000E+02  0.51100000000E-03 0. -1.
         11   -1    0    0    0    0 -0.00000000000E+00 -0.00000000000E+00 -0.45593999997E+02  0.45594000000E+02  0.51100000000E-03 0.  1.
         23    2    1    2    0    0  0.00000000000E+00  0.00000000000E+00  0.00000000000E+00  0.91188000000E+02  0.91188000000E+02 0.  0.
    9900012    2    3    3    0    0 -0.14806636724E+02 -0.23190508755E+02 -0.24469247395E+02  0.54367078564E+02  0.39999987201E+02 0.  0.
         12    1    3    3    0    0  0.14806636724E+02  0.23190508755E+02  0.24469247395E+02  0.36820921436E+02  0.00000000000E+00 0. -1.
         11    1    4    4    0    0 -0.81416671576E+01 -0.19785795469E+02 -0.22806565448E+02  0.31271454623E+02  0.51100000000E-03 0.  1.
        -11    1    4    4    0    0 -0.44388659578E+01 -0.53238331153E+01  0.93829660965E+01  0.11665623989E+02  0.51100000000E-03 0. -1.
         12    1    4    4    0    0 -0.22261036081E+01  0.19191198293E+01 -0.11045648044E+02  0.11429999952E+02  0.00000000000E+00 0. -1.
</event>
<event>
 8    1  0.2504019E-006  0.9118800E+02  0.7816164E-02  0.1184000E+00
        -11   -1    0    0    0    0  0.00000000000E+00  0.00000000000E+00  0.45593999997E+02  0.45594000000E+02  0.51100000000E-03 0.  1.
         11   -1    0    0    0    0 -0.00000000000E+00 -0.00000000000E+00 -0.45593999997E+02  0.45594000000E+02  0.51100000000E-03 0. -1.
         23    2    1    2    0    0 -0.88817841970E-15  0.00000000000E+00  0.00000000000E+00  0.91188000000E+02  0.91188000000E+02 0.  0.
    9900012    2    3    3    0    0 -0.77215014856E+01  0.20250180083E+02 -0.29767247023E+02  0.54367076955E+02  0.39999983534E+02 0.  0.
        -12    1    3    3    0    0  0.77215014856E+01 -0.20250180083E+02  0.29767247023E+02  0.36820923045E+02  0.00000000000E+00 0.  1.
         11    1    4    4    0    0  0.31540188639E+01  0.19475407971E+02 -0.15006267568E+02  0.24787646464E+02  0.51100000000E-03 0.  1.
        -11    1    4    4    0    0 -0.12924506442E+02  0.79652455280E-01 -0.20055744906E+02  0.23859633595E+02  0.51100000000E-03 0. -1.
        -12    1    4    4    0    0  0.20489860929E+01  0.69511965659E+00  0.52947654515E+01  0.57197968961E+01  0.00000000000E+00 0.  1.
</event>
<event>
 8    1  0.2504019E-006  0.9118800E+02  0.7816164E-02  0.1184000E+00
        -11   -1    0    0    0    0  0.00000000000E+00  0.00000000000E+00  0.45593999997E+02  0.45594000000E+02  0.51100000000E-03 0. -1.
         11   -1    0    0    0    0 -0.00000000000E+00 -0.00000000000E+00 -0.45593999997E+02  0.45594000000E+02  0.51100000000E-03 0.  1.
         23    2    1    2    0    0  0.00000000000E+00 -0.35527136788E-14  0.17763568394E-14  0.91188000000E+02  0.91188000000E+02 0.  0.
    9900012    2    3    3    0    0 -0.17709729196E+02  0.28540171054E+02 -0.15086575564E+02  0.54367073420E+02  0.39999975475E+02 0.  0.
         12    1    3    3    0    0  0.17709729196E+02 -0.28540171054E+02  0.15086575564E+02  0.36820926580E+02  0.00000000000E+00 0. -1.
         11    1    4    4    0    0 -0.15016195715E+02  0.37877822815E+01  0.64168707090E+01  0.16763342695E+02  0.51100000000E-03 0. -1.
        -11    1    4    4    0    0  0.47112929122E+00 -0.21449363857E+01 -0.60182689767E+01  0.64064246382E+01  0.51100000000E-03 0.  1.
         12    1    4    4    0    0 -0.31646627721E+01  0.26897325158E+02 -0.15485177297E+02  0.31197306086E+02  0.00000000000E+00 0. -1.
</event>
<event>
 8    1  0.2504019E-006  0.9118800E+02  0.7816164E-02  0.1184000E+00
        -11   -1    0    0    0    0  0.00000000000E+00  0.00000000000E+00  0.45593999997E+02  0.45594000000E+02  0.51100000000E-03 0.  1.
         11   -1    0    0    0    0 -0.00000000000E+00 -0.00000000000E+00 -0.45593999997E+02  0.45594000000E+02  0.51100000000E-03 0. -1.
         23    2    1    2    0    0  0.71054273576E-14  0.00000000000E+00  0.00000000000E+00  0.91188000000E+02  0.91188000000E+02 0.  0.
    9900012    2    3    3    0    0  0.34733907832E+02 -0.75293979323E+01 -0.96250991765E+01  0.54367099405E+02  0.40000034713E+02 0.  0.
        -12    1    3    3    0    0 -0.34733907832E+02  0.75293979323E+01  0.96250991765E+01  0.36820900595E+02  0.00000000000E+00 0.  1.
         11    1    4    4    0    0  0.15477779976E+02 -0.68338293925E+01 -0.17801299314E+02  0.24559095152E+02  0.51100000000E-03 0. -1.
        -11    1    4    4    0    0 -0.37977778100E+01 -0.71703551549E+00  0.53231259642E+01  0.65782160588E+01  0.51100000000E-03 0.  1.
         12    1    4    4    0    0  0.23053905666E+02  0.21466975734E-01  0.28530741735E+01  0.23229788194E+02  0.00000000000E+00 0. -1.
</event>
<event>
 8    1  0.2504019E-006  0.9118800E+02  0.7816164E-02  0.1184000E+00
        -11   -1    0    0    0    0  0.00000000000E+00  0.00000000000E+00  0.45593999997E+02  0.45594000000E+02  0.51100000000E-03 0.  1.
         11   -1    0    0    0    0 -0.00000000000E+00 -0.00000000000E+00 -0.45593999997E+02  0.45594000000E+02  0.51100000000E-03 0. -1.
         23    2    1    2    0    0  0.71054273576E-14 -0.88817841970E-15  0.00000000000E+00  0.91188000000E+02  0.91188000000E+02 0.  0.
    9900012    2    3    3    0    0 -0.34747399517E+02 -0.78011569560E+01 -0.93562647957E+01  0.54367088632E+02  0.40000010154E+02 0.  0.
         12    1    3    3    0    0  0.34747399517E+02  0.78011569560E+01  0.93562647957E+01  0.36820911368E+02  0.00000000000E+00 0. -1.
         11    1    4    4    0    0 -0.21088411546E+01  0.47266290961E+01  0.91433870175E+01  0.10506653132E+02  0.51100000000E-03 0. -1.
        -11    1    4    4    0    0 -0.40712638310E+01  0.28934352373E+00  0.36753686180E+01  0.54924715380E+01  0.51100000000E-03 0.  1.
        -12    1    4    4    0    0 -0.28567294532E+02 -0.12817129576E+02 -0.22175020431E+02  0.38367963961E+02  0.00000000000E+00 0.  1.
</event>
<event>
 8    1  0.2504019E-006  0.9118800E+02  0.7816164E-02  0.1184000E+00
        -11   -1    0    0    0    0  0.00000000000E+00  0.00000000000E+00  0.45593999997E+02  0.45594000000E+02  0.51100000000E-03 0.  1.
         11   -1    0    0    0    0 -0.00000000000E+00 -0.00000000000E+00 -0.45593999997E+02  0.45594000000E+02  0.51100000000E-03 0. -1.
         23    2    1    2    0    0  0.88817841970E-15  0.35527136788E-14  0.00000000000E+00  0.91188000000E+02  0.91188000000E+02 0.  0.
    9900012    2    3    3    0    0  0.63250676313E+01  0.26560127549E+02 -0.24704973763E+02  0.54367046935E+02  0.39999915099E+02 0.  0.
        -12    1    3    3    0    0 -0.63250676313E+01 -0.26560127549E+02  0.24704973763E+02  0.36820953065E+02  0.00000000000E+00 0.  1.
         11    1    4    4    0    0 -0.51627828494E+01  0.13068175875E+01 -0.78430064136E+01  0.94802346396E+01  0.51100000000E-03 0. -1.
        -11    1    4    4    0    0  0.42528101078E+01  0.11188762915E+02 -0.24541277197E+02  0.27304744938E+02  0.51100000000E-03 0.  1.
        -12    1    4    4    0    0  0.72350403729E+01  0.14064547047E+02  0.76793098485E+01  0.17582067358E+02  0.00000000000E+00 0.  1.
</event>
<event>
 8    1  0.2504019E-006  0.9118800E+02  0.7816164E-02  0.1184000E+00
        -11   -1    0    0    0    0  0.00000000000E+00  0.00000000000E+00  0.45593999997E+02  0.45594000000E+02  0.51100000000E-03 0. -1.
         11   -1    0    0    0    0 -0.00000000000E+00 -0.00000000000E+00 -0.45593999997E+02  0.45594000000E+02  0.51100000000E-03 0.  1.
         23    2    1    2    0    0 -0.35527136788E-14  0.88817841970E-15 -0.35527136788E-14  0.91188000000E+02  0.91188000000E+02 0.  0.
    9900012    2    3    3    0    0  0.25816896610E+02 -0.56330542834E+01  0.25642453243E+02  0.54367097520E+02  0.40000030417E+02 0.  0.
        -12    1    3    3    0    0 -0.25816896610E+02  0.56330542834E+01 -0.25642453243E+02  0.36820902480E+02  0.00000000000E+00 0.  1.
         11    1    4    4    0    0  0.13849254868E+02  0.36867399312E+01  0.28710267096E+01  0.14616316443E+02  0.51100000000E-03 0. -1.
        -11    1    4    4    0    0  0.56533958790E+01 -0.19334968657E+02  0.17899837330E+02  0.26948210973E+02  0.51100000000E-03 0.  1.
        -12    1    4    4    0    0  0.63142458625E+01  0.10015174442E+02  0.48715892031E+01  0.12802570105E+02  0.00000000000E+00 0.  1.
</event>
<event>
 8    1  0.2504019E-006  0.9118800E+02  0.7816164E-02  0.1184000E+00
        -11   -1    0    0    0    0  0.00000000000E+00  0.00000000000E+00  0.45593999997E+02  0.45594000000E+02  0.51100000000E-03 0. -1.
         11   -1    0    0    0    0 -0.00000000000E+00 -0.00000000000E+00 -0.45593999997E+02  0.45594000000E+02  0.51100000000E-03 0.  1.
         23    2    1    2    0    0  0.00000000000E+00  0.00000000000E+00 -0.35527136788E-14  0.91188000000E+02  0.91188000000E+02 0.  0.
    9900012    2    3    3    0    0  0.69809562341E+01  0.30212997662E+02  0.19854976924E+02  0.54367094439E+02  0.40000023394E+02 0.  0.
        -12    1    3    3    0    0 -0.69809562341E+01 -0.30212997662E+02 -0.19854976924E+02  0.36820905561E+02  0.00000000000E+00 0.  1.
         11    1    4    4    0    0 -0.21009597042E+01  0.31676224903E+02  0.10141756772E+02  0.33326453254E+02  0.51100000000E-03 0. -1.
        -11    1    4    4    0    0  0.22118417041E+01  0.33063894552E+01 -0.35691812013E+01  0.53444840408E+01  0.51100000000E-03 0.  1.
         12    1    4    4    0    0  0.68700742342E+01 -0.47696166963E+01  0.13282401353E+02  0.15696157145E+02  0.00000000000E+00 0. -1.
</event>
<event>
 8    1  0.2504019E-006  0.9118800E+02  0.7816164E-02  0.1184000E+00
        -11   -1    0    0    0    0  0.00000000000E+00  0.00000000000E+00  0.45593999997E+02  0.45594000000E+02  0.51100000000E-03 0. -1.
         11   -1    0    0    0    0 -0.00000000000E+00 -0.00000000000E+00 -0.45593999997E+02  0.45594000000E+02  0.51100000000E-03 0.  1.
         23    2    1    2    0    0  0.00000000000E+00  0.00000000000E+00  0.00000000000E+00  0.91188000000E+02  0.91188000000E+02 0.  0.
    9900012    2    3    3    0    0 -0.83575404197E+01  0.26567224122E+02 -0.24085539745E+02  0.54367094196E+02  0.40000022838E+02 0.  0.
         12    1    3    3    0    0  0.83575404197E+01 -0.26567224122E+02  0.24085539745E+02  0.36820905804E+02  0.00000000000E+00 0. -1.
         11    1    4    4    0    0 -0.27300707088E+01  0.34339350391E+01  0.70794429609E+01  0.83284877875E+01  0.51100000000E-03 0. -1.
        -11    1    4    4    0    0  0.70059019862E+01 -0.56475316717E+00 -0.62282466036E+01  0.93910949732E+01  0.51100000000E-03 0.  1.
        -12    1    4    4    0    0 -0.12633371697E+02  0.23698042250E+02 -0.24936736103E+02  0.36647511435E+02  0.00000000000E+00 0.  1.
</event>
<event>
 8    1  0.2504019E-006  0.9118800E+02  0.7816164E-02  0.1184000E+00
        -11   -1    0    0    0    0  0.00000000000E+00  0.00000000000E+00  0.45593999997E+02  0.45594000000E+02  0.51100000000E-03 0.  1.
         11   -1    0    0    0    0 -0.00000000000E+00 -0.00000000000E+00 -0.45593999997E+02  0.45594000000E+02  0.51100000000E-03 0. -1.
         23    2    1    2    0    0  0.00000000000E+00 -0.44408920985E-15  0.00000000000E+00  0.91188000000E+02  0.91188000000E+02 0.  0.
    9900012    2    3    3    0    0  0.32687887788E+02  0.10669729375E+01 -0.16915743912E+02  0.54367097901E+02  0.40000031284E+02 0.  0.
        -12    1    3    3    0    0 -0.32687887788E+02 -0.10669729375E+01  0.16915743912E+02  0.36820902099E+02  0.00000000000E+00 0.  1.
         11    1    4    4    0    0  0.79074740512E+01  0.12559862191E+02 -0.31652527719E+01  0.15175543137E+02  0.51100000000E-03 0. -1.
        -11    1    4    4    0    0  0.13428669026E+02 -0.34568284255E+01  0.59393466193E+01  0.15084914753E+02  0.51100000000E-03 0.  1.
        -12    1    4    4    0    0  0.11351744711E+02 -0.80360608282E+01 -0.19689837759E+02  0.24106640011E+02  0.00000000000E+00 0.  1.
</event>
<event>
 8    1  0.2504019E-006  0.9118800E+02  0.7816164E-02  0.1184000E+00
        -11   -1    0    0    0    0  0.00000000000E+00  0.00000000000E+00  0.45593999997E+02  0.45594000000E+02  0.51100000000E-03 0. -1.
         11   -1    0    0    0    0 -0.00000000000E+00 -0.00000000000E+00 -0.45593999997E+02  0.45594000000E+02  0.51100000000E-03 0.  1.
         23    2    1    2    0    0  0.27755575616E-15  0.00000000000E+00  0.88817841970E-15  0.91188000000E+02  0.91188000000E+02 0.  0.
    9900012    2    3    3    0    0  0.34695294237E+00  0.36175735100E+02 -0.68537980489E+01  0.54367099223E+02  0.40000034299E+02 0.  0.
         12    1    3    3    0    0 -0.34695294237E+00 -0.36175735100E+02  0.68537980489E+01  0.36820900777E+02  0.00000000000E+00 0. -1.
         11    1    4    4    0    0 -0.72882437063E+01 -0.55295339294E+01  0.32059542099E+01  0.96939354473E+01  0.51100000000E-03 0. -1.
        -11    1    4    4    0    0  0.11304029380E+01  0.28138931929E+02 -0.91081745159E+01  0.29597907767E+02  0.51100000000E-03 0.  1.
        -12    1    4    4    0    0  0.65047937107E+01  0.13566337100E+02 -0.95157774295E+00  0.15075256008E+02  0.00000000000E+00 0.  1.
</event>
<event>
 8    1  0.2504019E-006  0.9118800E+02  0.7816164E-02  0.1184000E+00
        -11   -1    0    0    0    0  0.00000000000E+00  0.00000000000E+00  0.45593999997E+02  0.45594000000E+02  0.51100000000E-03 0.  1.
         11   -1    0    0    0    0 -0.00000000000E+00 -0.00000000000E+00 -0.45593999997E+02  0.45594000000E+02  0.51100000000E-03 0. -1.
         23    2    1    2    0    0 -0.35527136788E-14 -0.61062266354E-15  0.00000000000E+00  0.91188000000E+02  0.91188000000E+02 0.  0.
    9900012    2    3    3    0    0  0.24639723540E+02 -0.25189884459E+00  0.27360216250E+02  0.54367341907E+02  0.40000587540E+02 0.  0.
         12    1    3    3    0    0 -0.24639723540E+02  0.25189884459E+00 -0.27360216250E+02  0.36820658093E+02  0.00000000000E+00 0. -1.
         11    1    4    4    0    0 -0.31845873343E+01 -0.37996487380E+00 -0.27191823805E+01  0.42047500371E+01  0.51100000000E-03 0. -1.
        -11    1    4    4    0    0  0.18626603005E+02  0.85692285768E+01  0.31513653738E+02  0.37596441189E+02  0.51100000000E-03 0.  1.
        -12    1    4    4    0    0  0.91977078701E+01 -0.84411625476E+01 -0.14342551073E+01  0.12566150681E+02  0.00000000000E+00 0.  1.
</event>
<event>
 8    1  0.2504019E-006  0.9118800E+02  0.7816164E-02  0.1184000E+00
        -11   -1    0    0    0    0  0.00000000000E+00  0.00000000000E+00  0.45593999997E+02  0.45594000000E+02  0.51100000000E-03 0.  1.
         11   -1    0    0    0    0 -0.00000000000E+00 -0.00000000000E+00 -0.45593999997E+02  0.45594000000E+02  0.51100000000E-03 0. -1.
         23    2    1    2    0    0  0.00000000000E+00 -0.88817841970E-15  0.71054273576E-14  0.91188000000E+02  0.91188000000E+02 0.  0.
    9900012    2    3    3    0    0  0.29297786343E+01 -0.78795927371E+01 -0.35848415110E+02  0.54367075916E+02  0.39999981165E+02 0.  0.
        -12    1    3    3    0    0 -0.29297786343E+01  0.78795927371E+01  0.35848415110E+02  0.36820924084E+02  0.00000000000E+00 0.  1.
         11    1    4    4    0    0 -0.46663439198E+01  0.88397273390E+01 -0.28137903583E+02  0.29860628984E+02  0.51100000000E-03 0. -1.
        -11    1    4    4    0    0  0.22526746487E+01 -0.11173499220E+02 -0.11263988741E+02  0.16024951498E+02  0.51100000000E-03 0.  1.
        -12    1    4    4    0    0  0.53434479054E+01 -0.55458208562E+01  0.35534772141E+01  0.84814954340E+01  0.00000000000E+00 0.  1.
</event>
<event>
 8    1  0.2504019E-006  0.9118800E+02  0.7816164E-02  0.1184000E+00
        -11   -1    0    0    0    0  0.00000000000E+00  0.00000000000E+00  0.45593999997E+02  0.45594000000E+02  0.51100000000E-03 0. -1.
         11   -1    0    0    0    0 -0.00000000000E+00 -0.00000000000E+00 -0.45593999997E+02  0.45594000000E+02  0.51100000000E-03 0.  1.
         23    2    1    2    0    0 -0.35527136788E-14  0.00000000000E+00  0.00000000000E+00  0.91188000000E+02  0.91188000000E+02 0.  0.
    9900012    2    3    3    0    0 -0.30311874480E+02 -0.14450028902E+02 -0.15105149268E+02  0.54367100987E+02  0.40000038319E+02 0.  0.
         12    1    3    3    0    0  0.30311874480E+02  0.14450028902E+02  0.15105149268E+02  0.36820899013E+02  0.00000000000E+00 0. -1.
         11    1    4    4    0    0 -0.42219765040E+01  0.26268548943E+01  0.52988857918E+01  0.72666115303E+01  0.51100000000E-03 0. -1.
        -11    1    4    4    0    0 -0.24711911817E+02 -0.33864543559E+01 -0.33175678591E+01  0.25162529990E+02  0.51100000000E-03 0.  1.
        -12    1    4    4    0    0 -0.13779861587E+01 -0.13690429440E+02 -0.17086467201E+02  0.21937959466E+02  0.00000000000E+00 0.  1.
</event>
<event>
 8    1  0.2504019E-006  0.9118800E+02  0.7816164E-02  0.1184000E+00
        -11   -1    0    0    0    0  0.00000000000E+00  0.00000000000E+00  0.45593999997E+02  0.45594000000E+02  0.51100000000E-03 0. -1.
         11   -1    0    0    0    0 -0.00000000000E+00 -0.00000000000E+00 -0.45593999997E+02  0.45594000000E+02  0.51100000000E-03 0.  1.
         23    2    1    2    0    0  0.17763568394E-14  0.00000000000E+00  0.00000000000E+00  0.91188000000E+02  0.91188000000E+02 0.  0.
    9900012    2    3    3    0    0 -0.11984659360E+02  0.33735848070E+02  0.86046753375E+01  0.54367082811E+02  0.39999996884E+02 0.  0.
        -12    1    3    3    0    0  0.11984659360E+02 -0.33735848070E+02 -0.86046753375E+01  0.36820917189E+02  0.00000000000E+00 0.  1.
         11    1    4    4    0    0 -0.10250870746E+02  0.79763828701E+01 -0.45247947840E+01  0.13754155839E+02  0.51100000000E-03 0. -1.
        -11    1    4    4    0    0 -0.98998096007E+01  0.21880547838E+02 -0.77435947328E+00  0.24028404789E+02  0.51100000000E-03 0.  1.
         12    1    4    4    0    0  0.81660209862E+01  0.38789173617E+01  0.13903829595E+02  0.16584522183E+02  0.00000000000E+00 0. -1.
</event>
<event>
 8    1  0.2504019E-006  0.9118800E+02  0.7816164E-02  0.1184000E+00
        -11   -1    0    0    0    0  0.00000000000E+00  0.00000000000E+00  0.45593999997E+02  0.45594000000E+02  0.51100000000E-03 0.  1.
         11   -1    0    0    0    0 -0.00000000000E+00 -0.00000000000E+00 -0.45593999997E+02  0.45594000000E+02  0.51100000000E-03 0. -1.
         23    2    1    2    0    0  0.35527136788E-14 -0.17763568394E-14  0.00000000000E+00  0.91188000000E+02  0.91188000000E+02 0.  0.
    9900012    2    3    3    0    0 -0.25968552139E+02 -0.12274041550E+02 -0.23038254479E+02  0.54367096078E+02  0.40000027130E+02 0.  0.
        -12    1    3    3    0    0  0.25968552139E+02  0.12274041550E+02  0.23038254479E+02  0.36820903922E+02  0.00000000000E+00 0.  1.
         11    1    4    4    0    0 -0.37624708176E+01  0.84962338840E+01 -0.45282217612E+01  0.10336680775E+02  0.51100000000E-03 0. -1.
        -11    1    4    4    0    0 -0.27929152282E+02 -0.14966042585E+02 -0.13353718951E+02  0.34385197221E+02  0.51100000000E-03 0.  1.
        -12    1    4    4    0    0  0.57230709608E+01 -0.58042328493E+01 -0.51563137668E+01  0.96452180822E+01  0.00000000000E+00 0.  1.
</event>
<event>
 8    1  0.2504019E-006  0.9118800E+02  0.7816164E-02  0.1184000E+00
        -11   -1    0    0    0    0  0.00000000000E+00  0.00000000000E+00  0.45593999997E+02  0.45594000000E+02  0.51100000000E-03 0.  1.
         11   -1    0    0    0    0 -0.00000000000E+00 -0.00000000000E+00 -0.45593999997E+02  0.45594000000E+02  0.51100000000E-03 0. -1.
         23    2    1    2    0    0  0.17763568394E-14  0.00000000000E+00  0.00000000000E+00  0.91188000000E+02  0.91188000000E+02 0.  0.
    9900012    2    3    3    0    0 -0.14620648312E+02  0.27066499770E+01 -0.33685160307E+02  0.54367091048E+02  0.40000015661E+02 0.  0.
        -12    1    3    3    0    0  0.14620648312E+02 -0.27066499770E+01  0.33685160307E+02  0.36820908952E+02  0.00000000000E+00 0.  1.
         11    1    4    4    0    0 -0.45356467659E+01 -0.28895507911E+01 -0.31679474505E+02  0.32132704531E+02  0.51100000000E-03 0. -1.
        -11    1    4    4    0    0 -0.14763514864E+02  0.13428595350E+01 -0.44150847973E+01  0.15467954515E+02  0.51100000000E-03 0.  1.
         12    1    4    4    0    0  0.46785133173E+01  0.42533412331E+01  0.24093989949E+01  0.67664320009E+01  0.00000000000E+00 0. -1.
</event>
<event>
 8    1  0.2504019E-006  0.9118800E+02  0.7816164E-02  0.1184000E+00
        -11   -1    0    0    0    0  0.00000000000E+00  0.00000000000E+00  0.45593999997E+02  0.45594000000E+02  0.51100000000E-03 0. -1.
         11   -1    0    0    0    0 -0.00000000000E+00 -0.00000000000E+00 -0.45593999997E+02  0.45594000000E+02  0.51100000000E-03 0.  1.
         23    2    1    2    0    0 -0.88817841970E-15  0.00000000000E+00  0.00000000000E+00  0.91188000000E+02  0.91188000000E+02 0.  0.
    9900012    2    3    3    0    0  0.43820292135E+01  0.19447124278E+02  0.30957825792E+02  0.54367084742E+02  0.40000001285E+02 0.  0.
        -12    1    3    3    0    0 -0.43820292135E+01 -0.19447124278E+02 -0.30957825792E+02  0.36820915258E+02  0.00000000000E+00 0.  1.
         11    1    4    4    0    0  0.96856718253E+01  0.19036201889E+02  0.12584554183E+02  0.24790325236E+02  0.51100000000E-03 0. -1.
        -11    1    4    4    0    0 -0.86994041336E+01 -0.89458855187E+01  0.13853320581E+02  0.18644650476E+02  0.51100000000E-03 0.  1.
        -12    1    4    4    0    0  0.33957615217E+01  0.93568079081E+01  0.45199510279E+01  0.10932109030E+02  0.00000000000E+00 0.  1.
</event>
<event>
 8    1  0.2504019E-006  0.9118800E+02  0.7816164E-02  0.1184000E+00
        -11   -1    0    0    0    0  0.00000000000E+00  0.00000000000E+00  0.45593999997E+02  0.45594000000E+02  0.51100000000E-03 0.  1.
         11   -1    0    0    0    0 -0.00000000000E+00 -0.00000000000E+00 -0.45593999997E+02  0.45594000000E+02  0.51100000000E-03 0. -1.
         23    2    1    2    0    0 -0.88817841970E-15  0.00000000000E+00 -0.71054273576E-14  0.91188000000E+02  0.91188000000E+02 0.  0.
    9900012    2    3    3    0    0  0.78600140172E+01  0.16893081130E+02  0.31758840522E+02  0.54367082552E+02  0.39999996294E+02 0.  0.
         12    1    3    3    0    0 -0.78600140172E+01 -0.16893081130E+02 -0.31758840522E+02  0.36820917448E+02  0.00000000000E+00 0. -1.
         11    1    4    4    0    0  0.18179704979E+02  0.11763027687E+02  0.26369831793E+01  0.21813394372E+02  0.51100000000E-03 0. -1.
        -11    1    4    4    0    0  0.11129573702E+00 -0.17744694672E+01  0.60879854114E+01  0.63422941639E+01  0.51100000000E-03 0.  1.
         12    1    4    4    0    0 -0.10430986698E+02  0.69045229103E+01  0.23033871932E+02  0.26211394016E+02  0.00000000000E+00 0. -1.
</event>
<event>
 8    1  0.2504019E-006  0.9118800E+02  0.7816164E-02  0.1184000E+00
        -11   -1    0    0    0    0  0.00000000000E+00  0.00000000000E+00  0.45593999997E+02  0.45594000000E+02  0.51100000000E-03 0.  1.
         11   -1    0    0    0    0 -0.00000000000E+00 -0.00000000000E+00 -0.45593999997E+02  0.45594000000E+02  0.51100000000E-03 0. -1.
         23    2    1    2    0    0  0.35527136788E-14  0.35527136788E-14 -0.35527136788E-14  0.91188000000E+02  0.91188000000E+02 0.  0.
    9900012    2    3    3    0    0  0.31294518756E+02  0.10214175387E+02 -0.16496065816E+02  0.54366858377E+02  0.39999485239E+02 0.  0.
         12    1    3    3    0    0 -0.31294518756E+02 -0.10214175387E+02  0.16496065816E+02  0.36821141623E+02  0.00000000000E+00 0. -1.
         11    1    4    4    0    0 -0.56520693167E+01 -0.58812884632E+01 -0.34089843236E+01  0.88406230510E+01  0.51100000000E-03 0. -1.
        -11    1    4    4    0    0  0.13774169670E+02  0.13970832604E+01  0.23474803491E+01  0.14042444801E+02  0.51100000000E-03 0.  1.
        -12    1    4    4    0    0  0.23172418403E+02  0.14698380590E+02 -0.15434561841E+02  0.31483790525E+02  0.00000000000E+00 0.  1.
</event>
<event>
 8    1  0.2504019E-006  0.9118800E+02  0.7816164E-02  0.1184000E+00
        -11   -1    0    0    0    0  0.00000000000E+00  0.00000000000E+00  0.45593999997E+02  0.45594000000E+02  0.51100000000E-03 0.  1.
         11   -1    0    0    0    0 -0.00000000000E+00 -0.00000000000E+00 -0.45593999997E+02  0.45594000000E+02  0.51100000000E-03 0. -1.
         23    2    1    2    0    0 -0.17763568394E-14  0.00000000000E+00  0.00000000000E+00  0.91188000000E+02  0.91188000000E+02 0.  0.
    9900012    2    3    3    0    0  0.60403446027E+01  0.93506011983E+01 -0.35097881851E+02  0.54367070950E+02  0.39999969845E+02 0.  0.
        -12    1    3    3    0    0 -0.60403446027E+01 -0.93506011983E+01  0.35097881851E+02  0.36820929050E+02  0.00000000000E+00 0.  1.
         11    1    4    4    0    0  0.12921198502E+02  0.15923263554E+01 -0.12912758857E+02  0.18336635884E+02  0.51100000000E-03 0. -1.
        -11    1    4    4    0    0  0.62300776451E+01 -0.56054802675E+01 -0.22386771886E+01  0.86745001187E+01  0.51100000000E-03 0.  1.
         12    1    4    4    0    0 -0.13110931545E+02  0.13363755110E+02 -0.19946445805E+02  0.27355934948E+02  0.00000000000E+00 0. -1.
</event>
<event>
 8    1  0.2504019E-006  0.9118800E+02  0.7816164E-02  0.1184000E+00
        -11   -1    0    0    0    0  0.00000000000E+00  0.00000000000E+00  0.45593999997E+02  0.45594000000E+02  0.51100000000E-03 0. -1.
         11   -1    0    0    0    0 -0.00000000000E+00 -0.00000000000E+00 -0.45593999997E+02  0.45594000000E+02  0.51100000000E-03 0.  1.
         23    2    1    2    0    0 -0.71054273576E-14 -0.88817841970E-15  0.88817841970E-15  0.91188000000E+02  0.91188000000E+02 0.  0.
    9900012    2    3    3    0    0 -0.36068299797E+02  0.58905067811E+01 -0.44899948777E+01  0.54367076949E+02  0.39999983520E+02 0.  0.
         12    1    3    3    0    0  0.36068299797E+02 -0.58905067811E+01  0.44899948777E+01  0.36820923051E+02  0.00000000000E+00 0. -1.
         11    1    4    4    0    0 -0.26154095330E+01  0.21703843991E+01  0.45512327776E+01  0.56801985460E+01  0.51100000000E-03 0. -1.
        -11    1    4    4    0    0  0.30926908205E+01 -0.86330603339E+01 -0.29425235698E+01  0.96308313484E+01  0.51100000000E-03 0.  1.
        -12    1    4    4    0    0 -0.36545581084E+02  0.12353182716E+02 -0.60987040856E+01  0.39056047054E+02  0.00000000000E+00 0.  1.
</event>
<event>
 8    1  0.2504019E-006  0.9118800E+02  0.7816164E-02  0.1184000E+00
        -11   -1    0    0    0    0  0.00000000000E+00  0.00000000000E+00  0.45593999997E+02  0.45594000000E+02  0.51100000000E-03 0.  1.
         11   -1    0    0    0    0 -0.00000000000E+00 -0.00000000000E+00 -0.45593999997E+02  0.45594000000E+02  0.51100000000E-03 0. -1.
         23    2    1    2    0    0  0.00000000000E+00 -0.17763568394E-14  0.00000000000E+00  0.91188000000E+02  0.91188000000E+02 0.  0.
    9900012    2    3    3    0    0  0.18215509623E+02  0.13675072864E+02 -0.28930398276E+02  0.54367077238E+02  0.39999984179E+02 0.  0.
        -12    1    3    3    0    0 -0.18215509623E+02 -0.13675072864E+02  0.28930398276E+02  0.36820922762E+02  0.00000000000E+00 0.  1.
         11    1    4    4    0    0  0.13872962953E+01  0.10572952959E+02 -0.14034246134E+02  0.17625889767E+02  0.51100000000E-03 0. -1.
        -11    1    4    4    0    0 -0.72290729982E+01  0.29411220223E+01 -0.91127053477E+01  0.11997962084E+02  0.51100000000E-03 0.  1.
         12    1    4    4    0    0  0.24057286326E+02  0.16099788272E+00 -0.57834467943E+01  0.24743225386E+02  0.00000000000E+00 0. -1.
</event>
<event>
 8    1  0.2504019E-006  0.9118800E+02  0.7816164E-02  0.1184000E+00
        -11   -1    0    0    0    0  0.00000000000E+00  0.00000000000E+00  0.45593999997E+02  0.45594000000E+02  0.51100000000E-03 0.  1.
         11   -1    0    0    0    0 -0.00000000000E+00 -0.00000000000E+00 -0.45593999997E+02  0.45594000000E+02  0.51100000000E-03 0. -1.
         23    2    1    2    0    0 -0.35527136788E-14  0.35527136788E-14  0.00000000000E+00  0.91188000000E+02  0.91188000000E+02 0.  0.
    9900012    2    3    3    0    0  0.18827283273E+02 -0.23938551746E+02  0.20694652067E+02  0.54366953310E+02  0.39999701661E+02 0.  0.
         12    1    3    3    0    0 -0.18827283273E+02  0.23938551746E+02 -0.20694652067E+02  0.36821046690E+02  0.00000000000E+00 0. -1.
         11    1    4    4    0    0 -0.52667494074E+01  0.63912676691E+01  0.74387509090E+01  0.11132024393E+02  0.51100000000E-03 0.  1.
        -11    1    4    4    0    0  0.20960603220E+02 -0.28694127613E+02  0.72506887689E+01  0.36266683536E+02  0.51100000000E-03 0. -1.
         12    1    4    4    0    0  0.31334294600E+01 -0.16356918022E+01  0.60052123895E+01  0.69682453814E+01  0.00000000000E+00 0. -1.
</event>
<event>
 8    1  0.2504019E-006  0.9118800E+02  0.7816164E-02  0.1184000E+00
        -11   -1    0    0    0    0  0.00000000000E+00  0.00000000000E+00  0.45593999997E+02  0.45594000000E+02  0.51100000000E-03 0.  1.
         11   -1    0    0    0    0 -0.00000000000E+00 -0.00000000000E+00 -0.45593999997E+02  0.45594000000E+02  0.51100000000E-03 0. -1.
         23    2    1    2    0    0  0.71054273576E-14  0.00000000000E+00  0.88817841970E-15  0.91188000000E+02  0.91188000000E+02 0.  0.
    9900012    2    3    3    0    0 -0.34690432015E+02  0.10494966515E+02  0.64968652477E+01  0.54367086736E+02  0.40000005832E+02 0.  0.
        -12    1    3    3    0    0  0.34690432015E+02 -0.10494966515E+02 -0.64968652477E+01  0.36820913264E+02  0.00000000000E+00 0.  1.
         11    1    4    4    0    0  0.70435774348E-01  0.99496696162E+01 -0.54008603797E+01  0.11321226955E+02  0.51100000000E-03 0. -1.
        -11    1    4    4    0    0 -0.83611435565E+01 -0.98757405297E+01  0.27789254034E+01  0.13234855467E+02  0.51100000000E-03 0.  1.
         12    1    4    4    0    0 -0.26399724233E+02  0.10421037429E+02  0.91188002239E+01  0.29811004314E+02  0.00000000000E+00 0. -1.
</event>
<event>
 8    1  0.2504019E-006  0.9118800E+02  0.7816164E-02  0.1184000E+00
        -11   -1    0    0    0    0  0.00000000000E+00  0.00000000000E+00  0.45593999997E+02  0.45594000000E+02  0.51100000000E-03 0. -1.
         11   -1    0    0    0    0 -0.00000000000E+00 -0.00000000000E+00 -0.45593999997E+02  0.45594000000E+02  0.51100000000E-03 0.  1.
         23    2    1    2    0    0  0.35527136788E-14  0.00000000000E+00  0.00000000000E+00  0.91188000000E+02  0.91188000000E+02 0.  0.
    9900012    2    3    3    0    0 -0.30744452809E+02 -0.14869564713E+02 -0.13764305548E+02  0.54367062471E+02  0.39999950515E+02 0.  0.
         12    1    3    3    0    0  0.30744452809E+02  0.14869564713E+02  0.13764305548E+02  0.36820937529E+02  0.00000000000E+00 0. -1.
         11    1    4    4    0    0 -0.10924208584E+02 -0.10960036432E+02  0.95352078570E+00  0.15503868354E+02  0.51100000000E-03 0. -1.
        -11    1    4    4    0    0 -0.22929062060E+02 -0.97433328004E+01 -0.25858745390E+01  0.25047178851E+02  0.51100000000E-03 0.  1.
        -12    1    4    4    0    0  0.31088178346E+01  0.58338045194E+01 -0.12131951795E+02  0.13816015267E+02  0.00000000000E+00 0.  1.
</event>
<event>
 8    1  0.2504019E-006  0.9118800E+02  0.7816164E-02  0.1184000E+00
        -11   -1    0    0    0    0  0.00000000000E+00  0.00000000000E+00  0.45593999997E+02  0.45594000000E+02  0.51100000000E-03 0. -1.
         11   -1    0    0    0    0 -0.00000000000E+00 -0.00000000000E+00 -0.45593999997E+02  0.45594000000E+02  0.51100000000E-03 0.  1.
         23    2    1    2    0    0  0.44408920985E-15  0.00000000000E+00 -0.88817841970E-15  0.91188000000E+02  0.91188000000E+02 0.  0.
    9900012    2    3    3    0    0 -0.35536290802E+01 -0.36525279815E+02  0.30093697495E+01  0.54367073185E+02  0.39999974940E+02 0.  0.
        -12    1    3    3    0    0  0.35536290802E+01  0.36525279815E+02 -0.30093697495E+01  0.36820926815E+02  0.00000000000E+00 0.  1.
         11    1    4    4    0    0 -0.79916778526E+01 -0.46609922869E+01  0.51854680776E+01  0.10605698631E+02  0.51100000000E-03 0. -1.
        -11    1    4    4    0    0  0.71497520507E+01 -0.25409241078E+01 -0.10687847982E+02  0.13107453775E+02  0.51100000000E-03 0.  1.
        -12    1    4    4    0    0 -0.27117032782E+01 -0.29323363421E+02  0.85117496544E+01  0.30653920779E+02  0.00000000000E+00 0.  1.
</event>
<event>
 8    1  0.2504019E-006  0.9118800E+02  0.7816164E-02  0.1184000E+00
        -11   -1    0    0    0    0  0.00000000000E+00  0.00000000000E+00  0.45593999997E+02  0.45594000000E+02  0.51100000000E-03 0.  1.
         11   -1    0    0    0    0 -0.00000000000E+00 -0.00000000000E+00 -0.45593999997E+02  0.45594000000E+02  0.51100000000E-03 0. -1.
         23    2    1    2    0    0  0.00000000000E+00  0.22204460493E-15  0.00000000000E+00  0.91188000000E+02  0.91188000000E+02 0.  0.
    9900012    2    3    3    0    0  0.22187663360E+02  0.77524497352E+00 -0.29374943279E+02  0.54367072488E+02  0.39999973352E+02 0.  0.
        -12    1    3    3    0    0 -0.22187663360E+02 -0.77524497352E+00  0.29374943279E+02  0.36820927512E+02  0.00000000000E+00 0.  1.
         11    1    4    4    0    0  0.62036363807E+01  0.93235808183E+01 -0.10745211530E+02  0.15520110654E+02  0.51100000000E-03 0. -1.
        -11    1    4    4    0    0  0.19263164933E+02 -0.83256916967E+01 -0.24414309222E+02  0.32193868368E+02  0.51100000000E-03 0.  1.
        -12    1    4    4    0    0 -0.32791379535E+01 -0.22264414811E+00  0.57845774727E+01  0.66530934664E+01  0.00000000000E+00 0.  1.
</event>
<event>
 8    1  0.2504019E-006  0.9118800E+02  0.7816164E-02  0.1184000E+00
        -11   -1    0    0    0    0  0.00000000000E+00  0.00000000000E+00  0.45593999997E+02  0.45594000000E+02  0.51100000000E-03 0. -1.
         11   -1    0    0    0    0 -0.00000000000E+00 -0.00000000000E+00 -0.45593999997E+02  0.45594000000E+02  0.51100000000E-03 0.  1.
         23    2    1    2    0    0  0.00000000000E+00  0.00000000000E+00  0.17763568394E-14  0.91188000000E+02  0.91188000000E+02 0.  0.
    9900012    2    3    3    0    0  0.25861430889E+02  0.22573168885E+02 -0.13319831460E+02  0.54367089212E+02  0.40000011475E+02 0.  0.
         12    1    3    3    0    0 -0.25861430889E+02 -0.22573168885E+02  0.13319831460E+02  0.36820910788E+02  0.00000000000E+00 0. -1.
         11    1    4    4    0    0 -0.21953035782E+01  0.36701964594E+00 -0.36451328649E+01  0.42709548212E+01  0.51100000000E-03 0. -1.
        -11    1    4    4    0    0  0.32645421587E+02  0.91802871838E+01 -0.12233158084E+02  0.36050677946E+02  0.51100000000E-03 0.  1.
         12    1    4    4    0    0 -0.45886871194E+01  0.13025862056E+02  0.25584594897E+01  0.14045456445E+02  0.00000000000E+00 0. -1.
</event>
<event>
 8    1  0.2504019E-006  0.9118800E+02  0.7816164E-02  0.1184000E+00
        -11   -1    0    0    0    0  0.00000000000E+00  0.00000000000E+00  0.45593999997E+02  0.45594000000E+02  0.51100000000E-03 0.  1.
         11   -1    0    0    0    0 -0.00000000000E+00 -0.00000000000E+00 -0.45593999997E+02  0.45594000000E+02  0.51100000000E-03 0. -1.
         23    2    1    2    0    0  0.00000000000E+00  0.88817841970E-15  0.71054273576E-14  0.91188000000E+02  0.91188000000E+02 0.  0.
    9900012    2    3    3    0    0  0.14647086877E+02  0.57683603870E+01  0.33286157814E+02  0.54367089670E+02  0.40000012521E+02 0.  0.
         12    1    3    3    0    0 -0.14647086877E+02 -0.57683603870E+01 -0.33286157814E+02  0.36820910330E+02  0.00000000000E+00 0. -1.
         11    1    4    4    0    0  0.50317547390E+01  0.20706798679E+02  0.13053104114E+02  0.24989469674E+02  0.51100000000E-03 0. -1.
        -11    1    4    4    0    0  0.12601996879E+01 -0.62504947713E+01  0.14880452207E+02  0.16189028578E+02  0.51100000000E-03 0.  1.
         12    1    4    4    0    0  0.83551324499E+01 -0.86879435209E+01  0.53526014924E+01  0.13188591419E+02  0.00000000000E+00 0. -1.
</event>
<event>
 8    1  0.2504019E-006  0.9118800E+02  0.7816164E-02  0.1184000E+00
        -11   -1    0    0    0    0  0.00000000000E+00  0.00000000000E+00  0.45593999997E+02  0.45594000000E+02  0.51100000000E-03 0. -1.
         11   -1    0    0    0    0 -0.00000000000E+00 -0.00000000000E+00 -0.45593999997E+02  0.45594000000E+02  0.51100000000E-03 0.  1.
         23    2    1    2    0    0  0.17763568394E-14  0.00000000000E+00 -0.17763568394E-14  0.91188000000E+02  0.91188000000E+02 0.  0.
    9900012    2    3    3    0    0  0.13198393230E+02  0.32436046411E+02 -0.11379182342E+02  0.54367075495E+02  0.39999980205E+02 0.  0.
         12    1    3    3    0    0 -0.13198393230E+02 -0.32436046411E+02  0.11379182342E+02  0.36820924505E+02  0.00000000000E+00 0. -1.
         11    1    4    4    0    0  0.96233371782E+00 -0.61702051810E+01 -0.19562188505E+01  0.65440286225E+01  0.51100000000E-03 0. -1.
        -11    1    4    4    0    0  0.15076249066E+02  0.16029179399E+02 -0.11756286776E+02  0.24948710531E+02  0.51100000000E-03 0.  1.
         12    1    4    4    0    0 -0.28401895540E+01  0.22577072193E+02  0.23333232844E+01  0.22874336342E+02  0.00000000000E+00 0. -1.
</event>
<event>
 8    1  0.2504019E-006  0.9118800E+02  0.7816164E-02  0.1184000E+00
        -11   -1    0    0    0    0  0.00000000000E+00  0.00000000000E+00  0.45593999997E+02  0.45594000000E+02  0.51100000000E-03 0.  1.
         11   -1    0    0    0    0 -0.00000000000E+00 -0.00000000000E+00 -0.45593999997E+02  0.45594000000E+02  0.51100000000E-03 0. -1.
         23    2    1    2    0    0  0.14210854715E-13  0.27755575616E-15  0.13322676296E-14  0.91188000000E+02  0.91188000000E+02 0.  0.
    9900012    2    3    3    0    0  0.36646239240E+02  0.33779278037E+00  0.35664345657E+01  0.54367076465E+02  0.39999982418E+02 0.  0.
        -12    1    3    3    0    0 -0.36646239240E+02 -0.33779278037E+00 -0.35664345657E+01  0.36820923535E+02  0.00000000000E+00 0.  1.
         11    1    4    4    0    0  0.16412698868E+02 -0.84252807775E+01 -0.74173295235E+01  0.19884134828E+02  0.51100000000E-03 0. -1.
        -11    1    4    4    0    0  0.89399537346E+01 -0.26807789213E+01 -0.60003197882E+01  0.11095638162E+02  0.51100000000E-03 0.  1.
        -12    1    4    4    0    0  0.11293586637E+02  0.11443852479E+02  0.16984083877E+02  0.23387303476E+02  0.00000000000E+00 0.  1.
</event>
<event>
 8    1  0.2504019E-006  0.9118800E+02  0.7816164E-02  0.1184000E+00
        -11   -1    0    0    0    0  0.00000000000E+00  0.00000000000E+00  0.45593999997E+02  0.45594000000E+02  0.51100000000E-03 0. -1.
         11   -1    0    0    0    0 -0.00000000000E+00 -0.00000000000E+00 -0.45593999997E+02  0.45594000000E+02  0.51100000000E-03 0.  1.
         23    2    1    2    0    0  0.88817841970E-15  0.88817841970E-15  0.00000000000E+00  0.91188000000E+02  0.91188000000E+02 0.  0.
    9900012    2    3    3    0    0  0.77484967200E+01 -0.29004716407E+01  0.35879354169E+02  0.54367082131E+02  0.39999995333E+02 0.  0.
        -12    1    3    3    0    0 -0.77484967200E+01  0.29004716407E+01 -0.35879354169E+02  0.36820917869E+02  0.00000000000E+00 0.  1.
         11    1    4    4    0    0  0.10022862291E+02 -0.50540576439E+01  0.22713849667E+01  0.11452530598E+02  0.51100000000E-03 0. -1.
        -11    1    4    4    0    0 -0.13176800185E+02  0.34216986631E+01  0.10038471999E+02  0.16914697904E+02  0.51100000000E-03 0.  1.
         12    1    4    4    0    0  0.10902434615E+02 -0.12681126599E+01  0.23569497204E+02  0.25999853628E+02  0.00000000000E+00 0. -1.
</event>
<event>
 8    1  0.2504019E-006  0.9118800E+02  0.7816164E-02  0.1184000E+00
        -11   -1    0    0    0    0  0.00000000000E+00  0.00000000000E+00  0.45593999997E+02  0.45594000000E+02  0.51100000000E-03 0. -1.
         11   -1    0    0    0    0 -0.00000000000E+00 -0.00000000000E+00 -0.45593999997E+02  0.45594000000E+02  0.51100000000E-03 0.  1.
         23    2    1    2    0    0  0.17763568394E-14  0.35527136788E-14  0.00000000000E+00  0.91188000000E+02  0.91188000000E+02 0.  0.
    9900012    2    3    3    0    0  0.15626399854E+02 -0.26733207092E+02  0.19923143057E+02  0.54367077102E+02  0.39999983869E+02 0.  0.
        -12    1    3    3    0    0 -0.15626399854E+02  0.26733207092E+02 -0.19923143057E+02  0.36820922898E+02  0.00000000000E+00 0.  1.
         11    1    4    4    0    0  0.22849080165E+02 -0.97840159015E+01  0.11846221190E+02  0.27534349244E+02  0.51100000000E-03 0. -1.
        -11    1    4    4    0    0 -0.27859296594E+01 -0.15270145950E+02 -0.20430368745E+01  0.15656077457E+02  0.51100000000E-03 0.  1.
         12    1    4    4    0    0 -0.44367506518E+01 -0.16790452402E+01  0.10119958741E+02  0.11176650401E+02  0.00000000000E+00 0. -1.
</event>
<event>
 8    1  0.2504019E-006  0.9118800E+02  0.7816164E-02  0.1184000E+00
        -11   -1    0    0    0    0  0.00000000000E+00  0.00000000000E+00  0.45593999997E+02  0.45594000000E+02  0.51100000000E-03 0.  1.
         11   -1    0    0    0    0 -0.00000000000E+00 -0.00000000000E+00 -0.45593999997E+02  0.45594000000E+02  0.51100000000E-03 0. -1.
         23    2    1    2    0    0 -0.17763568394E-14 -0.35527136788E-14  0.00000000000E+00  0.91188000000E+02  0.91188000000E+02 0.  0.
    9900012    2    3    3    0    0  0.12644306409E+02  0.30341401573E+02 -0.16592207306E+02  0.54367075551E+02  0.39999980334E+02 0.  0.
         12    1    3    3    0    0 -0.12644306409E+02 -0.30341401573E+02  0.16592207306E+02  0.36820924449E+02  0.00000000000E+00 0. -1.
         11    1    4    4    0    0  0.72372451267E+01  0.15762924468E+02 -0.12331284822E+02  0.21281637400E+02  0.51100000000E-03 0. -1.
        -11    1    4    4    0    0  0.44657178684E+01  0.23436837453E+02 -0.38552164738E+01  0.24167968061E+02  0.51100000000E-03 0.  1.
         12    1    4    4    0    0  0.94134341406E+00 -0.88583603467E+01 -0.40570601000E+00  0.89174700909E+01  0.00000000000E+00 0. -1.
</event>
<event>
 8    1  0.2504019E-006  0.9118800E+02  0.7816164E-02  0.1184000E+00
        -11   -1    0    0    0    0  0.00000000000E+00  0.00000000000E+00  0.45593999997E+02  0.45594000000E+02  0.51100000000E-03 0. -1.
         11   -1    0    0    0    0 -0.00000000000E+00 -0.00000000000E+00 -0.45593999997E+02  0.45594000000E+02  0.51100000000E-03 0.  1.
         23    2    1    2    0    0  0.00000000000E+00  0.22204460493E-15  0.00000000000E+00  0.91188000000E+02  0.91188000000E+02 0.  0.
    9900012    2    3    3    0    0  0.24684318717E+02  0.13152909000E+01  0.27289851001E+02  0.54367061007E+02  0.39999947177E+02 0.  0.
        -12    1    3    3    0    0 -0.24684318717E+02 -0.13152909000E+01 -0.27289851001E+02  0.36820938993E+02  0.00000000000E+00 0.  1.
         11    1    4    4    0    0  0.31178584849E+02 -0.32681476493E+01  0.23490369920E+02  0.39173746585E+02  0.51100000000E-03 0. -1.
        -11    1    4    4    0    0 -0.13819935640E+00 -0.32378022592E+01  0.39558658122E+01  0.51138378070E+01  0.51100000000E-03 0.  1.
        -12    1    4    4    0    0 -0.63560667756E+01  0.78212408085E+01 -0.15638473178E+00  0.10079476615E+02  0.00000000000E+00 0.  1.
</event>
<event>
 8    1  0.2504019E-006  0.9118800E+02  0.7816164E-02  0.1184000E+00
        -11   -1    0    0    0    0  0.00000000000E+00  0.00000000000E+00  0.45593999997E+02  0.45594000000E+02  0.51100000000E-03 0.  1.
         11   -1    0    0    0    0 -0.00000000000E+00 -0.00000000000E+00 -0.45593999997E+02  0.45594000000E+02  0.51100000000E-03 0. -1.
         23    2    1    2    0    0 -0.35527136788E-14  0.35527136788E-14  0.35527136788E-14  0.91188000000E+02  0.91188000000E+02 0.  0.
    9900012    2    3    3    0    0  0.10540671781E+02 -0.29605645617E+02  0.19188007402E+02  0.54367086892E+02  0.40000006189E+02 0.  0.
        -12    1    3    3    0    0 -0.10540671781E+02  0.29605645617E+02 -0.19188007402E+02  0.36820913108E+02  0.00000000000E+00 0.  1.
         11    1    4    4    0    0  0.32556335539E+01  0.13992459726E+01  0.11758235310E+01  0.37335774221E+01  0.51100000000E-03 0. -1.
        -11    1    4    4    0    0 -0.10017027652E+02 -0.59629022745E+01 -0.47886664190E+01  0.12602712916E+02  0.51100000000E-03 0.  1.
         12    1    4    4    0    0  0.17302065879E+02 -0.25041989316E+02  0.22800850290E+02  0.38030796554E+02  0.00000000000E+00 0. -1.
</event>
<event>
 8    1  0.2504019E-006  0.9118800E+02  0.7816164E-02  0.1184000E+00
        -11   -1    0    0    0    0  0.00000000000E+00  0.00000000000E+00  0.45593999997E+02  0.45594000000E+02  0.51100000000E-03 0.  1.
         11   -1    0    0    0    0 -0.00000000000E+00 -0.00000000000E+00 -0.45593999997E+02  0.45594000000E+02  0.51100000000E-03 0. -1.
         23    2    1    2    0    0 -0.17763568394E-14 -0.71054273576E-14  0.44408920985E-15  0.91188000000E+02  0.91188000000E+02 0.  0.
    9900012    2    3    3    0    0  0.11142930508E+02  0.35061451926E+02 -0.15198903159E+01  0.54367076899E+02  0.39999983406E+02 0.  0.
        -12    1    3    3    0    0 -0.11142930508E+02 -0.35061451926E+02  0.15198903159E+01  0.36820923101E+02  0.00000000000E+00 0.  1.
         11    1    4    4    0    0  0.43981866744E+01  0.64475098931E+01 -0.14901732599E+01  0.79457565058E+01  0.51100000000E-03 0. -1.
        -11    1    4    4    0    0 -0.54229894084E+01 -0.62993248277E+01  0.40093985227E+01  0.92285201513E+01  0.51100000000E-03 0.  1.
        -12    1    4    4    0    0  0.12167733242E+02  0.34913266861E+02 -0.40391155787E+01  0.37192800241E+02  0.00000000000E+00 0.  1.
</event>
<event>
 8    1  0.2504019E-006  0.9118800E+02  0.7816164E-02  0.1184000E+00
        -11   -1    0    0    0    0  0.00000000000E+00  0.00000000000E+00  0.45593999997E+02  0.45594000000E+02  0.51100000000E-03 0. -1.
         11   -1    0    0    0    0 -0.00000000000E+00 -0.00000000000E+00 -0.45593999997E+02  0.45594000000E+02  0.51100000000E-03 0.  1.
         23    2    1    2    0    0  0.00000000000E+00 -0.88817841970E-15  0.00000000000E+00  0.91188000000E+02  0.91188000000E+02 0.  0.
    9900012    2    3    3    0    0  0.61140616821E+01  0.70298963055E+01 -0.35622734988E+02  0.54367076053E+02  0.39999981477E+02 0.  0.
         12    1    3    3    0    0 -0.61140616821E+01 -0.70298963055E+01  0.35622734988E+02  0.36820923947E+02  0.00000000000E+00 0. -1.
         11    1    4    4    0    0  0.99635814108E+01  0.66029606072E+01 -0.32776598944E+00  0.11957402482E+02  0.51100000000E-03 0. -1.
        -11    1    4    4    0    0 -0.96058241238E+00  0.11340875435E+02 -0.23335517888E+02  0.25963138669E+02  0.51100000000E-03 0.  1.
        -12    1    4    4    0    0 -0.28889373163E+01 -0.10913939737E+02 -0.11959451110E+02  0.16446534901E+02  0.00000000000E+00 0.  1.
</event>
<event>
 8    1  0.2504019E-006  0.9118800E+02  0.7816164E-02  0.1184000E+00
        -11   -1    0    0    0    0  0.00000000000E+00  0.00000000000E+00  0.45593999997E+02  0.45594000000E+02  0.51100000000E-03 0.  1.
         11   -1    0    0    0    0 -0.00000000000E+00 -0.00000000000E+00 -0.45593999997E+02  0.45594000000E+02  0.51100000000E-03 0. -1.
         23    2    1    2    0    0 -0.17763568394E-14 -0.88817841970E-15  0.00000000000E+00  0.91188000000E+02  0.91188000000E+02 0.  0.
    9900012    2    3    3    0    0 -0.94899610451E+01  0.21393301893E+01  0.35512579466E+02  0.54367090252E+02  0.40000013848E+02 0.  0.
         12    1    3    3    0    0  0.94899610451E+01 -0.21393301893E+01 -0.35512579466E+02  0.36820909748E+02  0.00000000000E+00 0. -1.
         11    1    4    4    0    0  0.49254812441E+01 -0.39282239468E+00  0.27479854339E+02  0.27920549237E+02  0.51100000000E-03 0. -1.
        -11    1    4    4    0    0 -0.11158004629E+01 -0.71381430787E+01 -0.15851058413E+01  0.73966653347E+01  0.51100000000E-03 0.  1.
         12    1    4    4    0    0 -0.13299641826E+02  0.96702956627E+01  0.96178309683E+01  0.19049875681E+02  0.00000000000E+00 0. -1.
</event>
<event>
 8    1  0.2504019E-006  0.9118800E+02  0.7816164E-02  0.1184000E+00
        -11   -1    0    0    0    0  0.00000000000E+00  0.00000000000E+00  0.45593999997E+02  0.45594000000E+02  0.51100000000E-03 0. -1.
         11   -1    0    0    0    0 -0.00000000000E+00 -0.00000000000E+00 -0.45593999997E+02  0.45594000000E+02  0.51100000000E-03 0.  1.
         23    2    1    2    0    0  0.00000000000E+00  0.00000000000E+00 -0.35527136788E-14  0.91188000000E+02  0.91188000000E+02 0.  0.
    9900012    2    3    3    0    0  0.27209071091E+02 -0.18106167037E+02 -0.16959196402E+02  0.54367066049E+02  0.39999958672E+02 0.  0.
         12    1    3    3    0    0 -0.27209071091E+02  0.18106167037E+02  0.16959196402E+02  0.36820933951E+02  0.00000000000E+00 0. -1.
         11    1    4    4    0    0  0.23700572860E+02 -0.66439296542E+01 -0.20943012844E+02  0.32318241635E+02  0.51100000000E-03 0. -1.
        -11    1    4    4    0    0  0.54179543878E+01 -0.66415689554E+01 -0.62287528910E+01  0.10595377802E+02  0.51100000000E-03 0.  1.
         12    1    4    4    0    0 -0.19094561567E+01 -0.48206684279E+01  0.10212569333E+02  0.11453446612E+02  0.00000000000E+00 0. -1.
</event>
<event>
 8    1  0.2504019E-006  0.9118800E+02  0.7816164E-02  0.1184000E+00
        -11   -1    0    0    0    0  0.00000000000E+00  0.00000000000E+00  0.45593999997E+02  0.45594000000E+02  0.51100000000E-03 0. -1.
         11   -1    0    0    0    0 -0.00000000000E+00 -0.00000000000E+00 -0.45593999997E+02  0.45594000000E+02  0.51100000000E-03 0.  1.
         23    2    1    2    0    0  0.00000000000E+00  0.17763568394E-14  0.35527136788E-14  0.91188000000E+02  0.91188000000E+02 0.  0.
    9900012    2    3    3    0    0 -0.28045557884E+02 -0.15897090703E+02 -0.17790715951E+02  0.54367076819E+02  0.39999983224E+02 0.  0.
         12    1    3    3    0    0  0.28045557884E+02  0.15897090703E+02  0.17790715951E+02  0.36820923181E+02  0.00000000000E+00 0. -1.
         11    1    4    4    0    0 -0.38893853176E+01 -0.61515240848E+01  0.12447013502E+02  0.14418623793E+02  0.51100000000E-03 0. -1.
        -11    1    4    4    0    0 -0.10009357074E+02 -0.39007521959E+01 -0.13785192293E+02  0.17476688003E+02  0.51100000000E-03 0.  1.
         12    1    4    4    0    0 -0.14146815493E+02 -0.58448144225E+01 -0.16452537161E+02  0.22471765023E+02  0.00000000000E+00 0. -1.
</event>
<event>
 8    1  0.2504019E-006  0.9118800E+02  0.7816164E-02  0.1184000E+00
        -11   -1    0    0    0    0  0.00000000000E+00  0.00000000000E+00  0.45593999997E+02  0.45594000000E+02  0.51100000000E-03 0.  1.
         11   -1    0    0    0    0 -0.00000000000E+00 -0.00000000000E+00 -0.45593999997E+02  0.45594000000E+02  0.51100000000E-03 0. -1.
         23    2    1    2    0    0 -0.88817841970E-15  0.71054273576E-14  0.00000000000E+00  0.91188000000E+02  0.91188000000E+02 0.  0.
    9900012    2    3    3    0    0  0.45857118593E+01 -0.33723260318E+02 -0.14053201401E+02  0.54367088694E+02  0.40000010297E+02 0.  0.
        -12    1    3    3    0    0 -0.45857118593E+01  0.33723260318E+02  0.14053201401E+02  0.36820911306E+02  0.00000000000E+00 0.  1.
         11    1    4    4    0    0  0.51225705425E+01 -0.12853778578E+02 -0.22698078630E+02  0.26583136128E+02  0.51100000000E-03 0. -1.
        -11    1    4    4    0    0  0.18674423432E+01 -0.15716784185E+01 -0.39294518407E+01  0.46258086845E+01  0.51100000000E-03 0.  1.
        -12    1    4    4    0    0 -0.24043010263E+01 -0.19297803322E+02  0.12574329069E+02  0.23158143881E+02  0.00000000000E+00 0.  1.
</event>
<event>
 8    1  0.2504019E-006  0.9118800E+02  0.7816164E-02  0.1184000E+00
        -11   -1    0    0    0    0  0.00000000000E+00  0.00000000000E+00  0.45593999997E+02  0.45594000000E+02  0.51100000000E-03 0. -1.
         11   -1    0    0    0    0 -0.00000000000E+00 -0.00000000000E+00 -0.45593999997E+02  0.45594000000E+02  0.51100000000E-03 0.  1.
         23    2    1    2    0    0  0.00000000000E+00 -0.35527136788E-14  0.35527136788E-14  0.91188000000E+02  0.91188000000E+02 0.  0.
    9900012    2    3    3    0    0  0.58899657092E+01  0.31897080973E+02 -0.17425963323E+02  0.54367086535E+02  0.40000005373E+02 0.  0.
         12    1    3    3    0    0 -0.58899657092E+01 -0.31897080973E+02  0.17425963323E+02  0.36820913465E+02  0.00000000000E+00 0. -1.
         11    1    4    4    0    0  0.20963207232E+02  0.80943315257E+01 -0.42528308351E+01  0.22870523183E+02  0.51100000000E-03 0. -1.
        -11    1    4    4    0    0 -0.18259641826E+01  0.77673115725E+00 -0.14627952745E+01  0.24652031890E+01  0.51100000000E-03 0.  1.
        -12    1    4    4    0    0 -0.13247277340E+02  0.23026018291E+02 -0.11710337214E+02  0.29031360163E+02  0.00000000000E+00 0.  1.
</event>
<event>
 8    1  0.2504019E-006  0.9118800E+02  0.7816164E-02  0.1184000E+00
        -11   -1    0    0    0    0  0.00000000000E+00  0.00000000000E+00  0.45593999997E+02  0.45594000000E+02  0.51100000000E-03 0.  1.
         11   -1    0    0    0    0 -0.00000000000E+00 -0.00000000000E+00 -0.45593999997E+02  0.45594000000E+02  0.51100000000E-03 0. -1.
         23    2    1    2    0    0  0.00000000000E+00  0.17763568394E-14  0.00000000000E+00  0.91188000000E+02  0.91188000000E+02 0.  0.
    9900012    2    3    3    0    0 -0.31587485573E+02 -0.15962012732E+02  0.10159907990E+02  0.54367097978E+02  0.40000031461E+02 0.  0.
         12    1    3    3    0    0  0.31587485573E+02  0.15962012732E+02 -0.10159907990E+02  0.36820902022E+02  0.00000000000E+00 0. -1.
         11    1    4    4    0    0 -0.17970654000E+02 -0.58254159054E+01  0.88455332710E+01  0.20859610130E+02  0.51100000000E-03 0.  1.
        -11    1    4    4    0    0 -0.59130100578E+01 -0.99861443111E+01  0.14294581879E+02  0.18412545655E+02  0.51100000000E-03 0. -1.
         12    1    4    4    0    0 -0.77038215158E+01 -0.15045251568E+00 -0.12980207160E+02  0.15094942193E+02  0.00000000000E+00 0. -1.
</event>
<event>
 8    1  0.2504019E-006  0.9118800E+02  0.7816164E-02  0.1184000E+00
        -11   -1    0    0    0    0  0.00000000000E+00  0.00000000000E+00  0.45593999997E+02  0.45594000000E+02  0.51100000000E-03 0. -1.
         11   -1    0    0    0    0 -0.00000000000E+00 -0.00000000000E+00 -0.45593999997E+02  0.45594000000E+02  0.51100000000E-03 0.  1.
         23    2    1    2    0    0 -0.17763568394E-14  0.35527136788E-14  0.35527136788E-14  0.91188000000E+02  0.91188000000E+02 0.  0.
    9900012    2    3    3    0    0  0.88148566803E+01 -0.26164519938E+02 -0.24361756995E+02  0.54367095533E+02  0.40000025886E+02 0.  0.
         12    1    3    3    0    0 -0.88148566803E+01  0.26164519938E+02  0.24361756995E+02  0.36820904467E+02  0.00000000000E+00 0. -1.
         11    1    4    4    0    0  0.10617590187E+02 -0.95463506526E+01 -0.45723627059E+01  0.14992415854E+02  0.51100000000E-03 0. -1.
        -11    1    4    4    0    0  0.98600579123E+01  0.12178982015E+01 -0.14222487008E+02  0.17348866102E+02  0.51100000000E-03 0.  1.
         12    1    4    4    0    0 -0.11662791418E+02 -0.17836067487E+02 -0.55669072808E+01  0.22025813578E+02  0.00000000000E+00 0. -1.
</event>
<event>
 8    1  0.2504019E-006  0.9118800E+02  0.7816164E-02  0.1184000E+00
        -11   -1    0    0    0    0  0.00000000000E+00  0.00000000000E+00  0.45593999997E+02  0.45594000000E+02  0.51100000000E-03 0.  1.
         11   -1    0    0    0    0 -0.00000000000E+00 -0.00000000000E+00 -0.45593999997E+02  0.45594000000E+02  0.51100000000E-03 0. -1.
         23    2    1    2    0    0  0.00000000000E+00  0.00000000000E+00  0.10547118734E-14  0.91188000000E+02  0.91188000000E+02 0.  0.
    9900012    2    3    3    0    0 -0.14266094020E+02  0.33942357978E+02  0.41853799712E+00  0.54367078260E+02  0.39999986510E+02 0.  0.
        -12    1    3    3    0    0  0.14266094020E+02 -0.33942357978E+02 -0.41853799712E+00  0.36820921740E+02  0.00000000000E+00 0.  1.
         11    1    4    4    0    0 -0.11267398079E+01  0.23475556456E+02 -0.11960414634E+02  0.26370870520E+02  0.51100000000E-03 0. -1.
        -11    1    4    4    0    0 -0.15583863076E+02  0.63198816862E+01  0.24927754516E+01  0.17000341838E+02  0.51100000000E-03 0.  1.
        -12    1    4    4    0    0  0.24445088640E+01  0.41469198362E+01  0.98861771797E+01  0.10995865902E+02  0.00000000000E+00 0.  1.
</event>
<event>
 8    1  0.2504019E-006  0.9118800E+02  0.7816164E-02  0.1184000E+00
        -11   -1    0    0    0    0  0.00000000000E+00  0.00000000000E+00  0.45593999997E+02  0.45594000000E+02  0.51100000000E-03 0. -1.
         11   -1    0    0    0    0 -0.00000000000E+00 -0.00000000000E+00 -0.45593999997E+02  0.45594000000E+02  0.51100000000E-03 0.  1.
         23    2    1    2    0    0  0.00000000000E+00  0.00000000000E+00  0.00000000000E+00  0.91188000000E+02  0.91188000000E+02 0.  0.
    9900012    2    3    3    0    0 -0.32429406898E+02 -0.14667917995E+02 -0.94321665335E+01  0.54367081820E+02  0.39999994626E+02 0.  0.
         12    1    3    3    0    0  0.32429406898E+02  0.14667917995E+02  0.94321665335E+01  0.36820918180E+02  0.00000000000E+00 0. -1.
         11    1    4    4    0    0 -0.65025105128E+01 -0.17788786509E+02 -0.78802768111E+01  0.20513954551E+02  0.51100000000E-03 0. -1.
        -11    1    4    4    0    0 -0.22567412913E+02 -0.55467393353E+01 -0.52903959250E+01  0.23833647060E+02  0.51100000000E-03 0.  1.
         12    1    4    4    0    0 -0.33594834721E+01  0.86676078499E+01  0.37385062026E+01  0.10019480209E+02  0.00000000000E+00 0. -1.
</event>
<event>
 8    1  0.2504019E-006  0.9118800E+02  0.7816164E-02  0.1184000E+00
        -11   -1    0    0    0    0  0.00000000000E+00  0.00000000000E+00  0.45593999997E+02  0.45594000000E+02  0.51100000000E-03 0. -1.
         11   -1    0    0    0    0 -0.00000000000E+00 -0.00000000000E+00 -0.45593999997E+02  0.45594000000E+02  0.51100000000E-03 0.  1.
         23    2    1    2    0    0 -0.17763568394E-14 -0.88817841970E-15  0.00000000000E+00  0.91188000000E+02  0.91188000000E+02 0.  0.
    9900012    2    3    3    0    0  0.12245846891E+02  0.31337415234E+01  0.34583207790E+02  0.54367090681E+02  0.40000014825E+02 0.  0.
        -12    1    3    3    0    0 -0.12245846891E+02 -0.31337415234E+01 -0.34583207790E+02  0.36820909319E+02  0.00000000000E+00 0.  1.
         11    1    4    4    0    0  0.16938904622E+02  0.15340257520E+01  0.15892375887E+02  0.23277614491E+02  0.51100000000E-03 0. -1.
        -11    1    4    4    0    0 -0.45037500848E+01 -0.11183954728E+02  0.92626658746E+01  0.15203999065E+02  0.51100000000E-03 0.  1.
         12    1    4    4    0    0 -0.18930764624E+00  0.12783670500E+02  0.94281660288E+01  0.15885477125E+02  0.00000000000E+00 0. -1.
</event>
<event>
 8    1  0.2504019E-006  0.9118800E+02  0.7816164E-02  0.1184000E+00
        -11   -1    0    0    0    0  0.00000000000E+00  0.00000000000E+00  0.45593999997E+02  0.45594000000E+02  0.51100000000E-03 0.  1.
         11   -1    0    0    0    0 -0.00000000000E+00 -0.00000000000E+00 -0.45593999997E+02  0.45594000000E+02  0.51100000000E-03 0. -1.
         23    2    1    2    0    0 -0.35527136788E-14  0.00000000000E+00  0.00000000000E+00  0.91188000000E+02  0.91188000000E+02 0.  0.
    9900012    2    3    3    0    0  0.24417485859E+02  0.12384656237E+02  0.24620850719E+02  0.54367087248E+02  0.40000006999E+02 0.  0.
         12    1    3    3    0    0 -0.24417485859E+02 -0.12384656237E+02 -0.24620850719E+02  0.36820912752E+02  0.00000000000E+00 0. -1.
         11    1    4    4    0    0  0.25877044543E+02 -0.51091120460E-01  0.11865836564E+02  0.28467913907E+02  0.51100000000E-03 0. -1.
        -11    1    4    4    0    0  0.57031221014E+01 -0.19816168720E+01  0.57671524076E+01  0.83493984385E+01  0.51100000000E-03 0.  1.
         12    1    4    4    0    0 -0.71626807847E+01  0.14417364229E+02  0.69878617466E+01  0.17549774902E+02  0.00000000000E+00 0. -1.
</event>
<event>
 8    1  0.2504019E-006  0.9118800E+02  0.7816164E-02  0.1184000E+00
        -11   -1    0    0    0    0  0.00000000000E+00  0.00000000000E+00  0.45593999997E+02  0.45594000000E+02  0.51100000000E-03 0.  1.
         11   -1    0    0    0    0 -0.00000000000E+00 -0.00000000000E+00 -0.45593999997E+02  0.45594000000E+02  0.51100000000E-03 0. -1.
         23    2    1    2    0    0 -0.88817841970E-15  0.17763568394E-14  0.71054273576E-14  0.91188000000E+02  0.91188000000E+02 0.  0.
    9900012    2    3    3    0    0  0.76604095049E+01  0.14214006028E+02 -0.33091715802E+02  0.54367061719E+02  0.39999948801E+02 0.  0.
        -12    1    3    3    0    0 -0.76604095049E+01 -0.14214006028E+02  0.33091715802E+02  0.36820938281E+02  0.00000000000E+00 0.  1.
         11    1    4    4    0    0  0.68055039086E+01  0.94269513325E+00  0.19296703174E+01  0.71363285630E+01  0.51100000000E-03 0. -1.
        -11    1    4    4    0    0  0.48719408900E+01  0.15950873416E+02 -0.58685029521E+01  0.17680653210E+02  0.51100000000E-03 0.  1.
         12    1    4    4    0    0 -0.40170352937E+01 -0.26795625214E+01 -0.29152883167E+02  0.29550079946E+02  0.00000000000E+00 0. -1.
</event>
<event>
 8    1  0.2504019E-006  0.9118800E+02  0.7816164E-02  0.1184000E+00
        -11   -1    0    0    0    0  0.00000000000E+00  0.00000000000E+00  0.45593999997E+02  0.45594000000E+02  0.51100000000E-03 0. -1.
         11   -1    0    0    0    0 -0.00000000000E+00 -0.00000000000E+00 -0.45593999997E+02  0.45594000000E+02  0.51100000000E-03 0.  1.
         23    2    1    2    0    0  0.17763568394E-14  0.35527136788E-14  0.00000000000E+00  0.91188000000E+02  0.91188000000E+02 0.  0.
    9900012    2    3    3    0    0  0.12889083644E+02  0.24704805008E+02 -0.24069152404E+02  0.54367082506E+02  0.39999996189E+02 0.  0.
        -12    1    3    3    0    0 -0.12889083644E+02 -0.24704805008E+02  0.24069152404E+02  0.36820917494E+02  0.00000000000E+00 0.  1.
         11    1    4    4    0    0  0.11647267410E+01  0.21136637653E+01  0.45011494025E+01  0.51072995896E+01  0.51100000000E-03 0. -1.
        -11    1    4    4    0    0  0.27117703339E+01  0.99959492402E+01  0.55777814150E+01  0.11763687574E+02  0.51100000000E-03 0.  1.
        -12    1    4    4    0    0  0.90125865690E+01  0.12595192002E+02 -0.34148083222E+02  0.37496095343E+02  0.00000000000E+00 0.  1.
</event>
<event>
 8    1  0.2504019E-006  0.9118800E+02  0.7816164E-02  0.1184000E+00
        -11   -1    0    0    0    0  0.00000000000E+00  0.00000000000E+00  0.45593999997E+02  0.45594000000E+02  0.51100000000E-03 0. -1.
         11   -1    0    0    0    0 -0.00000000000E+00 -0.00000000000E+00 -0.45593999997E+02  0.45594000000E+02  0.51100000000E-03 0.  1.
         23    2    1    2    0    0  0.00000000000E+00  0.00000000000E+00  0.00000000000E+00  0.91188000000E+02  0.91188000000E+02 0.  0.
    9900012    2    3    3    0    0 -0.31969933811E+02 -0.34347485663E+01 -0.17941729120E+02  0.54367084620E+02  0.40000001009E+02 0.  0.
         12    1    3    3    0    0  0.31969933811E+02  0.34347485663E+01  0.17941729120E+02  0.36820915380E+02  0.00000000000E+00 0. -1.
         11    1    4    4    0    0  0.95763548023E-01 -0.10543253281E+02 -0.16264106389E+01  0.10668391267E+02  0.51100000000E-03 0. -1.
        -11    1    4    4    0    0 -0.16355921872E+02 -0.83081303228E+01 -0.94884142499E+01  0.20653600533E+02  0.51100000000E-03 0.  1.
         12    1    4    4    0    0 -0.15709775487E+02  0.15416635037E+02 -0.68269042309E+01  0.23045092820E+02  0.00000000000E+00 0. -1.
</event>
<event>
 8    1  0.2504019E-006  0.9118800E+02  0.7816164E-02  0.1184000E+00
        -11   -1    0    0    0    0  0.00000000000E+00  0.00000000000E+00  0.45593999997E+02  0.45594000000E+02  0.51100000000E-03 0.  1.
         11   -1    0    0    0    0 -0.00000000000E+00 -0.00000000000E+00 -0.45593999997E+02  0.45594000000E+02  0.51100000000E-03 0. -1.
         23    2    1    2    0    0  0.35527136788E-14  0.00000000000E+00  0.00000000000E+00  0.91188000000E+02  0.91188000000E+02 0.  0.
    9900012    2    3    3    0    0  0.20515787482E+02 -0.10944156051E+02  0.28550094488E+02  0.54367082264E+02  0.39999995636E+02 0.  0.
         12    1    3    3    0    0 -0.20515787482E+02  0.10944156051E+02 -0.28550094488E+02  0.36820917736E+02  0.00000000000E+00 0. -1.
         11    1    4    4    0    0  0.10178507660E+02 -0.77579648451E+01  0.16603285677E+02  0.20963232867E+02  0.51100000000E-03 0. -1.
        -11    1    4    4    0    0  0.20511893898E+02 -0.42956630628E+01  0.78236034227E+01  0.22369606237E+02  0.51100000000E-03 0.  1.
         12    1    4    4    0    0 -0.10174614076E+02  0.11094718571E+01  0.41232053887E+01  0.11034243159E+02  0.00000000000E+00 0. -1.
</event>
<event>
 8    1  0.2504019E-006  0.9118800E+02  0.7816164E-02  0.1184000E+00
        -11   -1    0    0    0    0  0.00000000000E+00  0.00000000000E+00  0.45593999997E+02  0.45594000000E+02  0.51100000000E-03 0.  1.
         11   -1    0    0    0    0 -0.00000000000E+00 -0.00000000000E+00 -0.45593999997E+02  0.45594000000E+02  0.51100000000E-03 0. -1.
         23    2    1    2    0    0 -0.22204460493E-15  0.00000000000E+00 -0.71054273576E-14  0.91188000000E+02  0.91188000000E+02 0.  0.
    9900012    2    3    3    0    0  0.16425147869E+01  0.85919317773E+01 -0.35766724778E+02  0.54367112615E+02  0.40000064829E+02 0.  0.
        -12    1    3    3    0    0 -0.16425147869E+01 -0.85919317773E+01  0.35766724778E+02  0.36820887385E+02  0.00000000000E+00 0.  1.
         11    1    4    4    0    0  0.30797345072E+01 -0.77882969889E+01 -0.27667360806E+02  0.28907182306E+02  0.51100000000E-03 0. -1.
        -11    1    4    4    0    0 -0.68093112593E+01  0.37978410580E+00 -0.19537434132E+00  0.68226920778E+01  0.51100000000E-03 0.  1.
        -12    1    4    4    0    0  0.53720915391E+01  0.16000444660E+02 -0.79039896302E+01  0.18637238232E+02  0.00000000000E+00 0.  1.
</event>
<event>
 8    1  0.2504019E-006  0.9118800E+02  0.7816164E-02  0.1184000E+00
        -11   -1    0    0    0    0  0.00000000000E+00  0.00000000000E+00  0.45593999997E+02  0.45594000000E+02  0.51100000000E-03 0.  1.
         11   -1    0    0    0    0 -0.00000000000E+00 -0.00000000000E+00 -0.45593999997E+02  0.45594000000E+02  0.51100000000E-03 0. -1.
         23    2    1    2    0    0  0.00000000000E+00  0.00000000000E+00 -0.35527136788E-14  0.91188000000E+02  0.91188000000E+02 0.  0.
    9900012    2    3    3    0    0 -0.18793298943E+02  0.35143453203E+01 -0.31468109042E+02  0.54367073955E+02  0.39999976694E+02 0.  0.
        -12    1    3    3    0    0  0.18793298943E+02 -0.35143453203E+01  0.31468109042E+02  0.36820926045E+02  0.00000000000E+00 0.  1.
         11    1    4    4    0    0 -0.18508502011E+02 -0.14688154426E+01 -0.32620277625E+02  0.37534045587E+02  0.51100000000E-03 0. -1.
        -11    1    4    4    0    0 -0.65071908684E+01  0.76313966432E+01  0.56037919695E+00  0.10044688787E+02  0.51100000000E-03 0.  1.
         12    1    4    4    0    0  0.62223939369E+01 -0.26482358802E+01  0.59178938663E+00  0.67883395806E+01  0.00000000000E+00 0. -1.
</event>
<event>
 8    1  0.2504019E-006  0.9118800E+02  0.7816164E-02  0.1184000E+00
        -11   -1    0    0    0    0  0.00000000000E+00  0.00000000000E+00  0.45593999997E+02  0.45594000000E+02  0.51100000000E-03 0.  1.
         11   -1    0    0    0    0 -0.00000000000E+00 -0.00000000000E+00 -0.45593999997E+02  0.45594000000E+02  0.51100000000E-03 0. -1.
         23    2    1    2    0    0 -0.17763568394E-14  0.00000000000E+00 -0.35527136788E-14  0.91188000000E+02  0.91188000000E+02 0.  0.
    9900012    2    3    3    0    0  0.10791792050E+02  0.24267443282E+02  0.25503097946E+02  0.54367087682E+02  0.40000007989E+02 0.  0.
         12    1    3    3    0    0 -0.10791792050E+02 -0.24267443282E+02 -0.25503097946E+02  0.36820912318E+02  0.00000000000E+00 0. -1.
         11    1    4    4    0    0 -0.38606020899E+01  0.12420711820E+02 -0.40504768222E+01  0.13622947308E+02  0.51100000000E-03 0. -1.
        -11    1    4    4    0    0 -0.29941221569E+01 -0.15651752953E+01  0.12011176669E+02  0.12477295637E+02  0.51100000000E-03 0.  1.
         12    1    4    4    0    0  0.17646516296E+02  0.13411906757E+02  0.17542398100E+02  0.28266844737E+02  0.00000000000E+00 0. -1.
</event>
<event>
 8    1  0.2504019E-006  0.9118800E+02  0.7816164E-02  0.1184000E+00
        -11   -1    0    0    0    0  0.00000000000E+00  0.00000000000E+00  0.45593999997E+02  0.45594000000E+02  0.51100000000E-03 0. -1.
         11   -1    0    0    0    0 -0.00000000000E+00 -0.00000000000E+00 -0.45593999997E+02  0.45594000000E+02  0.51100000000E-03 0.  1.
         23    2    1    2    0    0 -0.17763568394E-14  0.00000000000E+00 -0.22204460493E-15  0.91188000000E+02  0.91188000000E+02 0.  0.
    9900012    2    3    3    0    0 -0.14899794962E+02  0.33619393858E+02  0.18742098172E+01  0.54367079375E+02  0.39999989051E+02 0.  0.
         12    1    3    3    0    0  0.14899794962E+02 -0.33619393858E+02 -0.18742098172E+01  0.36820920625E+02  0.00000000000E+00 0. -1.
         11    1    4    4    0    0  0.38070069835E+01 -0.13928197151E+00  0.15127713586E+01  0.40989241374E+01  0.51100000000E-03 0. -1.
        -11    1    4    4    0    0  0.10607810342E+01  0.30151977023E+02  0.45275500435E+00  0.30174027940E+02  0.51100000000E-03 0.  1.
        -12    1    4    4    0    0 -0.19767582979E+02  0.36066988065E+01 -0.91316545762E-01  0.20094127297E+02  0.00000000000E+00 0.  1.
</event>
<event>
 8    1  0.2504019E-006  0.9118800E+02  0.7816164E-02  0.1184000E+00
        -11   -1    0    0    0    0  0.00000000000E+00  0.00000000000E+00  0.45593999997E+02  0.45594000000E+02  0.51100000000E-03 0.  1.
         11   -1    0    0    0    0 -0.00000000000E+00 -0.00000000000E+00 -0.45593999997E+02  0.45594000000E+02  0.51100000000E-03 0. -1.
         23    2    1    2    0    0  0.00000000000E+00  0.00000000000E+00 -0.35527136788E-14  0.91188000000E+02  0.91188000000E+02 0.  0.
    9900012    2    3    3    0    0  0.85651476993E+01 -0.18859594576E+02  0.30442260089E+02  0.54367119212E+02  0.40000079867E+02 0.  0.
         12    1    3    3    0    0 -0.85651476993E+01  0.18859594576E+02 -0.30442260089E+02  0.36820880788E+02  0.00000000000E+00 0. -1.
         11    1    4    4    0    0  0.59987650487E+00 -0.59182742620E+01  0.53614871479E+01  0.80082062136E+01  0.51100000000E-03 0. -1.
        -11    1    4    4    0    0 -0.73906876437E+01 -0.15729216918E+02  0.25367091210E+02  0.30749306422E+02  0.51100000000E-03 0.  1.
         12    1    4    4    0    0  0.15355958838E+02  0.27878966040E+01 -0.28631826904E+00  0.15609606576E+02  0.00000000000E+00 0. -1.
</event>
<event>
 8    1  0.2504019E-006  0.9118800E+02  0.7816164E-02  0.1184000E+00
        -11   -1    0    0    0    0  0.00000000000E+00  0.00000000000E+00  0.45593999997E+02  0.45594000000E+02  0.51100000000E-03 0.  1.
         11   -1    0    0    0    0 -0.00000000000E+00 -0.00000000000E+00 -0.45593999997E+02  0.45594000000E+02  0.51100000000E-03 0. -1.
         23    2    1    2    0    0  0.00000000000E+00  0.00000000000E+00  0.71054273576E-14  0.91188000000E+02  0.91188000000E+02 0.  0.
    9900012    2    3    3    0    0 -0.62155122531E+00 -0.38254205826E+01 -0.36616307005E+02  0.54367162051E+02  0.40000177527E+02 0.  0.
        -12    1    3    3    0    0  0.62155122531E+00  0.38254205826E+01  0.36616307005E+02  0.36820837949E+02  0.00000000000E+00 0.  1.
         11    1    4    4    0    0  0.40791175777E+01 -0.85198132518E+01 -0.46168385577E+01  0.10513877334E+02  0.51100000000E-03 0. -1.
        -11    1    4    4    0    0 -0.42036807835E+01 -0.36449932668E+01  0.40286444065E+01  0.68692709992E+01  0.51100000000E-03 0.  1.
        -12    1    4    4    0    0 -0.49698801949E+00  0.83393859360E+01 -0.36028112854E+02  0.36984013718E+02  0.00000000000E+00 0.  1.
</event>
<event>
 8    1  0.2504019E-006  0.9118800E+02  0.7816164E-02  0.1184000E+00
        -11   -1    0    0    0    0  0.00000000000E+00  0.00000000000E+00  0.45593999997E+02  0.45594000000E+02  0.51100000000E-03 0. -1.
         11   -1    0    0    0    0 -0.00000000000E+00 -0.00000000000E+00 -0.45593999997E+02  0.45594000000E+02  0.51100000000E-03 0.  1.
         23    2    1    2    0    0  0.00000000000E+00  0.00000000000E+00  0.00000000000E+00  0.91188000000E+02  0.91188000000E+02 0.  0.
    9900012    2    3    3    0    0 -0.10473618529E+02  0.12264351708E+02 -0.33100879122E+02  0.54367092806E+02  0.40000019670E+02 0.  0.
         12    1    3    3    0    0  0.10473618529E+02 -0.12264351708E+02  0.33100879122E+02  0.36820907194E+02  0.00000000000E+00 0. -1.
         11    1    4    4    0    0 -0.75776241851E+01  0.92751700253E+01 -0.23880267067E+02  0.26715469727E+02  0.51100000000E-03 0. -1.
        -11    1    4    4    0    0  0.64242699040E+01  0.31780858894E+01 -0.15041142299E+02  0.16661555619E+02  0.51100000000E-03 0.  1.
         12    1    4    4    0    0 -0.93202642475E+01 -0.18890420672E+00  0.58205302444E+01  0.10990067460E+02  0.00000000000E+00 0. -1.
</event>
<event>
 8    1  0.2504019E-006  0.9118800E+02  0.7816164E-02  0.1184000E+00
        -11   -1    0    0    0    0  0.00000000000E+00  0.00000000000E+00  0.45593999997E+02  0.45594000000E+02  0.51100000000E-03 0. -1.
         11   -1    0    0    0    0 -0.00000000000E+00 -0.00000000000E+00 -0.45593999997E+02  0.45594000000E+02  0.51100000000E-03 0.  1.
         23    2    1    2    0    0  0.00000000000E+00  0.00000000000E+00  0.44408920985E-15  0.91188000000E+02  0.91188000000E+02 0.  0.
    9900012    2    3    3    0    0  0.11041116259E+02  0.35037392530E+02  0.25003760365E+01  0.54367122717E+02  0.40000087859E+02 0.  0.
        -12    1    3    3    0    0 -0.11041116259E+02 -0.35037392530E+02 -0.25003760365E+01  0.36820877283E+02  0.00000000000E+00 0.  1.
         11    1    4    4    0    0  0.10938468057E+02  0.36197618618E+02 -0.11356396532E+02  0.39482723050E+02  0.51100000000E-03 0.  1.
        -11    1    4    4    0    0 -0.20913223400E+01 -0.14457881030E+01  0.10893692659E+02  0.11186441453E+02  0.51100000000E-03 0. -1.
        -12    1    4    4    0    0  0.21939705419E+01  0.28556201540E+00  0.29630799090E+01  0.36979582137E+01  0.00000000000E+00 0.  1.
</event>
<event>
 8    1  0.2504019E-006  0.9118800E+02  0.7816164E-02  0.1184000E+00
        -11   -1    0    0    0    0  0.00000000000E+00  0.00000000000E+00  0.45593999997E+02  0.45594000000E+02  0.51100000000E-03 0. -1.
         11   -1    0    0    0    0 -0.00000000000E+00 -0.00000000000E+00 -0.45593999997E+02  0.45594000000E+02  0.51100000000E-03 0.  1.
         23    2    1    2    0    0  0.00000000000E+00  0.17763568394E-14  0.00000000000E+00  0.91188000000E+02  0.91188000000E+02 0.  0.
    9900012    2    3    3    0    0 -0.34995073007E+02  0.82107801107E+01 -0.79817366668E+01  0.54367079792E+02  0.39999990001E+02 0.  0.
         12    1    3    3    0    0  0.34995073007E+02 -0.82107801107E+01  0.79817366668E+01  0.36820920208E+02  0.00000000000E+00 0. -1.
         11    1    4    4    0    0 -0.22771943835E+02 -0.53264899751E+01  0.24162357239E+01  0.23511084977E+02  0.51100000000E-03 0. -1.
        -11    1    4    4    0    0 -0.15374168437E+02  0.28257303507E+00 -0.64186271557E+01  0.16662643171E+02  0.51100000000E-03 0.  1.
         12    1    4    4    0    0  0.31510392648E+01  0.13254697051E+02 -0.39793452349E+01  0.14193351643E+02  0.00000000000E+00 0. -1.
</event>
<event>
 8    1  0.2504019E-006  0.9118800E+02  0.7816164E-02  0.1184000E+00
        -11   -1    0    0    0    0  0.00000000000E+00  0.00000000000E+00  0.45593999997E+02  0.45594000000E+02  0.51100000000E-03 0.  1.
         11   -1    0    0    0    0 -0.00000000000E+00 -0.00000000000E+00 -0.45593999997E+02  0.45594000000E+02  0.51100000000E-03 0. -1.
         23    2    1    2    0    0  0.00000000000E+00  0.00000000000E+00  0.00000000000E+00  0.91188000000E+02  0.91188000000E+02 0.  0.
    9900012    2    3    3    0    0 -0.72779120885E+01 -0.14153650237E+02 -0.33203691422E+02  0.54367096379E+02  0.40000027815E+02 0.  0.
        -12    1    3    3    0    0  0.72779120885E+01  0.14153650237E+02  0.33203691422E+02  0.36820903621E+02  0.00000000000E+00 0.  1.
         11    1    4    4    0    0 -0.79825413604E+01 -0.39331287115E+01  0.11873130945E+01  0.89777603375E+01  0.51100000000E-03 0. -1.
        -11    1    4    4    0    0 -0.10251462534E+02 -0.12817619436E+02 -0.27963089710E+02  0.32424037973E+02  0.51100000000E-03 0.  1.
        -12    1    4    4    0    0  0.10956091806E+02  0.25970979110E+01 -0.64279148070E+01  0.12965298068E+02  0.00000000000E+00 0.  1.
</event>
